TITLE = "Final State"
VARIABLES = "X", "Y", "rho", "u", "v", "T", "p", "c", "M"
ZONE I=19, J=49, DATAPACKING=POINT
3.0335110000000000e-03,	 5.3666475000000005e-02,	 9.9883905383129545e-01,	 1.1275598940252692e+02,	 3.8017649193745751e+00,	 2.8965317725072538e+02,	 8.3234571630137696e+04,	 3.4156088874621503e+02,	 3.3030732289247050e-01 
8.7324435000000009e-03,	 5.0947000000000006e-02,	 9.3116784005960929e-01,	 8.4843818919700254e+01,	 1.0095939004956398e+01,	 2.9737940368777072e+02,	 7.9665225901350204e+04,	 3.4608631740080824e+02,	 2.4688172652823287e-01 
1.3754022499999999e-02,	 4.8474137500000007e-02,	 8.8693796364559074e-01,	 6.9650553125142025e+01,	 9.6509956073845427e+00,	 3.0105840594796507e+02,	 7.6819935764330119e+04,	 3.4822052461093836e+02,	 2.0192953907811204e-01 
1.8199835000000001e-02,	 4.6272204999999997e-02,	 8.5785143960862376e-01,	 6.0578281826821247e+01,	 1.6909647787983901e+00,	 3.0273621752755412e+02,	 7.4714759409970779e+04,	 3.4918950050869341e+02,	 1.7355011446773483e-01 
2.2144114999999999e-02,	 4.4317290000000002e-02,	 8.4291111920282846e-01,	 5.3943653224895328e+01,	 -1.1890376597266005e+01,	 3.0344391648154345e+02,	 7.3585145912596025e+04,	 3.4959740808025123e+02,	 1.5800621271526161e-01 
2.5648085000000001e-02,	 4.2579970000000002e-02,	 8.4363422785466269e-01,	 4.7737713498102316e+01,	 -2.8813880752396923e+01,	 3.0337362630187147e+02,	 7.3631212454095017e+04,	 3.4955691511515391e+02,	 1.5951498001279252e-01 
2.8766384999999998e-02,	 4.1033547500000003e-02,	 8.6147459317696640e-01,	 4.2409379148873057e+01,	 -4.4567831479065212e+01,	 3.0221374013319041e+02,	 7.4900827666423254e+04,	 3.4888804598261953e+02,	 1.7633481929856232e-01 
3.1546097500000002e-02,	 3.9654272500000004e-02,	 8.9057447981594717e-01,	 3.7603463709899117e+01,	 -5.6483294717473854e+01,	 3.0081573081028307e+02,	 7.7072727223835711e+04,	 3.4808015068656312e+02,	 1.9494247054514438e-01 
3.4027402499999998e-02,	 3.8421617500000005e-02,	 9.2526801432209194e-01,	 3.3461612450019892e+01,	 -6.4275777074784543e+01,	 2.9957385901063799e+02,	 7.9744621421113159e+04,	 3.4736090973063818e+02,	 2.0861346717081763e-01 
3.6248184999999995e-02,	 3.7316435000000009e-02,	 9.6112450954864148e-01,	 3.0236517701214396e+01,	 -6.8575275577811453e+01,	 2.9863258096462874e+02,	 8.2574656828576175e+04,	 3.4681476655585385e+02,	 2.1609638204523698e-01 
3.8243665000000003e-02,	 3.6321052499999999e-02,	 9.9516850923429467e-01,	 2.7921458021055862e+01,	 -7.0156962259321205e+01,	 2.9801899725303520e+02,	 8.5323863346804559e+04,	 3.4645829287427028e+02,	 2.1794538883519643e-01 
4.0044759999999999e-02,	 3.5420005000000004e-02,	 1.0258570969478258e+00,	 2.6460889433958343e+01,	 -6.9681416793742429e+01,	 2.9769872350959383e+02,	 8.7860521599671469e+04,	 3.4627207769443186e+02,	 2.1525392571523183e-01 
4.1680872500000000e-02,	 3.4598742500000002e-02,	 1.0524367402622283e+00,	 2.5701786137616335e+01,	 -6.7704138835542864e+01,	 2.9761880389210984e+02,	 9.0112762823368539e+04,	 3.4622559481193872e+02,	 2.0916550750165097e-01 
4.3179617500000003e-02,	 3.3844017500000004e-02,	 1.0749709924272945e+00,	 2.5502710686411426e+01,	 -6.4602525166463991e+01,	 2.9772747862207063e+02,	 9.2075821466766036e+04,	 3.4628880072903831e+02,	 2.0056703501804102e-01 
4.4566620000000001e-02,	 3.3143960000000000e-02,	 1.0936267586302961e+00,	 2.5740478008934378e+01,	 -6.0668800519928034e+01,	 2.9797967938464330e+02,	 9.3753116640687411e+04,	 3.4643543787004586e+02,	 1.9023322979757196e-01 
4.5864135000000000e-02,	 3.2489669999999998e-02,	 1.1091602872990849e+00,	 2.6323229733010894e+01,	 -5.6164863312641494e+01,	 2.9833333975109878e+02,	 9.5197608623174121e+04,	 3.4664096220652789e+02,	 1.7893859836240450e-01 
4.7092560000000006e-02,	 3.1874160000000006e-02,	 1.1217770439948036e+00,	 2.7375271420677759e+01,	 -5.1131043899730258e+01,	 2.9876510790397407e+02,	 9.6419830056893741e+04,	 3.4689171261652069e+02,	 1.6719391114238549e-01 
4.8272762499999997e-02,	 3.1292645000000001e-02,	 1.1324708494174747e+00,	 2.9136293659344258e+01,	 -4.5459626818480032e+01,	 2.9926001506721610e+02,	 9.7500235059793180e+04,	 3.4717890839455168e+02,	 1.5552610111662252e-01 
4.9426767500000010e-02,	 3.0747897499999996e-02,	 1.1441804026543003e+00,	 3.2514517848846474e+01,	 -3.8423794448365470e+01,	 2.9980123448938480e+02,	 9.8686525589987126e+04,	 3.4749270756582456e+02,	 1.4485109236032873e-01 
3.0744560000000002e-03,	 5.5638830000000000e-02,	 1.0377434941595107e+00,	 1.6261367773036699e+02,	 -2.8215004475139440e+00,	 2.7858746584497544e+02,	 8.3172839735852525e+04,	 3.3497297701693617e+02,	 4.8552619134127939e-01 
8.8365560000000006e-03,	 5.2850110000000006e-02,	 9.7475355405338326e-01,	 1.3664547897411492e+02,	 -4.8928465263950525e+00,	 2.8687948904357427e+02,	 8.0449669357610983e+04,	 3.3992157935982311e+02,	 4.0224880669346230e-01 
1.3895192499999999e-02,	 5.0196967500000009e-02,	 9.2527724992935712e-01,	 1.1728809086412048e+02,	 -7.5207448505063610e+00,	 2.9279858038655988e+02,	 7.7941864096434088e+04,	 3.4341042099124826e+02,	 3.4224053456058567e-01 
1.8370717500000001e-02,	 4.7805972500000002e-02,	 8.8937584067916331e-01,	 1.0343412360854452e+02,	 -1.5169587131717053e+01,	 2.9639432464419070e+02,	 7.5837699241047449e+04,	 3.4551263077013164e+02,	 3.0256661420459319e-01 
2.2343002500000000e-02,	 4.5677157500000003e-02,	 8.6932047284525549e-01,	 9.2954148654238637e+01,	 -2.7810575286110026e+01,	 2.9822160654070592e+02,	 7.4584563169922825e+04,	 3.4657604332295523e+02,	 2.7995375285199381e-01 
2.5872622500000001e-02,	 4.3782752500000001e-02,	 8.6692370629848003e-01,	 8.3329313570767908e+01,	 -4.3436684655577373e+01,	 2.9880023634149489e+02,	 7.4523244285651730e+04,	 3.4691210556963841e+02,	 2.7087797003400871e-01 
2.9014195000000000e-02,	 4.2095534999999996e-02,	 8.8126397292087921e-01,	 7.3244135376137450e+01,	 -5.7179383831093411e+01,	 2.9857202919106317e+02,	 7.5698116431068571e+04,	 3.4677960409338147e+02,	 2.6795208211300792e-01 
3.1812707500000002e-02,	 4.0590430000000004e-02,	 9.0709822213443947e-01,	 6.4365985073304969e+01,	 -6.7554551454441111e+01,	 2.9780955150806551e+02,	 7.7718225457929468e+04,	 3.4633652719856923e+02,	 2.6941758255580422e-01 
3.4304724999999994e-02,	 3.9246087499999999e-02,	 9.3916449795536439e-01,	 5.6693363743578921e+01,	 -7.4018653731819910e+01,	 2.9705547736349450e+02,	 8.0261850641667959e+04,	 3.4589777540283228e+02,	 2.6954702184119861e-01 
3.6526719999999999e-02,	 3.8041975000000006e-02,	 9.7269433802770466e-01,	 5.0344534733467320e+01,	 -7.7101946769101886e+01,	 2.9652408557125517e+02,	 8.2978637723136984e+04,	 3.4558825491263593e+02,	 2.6645297578650329e-01 
3.8514279999999998e-02,	 3.6958629999999999e-02,	 1.0045994995172576e+00,	 4.5249392934994702e+01,	 -7.7546388855396927e+01,	 2.9626319554433712e+02,	 8.5625002627952999e+04,	 3.4543619244339538e+02,	 2.5991136810513188e-01 
4.0297945000000002e-02,	 3.5979440000000001e-02,	 1.0332295693782116e+00,	 4.1255652249564207e+01,	 -7.5988168696005502e+01,	 2.9625292632326307e+02,	 8.8062176056368262e+04,	 3.4543020555163639e+02,	 2.5031163323461503e-01 
4.1908422500000000e-02,	 3.5088279999999999e-02,	 1.0578792329828621e+00,	 3.8149663562323035e+01,	 -7.2968784962546081e+01,	 2.9644849514565931e+02,	 9.0222587732925633e+04,	 3.4554420313135813e+02,	 2.3829016826005936e-01 
4.3375499999999997e-02,	 3.4270800000000004e-02,	 1.0786640316053164e+00,	 3.5749378115845573e+01,	 -6.8882419490405525e+01,	 2.9680116878897110e+02,	 9.2104689241859451e+04,	 3.4574968251854767e+02,	 2.2445931757749249e-01 
4.4727145000000003e-02,	 3.3514567500000002e-02,	 1.0958169659973078e+00,	 3.3920567229981813e+01,	 -6.4031458243825625e+01,	 2.9726718617912326e+02,	 9.3716255962604380e+04,	 3.4602101259430327e+02,	 2.0941285588560724e-01 
4.5986282500000003e-02,	 3.2813439999999999e-02,	 1.1101315827778102e+00,	 3.2619508873926975e+01,	 -5.8723462418253114e+01,	 2.9779892196823295e+02,	 9.5110292450091220e+04,	 3.4633034635120760e+02,	 1.9396214246059287e-01 
4.7173772500000002e-02,	 3.2163890000000001e-02,	 1.1217873995059398e+00,	 3.1957679001880742e+01,	 -5.3017835455885148e+01,	 2.9837159323064378e+02,	 9.6293720812775588e+04,	 3.4666318533104692e+02,	 1.7857286252124036e-01 
4.8314927499999993e-02,	 3.1564774999999996e-02,	 1.1319172608711168e+00,	 3.2188495834321422e+01,	 -4.6896626374319844e+01,	 2.9895918435866918e+02,	 9.7354609714513776e+04,	 3.4700436396410873e+02,	 1.6391872703707708e-01 
4.9438787499999998e-02,	 3.1032562499999999e-02,	 1.1434971877890434e+00,	 3.4352852916038401e+01,	 -3.9931030942471821e+01,	 2.9950885148976187e+02,	 9.8531410559246986e+04,	 3.4732321903088655e+02,	 1.5165852310774891e-01 
3.0649490000000000e-03,	 5.7588785000000003e-02,	 1.0665214935636425e+00,	 1.8543804129201757e+02,	 -3.8592791236802793e+00,	 2.7279144467334982e+02,	 8.3700932310791803e+04,	 3.3147010011695295e+02,	 5.5956237362097072e-01 
8.8253615000000001e-03,	 5.4725220000000005e-02,	 1.0085832515583317e+00,	 1.6635600924717937e+02,	 -1.0931867519972213e+01,	 2.7933312670823182e+02,	 8.1052073979760913e+04,	 3.3542096796550322e+02,	 4.9703156607010895e-01 
1.3898377500000001e-02,	 5.1918295000000003e-02,	 9.6022326931494195e-01,	 1.4913266656199838e+02,	 -1.6831674558887745e+01,	 2.8515367612130143e+02,	 7.8773680699654462e+04,	 3.3889758492837973e+02,	 4.4284618899429717e-01 
1.8387440000000001e-02,	 4.9354285000000005e-02,	 9.2267010540287142e-01,	 1.3479214323805132e+02,	 -2.5660839306975454e+01,	 2.8945254937693858e+02,	 7.6834057119275574e+04,	 3.4144257741633504e+02,	 4.0186252165646202e-01 
2.2372092500000003e-02,	 4.7062522500000002e-02,	 8.9920422402262057e-01,	 1.2256433335258721e+02,	 -3.8063690673638952e+01,	 2.9213715898727474e+02,	 7.5574464274085665e+04,	 3.4302232583609708e+02,	 3.7414138991605750e-01 
2.5911750000000001e-02,	 4.5019702500000008e-02,	 8.9284099283701290e-01,	 1.1081396253901001e+02,	 -5.2629697700259946e+01,	 2.9346030220831955e+02,	 7.5379529027955345e+04,	 3.4379825402431339e+02,	 3.5682813598014473e-01 
2.9061052500000000e-02,	 4.3199680000000004e-02,	 9.0219672694323405e-01,	 9.7857210133004159e+01,	 -6.5084860979380792e+01,	 2.9429495079819992e+02,	 7.6386039950776976e+04,	 3.4428681581926088e+02,	 3.4135717503759977e-01 
3.1864520000000000e-02,	 4.1576197500000002e-02,	 9.2316032686704697e-01,	 8.5990499917821325e+01,	 -7.4545106344584184e+01,	 2.9444492453276592e+02,	 7.8200790346591719e+04,	 3.4437452952765403e+02,	 3.3046564101748255e-01 
3.4358655000000002e-02,	 4.0126030000000007e-02,	 9.5105167554370207e-01,	 7.5492471327942013e+01,	 -8.0263312370703161e+01,	 2.9440360131356948e+02,	 8.0552156338651068e+04,	 3.4435036344036337e+02,	 3.1998695502588514e-01 
3.6579415000000004e-02,	 3.8827337500000003e-02,	 9.8124562019791206e-01,	 6.6543108229110402e+01,	 -8.2675280459603457e+01,	 2.9442181666052994e+02,	 8.3114664630827421e+04,	 3.4436101610272647e+02,	 3.0818867209088768e-01 
3.8562529999999998e-02,	 3.7659365000000000e-02,	 1.0105636664716737e+00,	 5.9101932904004030e+01,	 -8.2481065793574047e+01,	 2.9458677485842185e+02,	 8.5645956296941382e+04,	 3.4445747162160495e+02,	 2.9457923552980309e-01 
4.0338822500000003e-02,	 3.6604397499999997e-02,	 1.0371778941494736e+00,	 5.2973556761473219e+01,	 -8.0291917582267914e+01,	 2.9491785571322771e+02,	 8.8000321119356042e+04,	 3.4465098208960450e+02,	 2.7910108195123168e-01 
4.1939607500000003e-02,	 3.5645242500000000e-02,	 1.0602790232152199e+00,	 4.7951243649656455e+01,	 -7.6662564700945509e+01,	 2.9538884731842205e+02,	 9.0104026924607038e+04,	 3.4492608065930676e+02,	 2.6215425190639385e-01 
4.3395407499999997e-02,	 3.4767025000000000e-02,	 1.0799096747284254e+00,	 4.3854754405931615e+01,	 -7.2014138480730480e+01,	 2.9596193568369034e+02,	 9.1950316512787802e+04,	 3.4526051667684334e+02,	 2.4421130248901962e-01 
4.4735017499999995e-02,	 3.3957122499999999e-02,	 1.0962769285445937e+00,	 4.0559054007557123e+01,	 -6.6673540660155993e+01,	 2.9660057095582169e+02,	 9.3545347909350166e+04,	 3.4563282253393356e+02,	 2.2579163848568667e-01 
4.5982607500000001e-02,	 3.3210485000000005e-02,	 1.1101342998512826e+00,	 3.8041313329996086e+01,	 -6.0973356042178686e+01,	 2.9726040511961577e+02,	 9.4938534617834390e+04,	 3.4601706597226166e+02,	 2.0769837040811326e-01 
4.7160604999999994e-02,	 3.2524250000000005e-02,	 1.1216222108309741e+00,	 3.6413818862981927e+01,	 -5.5022658406026792e+01,	 2.9791963654288219e+02,	 9.6133702200186148e+04,	 3.4640053277824114e+02,	 1.9047530828167847e-01 
4.8298370000000000e-02,	 3.1895910000000000e-02,	 1.1318038940779227e+00,	 3.5930066167026986e+01,	 -4.8840127518759900e+01,	 2.9855494387801690e+02,	 9.7213233426833118e+04,	 3.4676968199372544e+02,	 1.7485014174724731e-01 
4.9430807500000000e-02,	 3.1343920000000004e-02,	 1.1433365373374860e+00,	 3.7484710559369084e+01,	 -4.2045805179437188e+01,	 2.9911653109820253e+02,	 9.8388521730263747e+04,	 3.4709566877395855e+02,	 1.6228659299796339e-01 
3.0355534999999996e-03,	 5.9511469999999997e-02,	 1.0869376525093046e+00,	 1.9720130404494222e+02,	 -3.4818806392273656e+00,	 2.6966028888978570e+02,	 8.4324071200470979e+04,	 3.2956226902464635e+02,	 5.9846669070798963e-01 
8.7619684999999999e-03,	 5.6552075000000000e-02,	 1.0347067137682688e+00,	 1.8383512497335417e+02,	 -1.3058219194611123e+01,	 2.7446228524077145e+02,	 8.1701471694167674e+04,	 3.3248367336850981e+02,	 5.5430787562333583e-01 
1.3830700000000001e-02,	 5.3607084999999999e-02,	 9.8947098468548689e-01,	 1.6945527078016423e+02,	 -2.1240310292333358e+01,	 2.7950907571109775e+02,	 7.9566254576366046e+04,	 3.3552659040801535e+02,	 5.0899471830755472e-01 
1.8321950000000000e-02,	 5.0886925000000000e-02,	 9.5262400365313527e-01,	 1.5600292301801721e+02,	 -3.1140471663066840e+01,	 2.8377309718679851e+02,	 7.7771894454594934e+04,	 3.3807619879859624e+02,	 4.7054661670311709e-01 
2.2309630000000000e-02,	 4.8445032500000006e-02,	 9.2737858893854586e-01,	 1.4340933986112665e+02,	 -4.3519081673541571e+01,	 2.8686920912597020e+02,	 7.6536912425619113e+04,	 3.3991548900260767e+02,	 4.4089519329265692e-01 
2.5851245000000002e-02,	 4.6263507500000002e-02,	 9.1705783670442886e-01,	 1.3078155934504863e+02,	 -5.7370528067202279e+01,	 2.8882130555885288e+02,	 7.6200161315921650e+04,	 3.4107006186079366e+02,	 4.1871673397313119e-01 
2.9001275000000000e-02,	 4.4318534999999999e-02,	 9.2247539404051782e-01,	 1.1734312066093327e+02,	 -6.9659143861380088e+01,	 2.9009775877724383e+02,	 7.6989074995286399e+04,	 3.4182291493748534e+02,	 3.9921762409202483e-01 
3.1804322500000003e-02,	 4.2583212500000002e-02,	 9.3864410211536864e-01,	 1.0350676688913497e+02,	 -7.8536647068291174e+01,	 2.9113319120648043e+02,	 7.8618112698915618e+04,	 3.4243239788304135e+02,	 3.7943087961656635e-01 
3.4297847499999999e-02,	 4.1032560000000003e-02,	 9.6191784600871133e-01,	 9.0974152266000146e+01,	 -8.3939302446436727e+01,	 2.9182906021025622e+02,	 8.0760027118794853e+04,	 3.4284139603085578e+02,	 3.6104882180678594e-01 
3.6517887499999999e-02,	 3.9643547500000001e-02,	 9.8843732092032111e-01,	 8.0026500076491558e+01,	 -8.6109604403089946e+01,	 2.9241646269104302e+02,	 8.3153568517031090e+04,	 3.4318626341544547e+02,	 3.4253902498997191e-01 
3.8500304999999999e-02,	 3.8394330000000004e-02,	 1.0150522673596647e+00,	 7.0718196061958878e+01,	 -8.5670615748313622e+01,	 2.9301306324484182e+02,	 8.5566806921087657e+04,	 3.4353617666399020e+02,	 3.2336589311365993e-01 
4.0276255000000004e-02,	 3.7266195000000002e-02,	 1.0397797058595915e+00,	 6.2925927999281775e+01,	 -8.3246596361082524e+01,	 2.9366724337800451e+02,	 8.7846968844436837e+04,	 3.4391945180488705e+02,	 3.0342445755750619e-01 
4.1877232500000000e-02,	 3.6241027500000002e-02,	 1.0616458922356662e+00,	 5.6458315686388637e+01,	 -7.9395049024507145e+01,	 2.9438104622027356e+02,	 8.9912374186164452e+04,	 3.4433717235964099e+02,	 2.8292720811379324e-01 
4.3334097500000002e-02,	 3.5303260000000003e-02,	 1.0805250979580294e+00,	 5.1131626938248310e+01,	 -7.4549551835880209e+01,	 2.9513701125208814e+02,	 9.1746281544156343e+04,	 3.4477901459649502e+02,	 2.6219563227162662e-01 
4.4675949999999999e-02,	 3.4439797500000001e-02,	 1.0964885894699503e+00,	 4.6809080857368997e+01,	 -6.9042868436911135e+01,	 2.9591285817466564e+02,	 9.3346468187080784e+04,	 3.4523188929847242e+02,	 2.4161925926140257e-01 
4.5928262500000004e-02,	 3.3645410000000001e-02,	 1.1102115216188160e+00,	 4.3455591621416175e+01,	 -6.3208682538486521e+01,	 2.9667381868106304e+02,	 9.4757782578411439e+04,	 3.4567549820223456e+02,	 2.2190016345913713e-01 
4.7114735000000005e-02,	 3.2917169999999996e-02,	 1.1217208045843614e+00,	 4.1156529266025125e+01,	 -5.7177520373845077e+01,	 2.9740459368300242e+02,	 9.5975942266222788e+04,	 3.4610097498631791e+02,	 2.0355180013586596e-01 
4.8265782500000000e-02,	 3.2251752500000001e-02,	 1.1320023506087842e+00,	 4.0117536000096962e+01,	 -5.0976619209460956e+01,	 2.9808807480612421e+02,	 9.7078234233846466e+04,	 3.4649844317454955e+02,	 1.8721396871383031e-01 
4.9418542500000009e-02,	 3.1668192499999998e-02,	 1.1434570521986649e+00,	 4.1126792392443640e+01,	 -4.4273586408015504e+01,	 2.9867792436119703e+02,	 9.8254606200453985e+04,	 3.4684109516767711e+02,	 1.7422436092934745e-01 
3.0017224999999998e-03,	 6.1413582500000008e-02,	 1.1021959374961559e+00,	 2.0339036434875442e+02,	 -2.8841125863963510e+00,	 2.6797301887403819e+02,	 8.4972777118416227e+04,	 3.2852961217768592e+02,	 6.1915518237373668e-01 
8.6814474999999999e-03,	 5.8337160000000006e-02,	 1.0550814132535351e+00,	 1.9445466074578459e+02,	 -1.3444503933842212e+01,	 2.7137075323588743e+02,	 8.2371874657471737e+04,	 3.3060582912377993e+02,	 5.8958089303617189e-01 
1.3733539999999999e-02,	 5.5259382500000002e-02,	 1.0133521309874303e+00,	 1.8278099869419586e+02,	 -2.3005178811209749e+01,	 2.7553973652605225e+02,	 8.0329407075802243e+04,	 3.3313564649895642e+02,	 5.5299710735943752e-01 
1.8219582499999998e-02,	 5.2394935000000004e-02,	 9.7811272573007413e-01,	 1.7061904175502960e+02,	 -3.3623232219928660e+01,	 2.7947451093768512e+02,	 7.8643177358385859e+04,	 3.3550584374870789e+02,	 5.1832327094939201e-01 
2.2204692499999998e-02,	 4.9813455000000006e-02,	 9.5222368920492817e-01,	 1.5830963458475787e+02,	 -4.5967830710254127e+01,	 2.8268421226780777e+02,	 7.7440914536498400e+04,	 3.3742694786975665e+02,	 4.8854533180173115e-01 
2.5744145000000003e-02,	 4.7501515000000001e-02,	 9.3905349471066324e-01,	 1.4542934665943696e+02,	 -5.9290931386213444e+01,	 2.8504528107518775e+02,	 7.7007695378635195e+04,	 3.3883316648654568e+02,	 4.6350626509332760e-01 
2.8892095000000003e-02,	 4.5438182500000000e-02,	 9.4031332888172336e-01,	 1.3171661639184876e+02,	 -7.1275831861546337e+01,	 2.8676024345973354e+02,	 7.7574943893237738e+04,	 3.3985092537136291e+02,	 4.4067807964271255e-01 
3.1693209999999999e-02,	 4.3596352500000005e-02,	 9.5235808433181135e-01,	 1.1733796009597364e+02,	 -8.0153139799368972e+01,	 2.8826555163890981e+02,	 7.8981059728443463e+04,	 3.4074175800611027e+02,	 4.1703459272462867e-01 
3.4186075000000003e-02,	 4.1949635000000006e-02,	 9.7170521036814927e-01,	 1.0364095092663825e+02,	 -8.5632632262892713e+01,	 2.8951488036817591e+02,	 8.0934811442598380e+04,	 3.4147933872440450e+02,	 3.9370184121342566e-01 
3.6407122500000000e-02,	 4.0473825000000005e-02,	 9.9490760431227365e-01,	 9.1424666743092857e+01,	 -8.7971373760861866e+01,	 2.9055859173144438e+02,	 8.3166114089833398e+04,	 3.4209430751194265e+02,	 3.7087918162321559e-01 
3.8392227500000001e-02,	 3.9146097500000004e-02,	 1.0190478426126963e+00,	 8.0824384992005747e+01,	 -8.7665920208305735e+01,	 2.9151963884749892e+02,	 8.5465793396227440e+04,	 3.4265959339241624e+02,	 3.4798037570283585e-01 
4.0172865000000002e-02,	 3.7946727500000006e-02,	 1.0420561596537401e+00,	 7.1808716616991546e+01,	 -8.5323144876244996e+01,	 2.9245563671914681e+02,	 8.7676066788384400e+04,	 3.4320925038747350e+02,	 3.2493062114669291e-01 
4.1780322499999994e-02,	 3.6856795000000005e-02,	 1.0628201680332028e+00,	 6.4233062027097745e+01,	 -8.1507337411642354e+01,	 2.9338545318647778e+02,	 8.9707406482168270e+04,	 3.4375440720094150e+02,	 3.0188818351089070e-01 
4.3245267500000004e-02,	 3.5860097500000007e-02,	 1.0810488544074961e+00,	 5.7938818361641523e+01,	 -7.6668042856587888e+01,	 2.9430575402850985e+02,	 9.1532223320989258e+04,	 3.4429313494845536e+02,	 2.7911786135601985e-01 
4.4596755000000002e-02,	 3.4942892500000003e-02,	 1.0966894545438166e+00,	 5.2793912757839983e+01,	 -7.1153136555276632e+01,	 2.9520607931066496e+02,	 9.3140572225549433e+04,	 3.4481935488462761e+02,	 2.5694623279422307e-01 
4.5861090000000000e-02,	 3.4099572500000001e-02,	 1.1103268293353905e+00,	 4.8758366180566931e+01,	 -6.5295145303995781e+01,	 2.9606102758197358e+02,	 9.4571878073762869e+04,	 3.4531831069130175e+02,	 2.3598897472735059e-01 
4.7062832499999999e-02,	 3.3326917500000004e-02,	 1.1218872332460339e+00,	 4.5888546266117480e+01,	 -5.9246604243657977e+01,	 2.9686174823759706e+02,	 9.5814973557929843e+04,	 3.4578496583051674e+02,	 2.1672265011296790e-01 
4.8232355000000005e-02,	 3.2621207499999999e-02,	 1.1322642286347659e+00,	 4.4350428968905128e+01,	 -5.3045981538104805e+01,	 2.9759669792229687e+02,	 9.6940628813642470e+04,	 3.4621273642635708e+02,	 1.9971418599821608e-01 
4.9406822499999996e-02,	 3.2002417500000005e-02,	 1.1436245598578256e+00,	 4.4821251531880058e+01,	 -4.6398457100531651e+01,	 2.9822388816178091e+02,	 9.8119615810774354e+04,	 3.4657736910498227e+02,	 1.8613943391846885e-01 
2.9702775000000001e-03,	 6.3301720000000006e-02,	 1.1139673797703842e+00,	 2.0656940481142308e+02,	 -2.3766361460480763e+00,	 2.6708844524459965e+02,	 8.5596796458750920e+04,	 3.2798692908850165e+02,	 6.2985155185839681e-01 
8.6030175000000007e-03,	 6.0090075000000007e-02,	 1.0713696514977380e+00,	 2.0096209515087972e+02,	 -1.3058754152436478e+01,	 2.6942692105282362e+02,	 8.3044383550370520e+04,	 3.2941963422852456e+02,	 6.1133555473054535e-01 
1.3633144999999999e-02,	 5.6878232500000001e-02,	 1.0329461626271694e+00,	 1.9165786461806374e+02,	 -2.3319369401330739e+01,	 2.7279547039143438e+02,	 8.1067126421879191e+04,	 3.3147254594192196e+02,	 5.8246545781074222e-01 
1.8109142500000001e-02,	 5.3876550000000002e-02,	 9.9966499781224594e-01,	 1.8088507646233219e+02,	 -3.4333270100200764e+01,	 2.7630258007877484e+02,	 7.9463806296623443e+04,	 3.3359647790873788e+02,	 5.5190809201664937e-01 
2.2088014999999999e-02,	 5.1163420000000001e-02,	 9.7390113309977266e-01,	 1.6921347949286334e+02,	 -4.6592319655541125e+01,	 2.7944565576533330e+02,	 7.8296467977687222e+04,	 3.3548852315511465e+02,	 5.2314997999363810e-01 
2.5622710000000000e-02,	 4.8728177499999997e-02,	 9.5886322456354978e-01,	 1.5654249067469291e+02,	 -5.9518295826591739e+01,	 2.8201313486120324e+02,	 7.7795761469867823e+04,	 3.3702619299924731e+02,	 4.9692074943132780e-01 
2.8766814999999998e-02,	 4.6552447500000003e-02,	 9.5655472705303835e-01,	 1.4290127266208737e+02,	 -7.1274404057296280e+01,	 2.8405708032425679e+02,	 7.8170947953884170e+04,	 3.3824531971394578e+02,	 4.7211220641131557e-01 
3.1565070000000001e-02,	 4.4609072499999999e-02,	 9.6524322377086924e-01,	 1.2877470591613630e+02,	 -8.0441891775458970e+01,	 2.8574041214559043e+02,	 7.9348435039221178e+04,	 3.3924606586627323e+02,	 4.4756555521950298e-01 
3.4056910000000003e-02,	 4.2870585000000003e-02,	 9.8110166871212390e-01,	 1.1452601673534964e+02,	 -8.6154619463876628e+01,	 2.8738210725835518e+02,	 8.1115467739866057e+04,	 3.4021922352044044e+02,	 4.2123938397561750e-01 
3.6279357499999998e-02,	 4.1311610000000006e-02,	 1.0012374280799177e+00,	 1.0146154813963581e+02,	 -8.8810096011907135e+01,	 2.8880573541646828e+02,	 8.3190326176132934e+04,	 3.4106086831984391e+02,	 3.9535305443256735e-01 
3.8268450000000002e-02,	 3.9908305000000005e-02,	 1.0230035926054322e+00,	 8.9920208935893669e+01,	 -8.8810504048749607e+01,	 2.9008340487563163e+02,	 8.5374855315772074e+04,	 3.4181445821378514e+02,	 3.6974484858960244e-01 
4.0055975000000001e-02,	 3.8639927500000004e-02,	 1.0443604254752572e+00,	 7.9964204750195037e+01,	 -8.6723578141369856e+01,	 2.9127059160396681e+02,	 8.7513888626605156e+04,	 3.4251319388802369e+02,	 3.4440404901810062e-01 
4.1672884999999993e-02,	 3.7486792500000005e-02,	 1.0640703090453087e+00,	 7.1511783655351209e+01,	 -8.3105329469794711e+01,	 2.9239495288390367e+02,	 8.9509706789253527e+04,	 3.4317364099667606e+02,	 3.1948178128548699e-01 
4.3149267499999998e-02,	 3.6432132500000006e-02,	 1.0816893354281938e+00,	 6.4434816083147723e+01,	 -7.8414490531826402e+01,	 2.9346434765094415e+02,	 9.1324611358248672e+04,	 3.4380062369971319e+02,	 2.9520672192592745e-01 
4.4513837500000000e-02,	 3.5461590000000001e-02,	 1.0970302771122169e+00,	 5.8611338656917646e+01,	 -7.3008841268507453e+01,	 2.9447898410425120e+02,	 9.2940040540138085e+04,	 3.4439444651170902e+02,	 2.7185303586911730e-01 
4.5793302500000001e-02,	 3.4569084999999999e-02,	 1.1105838507646619e+00,	 5.3989836457915729e+01,	 -6.7210524216494406e+01,	 2.9542344439852724e+02,	 9.4390057106543492e+04,	 3.4494627960376465e+02,	 2.4992285452827231e-01 
4.7012742500000003e-02,	 3.3751075000000005e-02,	 1.1221799719800942e+00,	 5.0611400700661946e+01,	 -6.1196673585575873e+01,	 2.9629384276901351e+02,	 9.5656630200558473e+04,	 3.4545405896712799e+02,	 2.2988228721106679e-01 
4.8201702499999999e-02,	 3.3003787499999999e-02,	 1.1326145539381574e+00,	 4.8597981572658256e+01,	 -5.5014764809645179e+01,	 2.9708404322820246e+02,	 9.6803576120850266e+04,	 3.4591440635609661e+02,	 2.1220752836910778e-01 
4.9396467499999999e-02,	 3.2348040000000008e-02,	 1.1438538228943518e+00,	 4.8539772211834716e+01,	 -4.8411190889805404e+01,	 2.9775521520222100e+02,	 9.7985055369266847e+04,	 3.4630493065334321e+02,	 1.9796063432948990e-01 
2.9422312499999999e-03,	 6.5181119999999995e-02,	 1.1232280600732096e+00,	 2.0806766041396824e+02,	 -2.0199306026331927e+00,	 2.6665887229757828e+02,	 8.6169568843034504e+04,	 3.2772306329454352e+02,	 6.3491858913344090e-01 
8.5305262499999999e-03,	 6.1820982500000010e-02,	 1.0846589741617494e+00,	 2.0491482115000912e+02,	 -1.2349188880522203e+01,	 2.6822161098063020e+02,	 8.3698354120224802e+04,	 3.2868196135205574e+02,	 6.2457518173937909e-01 
1.3536532500000000e-02,	 5.8471860000000001e-02,	 1.0492654698587167e+00,	 1.9766350677867956e+02,	 -2.2855712456225440e+01,	 2.7089918462179207e+02,	 8.1775463860241289e+04,	 3.3031845268562574e+02,	 6.0238994754860287e-01 
1.7999965000000000e-02,	 5.5336967500000001e-02,	 1.0179762570758031e+00,	 1.8826875732810845e+02,	 -3.4018637171655932e+01,	 2.7396338107916517e+02,	 8.0234306580753051e+04,	 3.3218134961252116e+02,	 5.7594298456990956e-01 
2.1970897499999999e-02,	 5.2497707499999997e-02,	 9.9277489353997395e-01,	 1.7741394072255102e+02,	 -4.6132688621772274e+01,	 2.7694068584880682e+02,	 7.9098361363797216e+04,	 3.3398146721329596e+02,	 5.4887402158725218e-01 
2.5500192500000001e-02,	 4.9944582500000001e-02,	 9.7661164064071293e-01,	 1.6520844173565598e+02,	 -5.8716125994155895e+01,	 2.7957567481731263e+02,	 7.8550909128821542e+04,	 3.3556656127486985e+02,	 5.2249631634730964e-01 
2.8640569999999997e-02,	 4.7661177500000006e-02,	 9.7162311500612397e-01,	 1.5183303122035315e+02,	 -7.0279073353708654e+01,	 2.8182658664972797e+02,	 7.8778868062348658e+04,	 3.3691470522369019e+02,	 4.9659259209865597e-01 
3.1436680000000002e-02,	 4.5620165000000004e-02,	 9.7689755842784232e-01,	 1.3786876004780885e+02,	 -7.9540568010136909e+01,	 2.8375019302544393e+02,	 7.9747141932100974e+04,	 3.3806255496107667e+02,	 4.7082452103580419e-01 
3.3928525000000001e-02,	 4.3793200000000004e-02,	 9.8999780648482449e-01,	 1.2388806778645937e+02,	 -8.5791265115046969e+01,	 2.8547975593600842e+02,	 8.1309162282175283e+04,	 3.3909129817317307e+02,	 4.4440257868477701e-01 
3.6153575000000000e-02,	 4.2153850000000007e-02,	 1.0074609925750160e+00,	 1.1033766455397752e+02,	 -8.8834542499858287e+01,	 2.8718690824145028e+02,	 8.3238225948606647e+04,	 3.4010366006478660e+02,	 4.1650367746180805e-01 
3.8147975000000001e-02,	 4.0677305000000004e-02,	 1.0270438982524956e+00,	 9.8145550432767607e+01,	 -8.9245982590306625e+01,	 2.8872299007761444e+02,	 8.5310072481839874e+04,	 3.4101200637675947e+02,	 3.8900440113727675e-01 
3.9943710000000000e-02,	 3.9341845000000000e-02,	 1.0468300020189722e+00,	 8.7488366009796593e+01,	 -8.7531566963939383e+01,	 2.9012379832591625e+02,	 8.7375455559326685e+04,	 3.4183825582591197e+02,	 3.6203608902591966e-01 
4.1571284999999999e-02,	 3.8127069999999999e-02,	 1.0655162785472907e+00,	 7.8346725454745879e+01,	 -8.4222750197775213e+01,	 2.9141883315778409e+02,	 8.9332120175866585e+04,	 3.4260034348491774e+02,	 3.3575285758261669e-01 
4.3060174999999999e-02,	 3.7015659999999999e-02,	 1.0825261685201424e+00,	 7.0631543312858383e+01,	 -7.9779545706316171e+01,	 2.9262237840287804e+02,	 9.1133044054671482e+04,	 3.4330707570947163e+02,	 3.1037295046079239e-01 
4.4438537500000000e-02,	 3.5992719999999999e-02,	 1.0975505421343092e+00,	 6.4234807012889533e+01,	 -7.4565835438726637e+01,	 2.9374254581708720e+02,	 9.2751580883839386e+04,	 3.4396354305811627e+02,	 2.8613021742357797e-01 
4.5733172500000002e-02,	 3.5051750000000000e-02,	 1.1109880849090397e+00,	 5.9106519646051602e+01,	 -6.8898528894121100e+01,	 2.9477135186426489e+02,	 9.4215989122143699e+04,	 3.4456536677891376e+02,	 2.6345562540749873e-01 
4.6969442500000000e-02,	 3.4188855000000004e-02,	 1.1225797237813833e+00,	 5.5268268575776872e+01,	 -6.2969868248178898e+01,	 2.9570989843047272e+02,	 9.5502115793409161e+04,	 3.4511347573066320e+02,	 2.4277279211184521e-01 
4.8176014999999996e-02,	 3.3400122499999997e-02,	 1.1330274798315727e+00,	 5.2809745617871251e+01,	 -5.6841363309876577e+01,	 2.9655616693073620e+02,	 9.6666799572657270e+04,	 3.4560694924762589e+02,	 2.2449616110827778e-01 