TITLE = "Final State"
VARIABLES = "X", "Y", "rho", "u", "v", "T", "p", "c", "M"
ZONE I=299, J=49, DATAPACKING=POINT
5.0499254999999993e-02,	 3.0498862500000001e-02,	 1.1496335171199534e+00,	 3.6159352134615716e+01,	 -4.6994463489291888e+01,	 2.9921782706833642e+02,	 9.8963903975889247e+04,	 3.4715443586413892e+02,	 1.7080492022543697e-01 
5.1497685000000001e-02,	 3.0526500000000002e-02,	 1.1563773812725844e+00,	 4.0252213275157480e+01,	 -4.6466312440687574e+01,	 2.9903247366943447e+02,	 9.9482772274028612e+04,	 3.4704689510808151e+02,	 1.7714173851879819e-01 
5.2496132500000001e-02,	 3.0556237500000000e-02,	 1.1611121429960838e+00,	 4.4912560370381080e+01,	 -4.4432374780612456e+01,	 2.9892849198390053e+02,	 9.9855367801965258e+04,	 3.4698655106203125e+02,	 1.8207426699357118e-01 
5.3494849999999997e-02,	 3.0587082500000001e-02,	 1.1638843904213168e+00,	 4.9721980609961335e+01,	 -4.2305340308998751e+01,	 2.9883635050578391e+02,	 1.0006292759394969e+05,	 3.4693306951262514e+02,	 1.8817498892144463e-01 
5.4493985000000002e-02,	 3.0618435000000003e-02,	 1.1650672604454284e+00,	 5.4333275774221086e+01,	 -4.0587964906454921e+01,	 2.9873923698275127e+02,	 1.0013207205479230e+05,	 3.4687669312090219e+02,	 1.9551478875869088e-01 
5.5493665000000005e-02,	 3.0649977500000002e-02,	 1.1659359382953851e+00,	 5.8581151322345896e+01,	 -3.8862349834699714e+01,	 2.9866049728373144e+02,	 1.0018031902284252e+05,	 3.4683097638367531e+02,	 2.0269123323388374e-01 
5.6493985000000004e-02,	 3.0681569999999998e-02,	 1.1663815039516101e+00,	 6.2547603078104800e+01,	 -3.7148062780903174e+01,	 2.9859379414602091e+02,	 1.0019622028566053e+05,	 3.4679224343025948e+02,	 2.0977222196945183e-01 
5.7495040000000004e-02,	 3.0713129999999998e-02,	 1.1664124111259249e+00,	 6.6272252066591662e+01,	 -3.5510699385783660e+01,	 2.9853330962431534e+02,	 1.0017857857774245e+05,	 3.4675711774158077e+02,	 2.1682777900966793e-01 
5.8496914999999997e-02,	 3.0744640000000004e-02,	 1.1661010028644636e+00,	 6.9773942631482882e+01,	 -3.3972971251218702e+01,	 2.9847685264785213e+02,	 1.0013289278240733e+05,	 3.4672432779242251e+02,	 2.2382390248462017e-01 
5.9499692500000000e-02,	 3.0776089999999999e-02,	 1.1655619362912879e+00,	 7.3074102940543199e+01,	 -3.2515487045356615e+01,	 2.9842397003053878e+02,	 1.0006887039084165e+05,	 3.4669361100147989e+02,	 2.3069867527592552e-01 
6.0503464999999999e-02,	 3.0807487500000001e-02,	 1.1648073305599986e+00,	 7.6202504786268534e+01,	 -3.1149180536046220e+01,	 2.9837248040678901e+02,	 9.9986829452379665e+04,	 3.4666370071368857e+02,	 2.3747251933270361e-01 
6.1508325000000003e-02,	 3.0838845000000004e-02,	 1.1638572845506452e+00,	 7.9177506843709111e+01,	 -2.9889161535213365e+01,	 2.9832100706407437e+02,	 9.9888042662179796e+04,	 3.4663379730386902e+02,	 2.4415160328352550e-01 
6.2514349999999996e-02,	 3.0870172500000001e-02,	 1.1627057625030017e+00,	 8.2006079558284824e+01,	 -2.8767038394045525e+01,	 2.9826853376318138e+02,	 9.9771660824859457e+04,	 3.4660331031330082e+02,	 2.5073432891542419e-01 
6.3521627500000011e-02,	 3.0901484999999999e-02,	 1.1613890195760721e+00,	 8.4677820214227310e+01,	 -2.7799330391046755e+01,	 2.9821627450452900e+02,	 9.9641210179159461e+04,	 3.4657294501582271e+02,	 2.5715877164048473e-01 
6.4530257500000007e-02,	 3.0932792499999997e-02,	 1.1600033173185682e+00,	 8.7179773118256989e+01,	 -2.6960732744509528e+01,	 2.9816724082914834e+02,	 9.9505960266377893e+04,	 3.4654445152748309e+02,	 2.6332396764124633e-01 
6.5540324999999997e-02,	 3.0964102500000000e-02,	 1.1586208792171400e+00,	 8.9512838654378754e+01,	 -2.6213963410462025e+01,	 2.9812365921989311e+02,	 9.9372846728769873e+04,	 3.4651912427027747e+02,	 2.6916924318168484e-01 
6.6551917500000002e-02,	 3.0995427499999999e-02,	 1.1572735608185878e+00,	 9.1689489726819829e+01,	 -2.5529825238231318e+01,	 2.9808633484697310e+02,	 9.9244862855761705e+04,	 3.4649743190629061e+02,	 2.7468424191777108e-01 
6.7565127500000002e-02,	 3.1026772499999997e-02,	 1.1559665899582012e+00,	 9.3726413982511616e+01,	 -2.4891332368673599e+01,	 2.9805515723353028e+02,	 9.9122411778444512e+04,	 3.4647931090539231e+02,	 2.7988786062637172e-01 
6.8580050000000004e-02,	 3.1058144999999999e-02,	 1.1546950808662002e+00,	 9.5639159804601164e+01,	 -2.4290837439485621e+01,	 2.9802966816928154e+02,	 9.9004914348527644e+04,	 3.4646449548948391e+02,	 2.8480753665600272e-01 
6.9596779999999997e-02,	 3.1089555000000001e-02,	 1.1534721472836038e+00,	 9.7441707251761841e+01,	 -2.3714338561586437e+01,	 2.9800961462651878e+02,	 9.8893403889742418e+04,	 3.4645283900323938e+02,	 2.8946471474060881e-01 
7.0615410000000003e-02,	 3.1121010000000001e-02,	 1.1522885257552962e+00,	 9.9151049832266466e+01,	 -2.3156751142979054e+01,	 2.9799399693856230e+02,	 9.8786748261743327e+04,	 3.4644376066657190e+02,	 2.9389843804609905e-01 
7.1636035000000001e-02,	 3.1152510000000001e-02,	 1.1511129887002223e+00,	 1.0078063006357235e+02,	 -2.2629530276525287e+01,	 2.9798162902829171e+02,	 9.8681872544175436e+04,	 3.4643657120998978e+02,	 2.9814991303387345e-01 
7.2658749999999994e-02,	 3.1184060000000000e-02,	 1.1499301403826674e+00,	 1.0233385394004728e+02,	 -2.2146955062345022e+01,	 2.9797219952604161e+02,	 9.8577350548649614e+04,	 3.4643108974745405e+02,	 3.0223308866018805e-01 
7.3683647500000005e-02,	 3.1215670000000001e-02,	 1.1487514011397479e+00,	 1.0380686822009736e+02,	 -2.1713485891515749e+01,	 2.9796640526518411e+02,	 9.8474388613085728e+04,	 3.4642772144352369e+02,	 3.0613451788073537e-01 
7.4710827499999993e-02,	 3.1247342500000004e-02,	 1.1476029632813725e+00,	 1.0519550997972166e+02,	 -2.1321978951556421e+01,	 2.9796526504037286e+02,	 9.8375564648144617e+04,	 3.4642705860728745e+02,	 3.0983326537169920e-01 
7.5740385000000007e-02,	 3.1279085000000005e-02,	 1.1465135962153143e+00,	 1.0650055305137815e+02,	 -2.0955877157038266e+01,	 2.9796950157989363e+02,	 9.8283578617742067e+04,	 3.4642952138882652e+02,	 3.1331825975350874e-01 
7.6772417499999995e-02,	 3.1310897500000004e-02,	 1.1454897049372674e+00,	 1.0772994835407752e+02,	 -2.0602445432801296e+01,	 2.9797890836348768e+02,	 9.8198906702563749e+04,	 3.4643498966964341e+02,	 3.1660277742874321e-01 
7.7807025000000002e-02,	 3.1342782499999999e-02,	 1.1445131176067254e+00,	 1.0889355610022420e+02,	 -2.0261693616864118e+01,	 2.9799270678370931e+02,	 9.8119730608214246e+04,	 3.4644301070753335e+02,	 3.1971362664975050e-01 
7.8844302500000005e-02,	 3.1374747500000001e-02,	 1.1435699648647493e+00,	 1.0999649105642956e+02,	 -1.9938534127610215e+01,	 2.9801047881629921e+02,	 9.8044720567240220e+04,	 3.4645334133734389e+02,	 3.2266673131096890e-01 
7.9884344999999995e-02,	 3.1406795000000001e-02,	 1.1426606550504796e+00,	 1.1103949231665771e+02,	 -1.9634600371279451e+01,	 2.9803234411504798e+02,	 9.7973948204180298e+04,	 3.4646605090194424e+02,	 3.2546357247738172e-01 
8.0927257499999988e-02,	 3.1438929999999997e-02,	 1.1417991798466136e+00,	 1.1202285025806258e+02,	 -1.9343718476378285e+01,	 2.9805863311543408e+02,	 9.7908719267998371e+04,	 3.4648133119866094e+02,	 3.2810046604426862e-01 
8.1973137500000001e-02,	 3.1471152500000002e-02,	 1.1409904856939417e+00,	 1.1295026486764098e+02,	 -1.9059473501558120e+01,	 2.9808925725233979e+02,	 9.7849426681510435e+04,	 3.4649913041332417e+02,	 3.3058393644996903e-01 
8.3022079999999998e-02,	 3.1503467500000000e-02,	 1.1402268475258264e+00,	 1.1382696578422662e+02,	 -1.8780901547130643e+01,	 2.9812381022558691e+02,	 9.7795272966571240e+04,	 3.4651921202975666e+02,	 3.3292797990391426e-01 
8.4074189999999993e-02,	 3.1535880000000002e-02,	 1.1395012129523054e+00,	 1.1465619096227951e+02,	 -1.8509418623891033e+01,	 2.9816204435723563e+02,	 9.7745570732606357e+04,	 3.4654143171828122e+02,	 3.3514205471855119e-01 
8.5129567500000003e-02,	 3.1568392500000000e-02,	 1.1388157695186110e+00,	 1.1543942909550027e+02,	 -1.8243709063761759e+01,	 2.9820396106894219e+02,	 9.7700507066429083e+04,	 3.4656578989376544e+02,	 3.3722927406440734e-01 
8.6188310000000004e-02,	 3.1601007500000000e-02,	 1.1381747318758157e+00,	 1.1617881553314486e+02,	 -1.7980119937087601e+01,	 2.9824951878553270e+02,	 9.7660429265632862e+04,	 3.4659226194832701e+02,	 3.3919368532365707e-01 
8.7250519999999998e-02,	 3.1633727500000000e-02,	 1.1375748047960077e+00,	 1.1687770145593059e+02,	 -1.7717188696035890e+01,	 2.9829846603404235e+02,	 9.7624971969764985e+04,	 3.4662070129277407e+02,	 3.4104404484989176e-01 
8.8316300000000000e-02,	 3.1666557500000005e-02,	 1.1370111934055795e+00,	 1.1753892836432196e+02,	 -1.7455291410038019e+01,	 2.9835056703575299e+02,	 9.7593646473686618e+04,	 3.4665097046830545e+02,	 3.4278851614764011e-01 
8.9385750000000000e-02,	 3.1699499999999999e-02,	 1.1364837433978334e+00,	 1.1816418066695482e+02,	 -1.7193635913222057e+01,	 2.9840573708475102e+02,	 9.7566411933811571e+04,	 3.4668301979064370e+02,	 3.4443140688986118e-01 
9.0458974999999997e-02,	 3.1732560000000000e-02,	 1.1359936700129043e+00,	 1.1875538846172547e+02,	 -1.6930291472810815e+01,	 2.9846387404732440e+02,	 9.7543339643712607e+04,	 3.4671678944326266e+02,	 3.4597732226374467e-01 
9.1536075000000008e-02,	 3.1765737500000009e-02,	 1.1355384444413648e+00,	 1.1931502269166739e+02,	 -1.6664470799368857e+01,	 2.9852477702236575e+02,	 9.7524147408695862e+04,	 3.4675216224498240e+02,	 3.4743300963800999e-01 
9.2617152499999994e-02,	 3.1799037500000002e-02,	 1.1351149608717030e+00,	 1.1984513517137064e+02,	 -1.6396267654784911e+01,	 2.9858827115946792e+02,	 9.7508512078496700e+04,	 3.4678903616709528e+02,	 3.4880439344421216e-01 
9.3702312499999996e-02,	 3.1832462500000006e-02,	 1.1347230342648749e+00,	 1.2034721483099820e+02,	 -1.6124904956369832e+01,	 2.9865426348551495e+02,	 9.7496388195510197e+04,	 3.4682735674595324e+02,	 3.5009542118007997e-01 
9.4791655000000002e-02,	 3.1866017500000010e-02,	 1.1343622647213982e+00,	 1.2082296537384893e+02,	 -1.5849339583115038e+01,	 2.9872262596304921e+02,	 9.7487700559637335e+04,	 3.4686704916562388e+02,	 3.5131061205956587e-01 
9.5885287499999999e-02,	 3.1899705000000000e-02,	 1.1340302828060687e+00,	 1.2127421839248875e+02,	 -1.5569261306678872e+01,	 2.9879319938873306e+02,	 9.7482194651892889e+04,	 3.4690802053526482e+02,	 3.5245518313778496e-01 
9.6983317499999999e-02,	 3.1933525000000004e-02,	 1.1337253223218298e+00,	 1.2170244989281738e+02,	 -1.5284530395033689e+01,	 2.9886585440807346e+02,	 9.7479677540535966e+04,	 3.4695019531866211e+02,	 3.5353339915640397e-01 
9.8085845000000005e-02,	 3.1967485000000004e-02,	 1.1334470000365622e+00,	 1.2210891795529417e+02,	 -1.4994458342176577e+01,	 2.9894049719975663e+02,	 9.7480086819164339e+04,	 3.4699351862573502e+02,	 3.5454870132800143e-01 
9.9192977500000001e-02,	 3.2001587500000005e-02,	 1.1331940669798555e+00,	 1.2249504210638719e+02,	 -1.4698501487440797e+01,	 2.9901699694661357e+02,	 9.7483273635354955e+04,	 3.4703791411341791e+02,	 3.5550509418499654e-01 
1.0030483000000000e-01,	 3.2035834999999999e-02,	 1.1329645977487230e+00,	 1.2286216885670250e+02,	 -1.4396531296047781e+01,	 2.9909522677798412e+02,	 9.7489032230395547e+04,	 3.4708330775713227e+02,	 3.5640653554729607e-01 
1.0142150000000000e-01,	 3.2070230000000005e-02,	 1.1327576366472201e+00,	 1.2321133515718391e+02,	 -1.4088179166479359e+01,	 2.9917509100237959e+02,	 9.7497250403830694e+04,	 3.4712964365039716e+02,	 3.5725601168703414e-01 
1.0254307500000001e-01,	 3.2104777500000001e-02,	 1.1325724615406905e+00,	 1.2354364702374345e+02,	 -1.3772866510037588e+01,	 2.9925648747988839e+02,	 9.7507833962994555e+04,	 3.4717686216808448e+02,	 3.5805666173240852e-01 
1.0366970000000000e-01,	 3.2139480000000005e-02,	 1.1324076641343275e+00,	 1.2386016505591505e+02,	 -1.3450224916865604e+01,	 2.9933931752013956e+02,	 9.7520630762032160e+04,	 3.4722490571113877e+02,	 3.5881158342967651e-01 
1.0480144999999999e-01,	 3.2174339999999996e-02,	 1.1322618525946353e+00,	 1.2416190654130605e+02,	 -1.3120007517249856e+01,	 2.9942345570799523e+02,	 9.7535481304965288e+04,	 3.4727370120841715e+02,	 3.5952382187377091e-01 
1.0593842500000000e-01,	 3.2209362500000005e-02,	 1.1321343170372857e+00,	 1.2444976145344026e+02,	 -1.2781680577849661e+01,	 2.9950882476200354e+02,	 9.7552300466307279e+04,	 3.4732320353356283e+02,	 3.6019595884947309e-01 
1.0708080000000000e-01,	 3.2244550000000004e-02,	 1.1320239857762640e+00,	 1.2472458227450528e+02,	 -1.2434714935309982e+01,	 2.9959532433531177e+02,	 9.7570964406237035e+04,	 3.4737335420955731e+02,	 3.6083050811181394e-01 
1.0822862499999999e-01,	 3.2279907500000003e-02,	 1.1319296259773297e+00,	 1.2498733173290283e+02,	 -1.2078715108334160e+01,	 2.9968282440081941e+02,	 9.7591325667306068e+04,	 3.4742407758504561e+02,	 3.6143037878372059e-01 
1.0938200000000001e-01,	 3.2315437500000002e-02,	 1.1318500878052651e+00,	 1.2523875521622642e+02,	 -1.1713182181017668e+01,	 2.9977124106051258e+02,	 9.7613258890467929e+04,	 3.4747532478466815e+02,	 3.6199782244856071e-01 
1.1054110000000000e-01,	 3.2351140000000000e-02,	 1.1317846328676009e+00,	 1.2547972614773133e+02,	 -1.1337429803744131e+01,	 2.9986045641277195e+02,	 9.7636663054677047e+04,	 3.4752702725492009e+02,	 3.6253545419747063e-01 
1.1170600000000000e-01,	 3.2387020000000002e-02,	 1.1317320760628169e+00,	 1.2571114406942370e+02,	 -1.0950824913578357e+01,	 2.9995033062916008e+02,	 9.7661391405330753e+04,	 3.4757910377682776e+02,	 3.6304602314626427e-01 
1.1287680000000000e-01,	 3.2423080000000000e-02,	 1.1316909708391443e+00,	 1.2593376133407686e+02,	 -1.0552787508061259e+01,	 3.0004075498339535e+02,	 9.7687284647888882e+04,	 3.4763149119638479e+02,	 3.6353188229019323e-01 
1.1405362499999999e-01,	 3.2459327500000003e-02,	 1.1316604036744402e+00,	 1.2614856389147553e+02,	 -1.0142564958948066e+01,	 3.0013156354812412e+02,	 9.7714210756463261e+04,	 3.4768409326471601e+02,	 3.6399608001680278e-01 
1.1523657500000001e-01,	 3.2495767500000002e-02,	 1.1316391988684449e+00,	 1.2635642941163923e+02,	 -9.7192891870879148e+00,	 3.0022261271198704e+02,	 9.7742022244268155e+04,	 3.4773682671454014e+02,	 3.6444135459347327e-01 
1.1642577500000001e-01,	 3.2532397500000004e-02,	 1.1316259840626774e+00,	 1.2655840605913181e+02,	 -9.2820864450463763e+00,	 3.0031371929002557e+02,	 9.7770541635188230e+04,	 3.4778958541399948e+02,	 3.6487100166326664e-01 
1.1762132500000000e-01,	 3.2569225000000007e-02,	 1.1316192814688451e+00,	 1.2675561540608798e+02,	 -8.8300530562463742e+00,	 3.0040468462015150e+02,	 9.7799577163395996e+04,	 3.4784225433499455e+02,	 3.6528857920368452e-01 
1.1882334999999999e-01,	 3.2606249999999996e-02,	 1.1316175580949299e+00,	 1.2694925977449246e+02,	 -8.3621767171719021e+00,	 3.0049529506882448e+02,	 9.7828927262625046e+04,	 3.4789470985252871e+02,	 3.6569791755925690e-01 
1.2003197500000000e-01,	 3.2643477500000004e-02,	 1.1316195533534470e+00,	 1.2714083819339257e+02,	 -7.8771752140846338e+00,	 3.0058528644266465e+02,	 9.7858397300955461e+04,	 3.4794679915273855e+02,	 3.6610374078060781e-01 
1.2124729999999999e-01,	 3.2680912500000006e-02,	 1.1316232865958118e+00,	 1.2733197994382007e+02,	 -7.3737510145207450e+00,	 3.0067437053224859e+02,	 9.7887722406212910e+04,	 3.4799835561435526e+02,	 3.6651123453461437e-01 
1.2246944999999999e-01,	 3.2718557500000002e-02,	 1.1316269100004737e+00,	 1.2752455943906953e+02,	 -6.8504098946373366e+00,	 3.0076222240423408e+02,	 9.7916637036067550e+04,	 3.4804919146392450e+02,	 3.6692636101142762e-01 
1.2369854999999999e-01,	 3.2756417500000003e-02,	 1.1316284099336031e+00,	 1.2772122393028825e+02,	 -6.3053914658673449e+00,	 3.0084840499563649e+02,	 9.7944824602708366e+04,	 3.4809905416363739e+02,	 3.6735742657228138e-01 
1.2493470000000001e-01,	 3.2794495000000007e-02,	 1.1316254884007126e+00,	 1.2792485814196408e+02,	 -5.7366454532619988e+00,	 3.0093244219735544e+02,	 9.7971930991228102e+04,	 3.4814766872727461e+02,	 3.6781352204540130e-01 
1.2617802500000000e-01,	 3.2832792499999999e-02,	 1.1316154875501299e+00,	 1.2813944759520871e+02,	 -5.1417115058494458e+00,	 3.0101371238271923e+02,	 9.7997523341056163e+04,	 3.4819467614751636e+02,	 3.6830707879276126e-01 
1.2742865000000000e-01,	 3.2871312499999999e-02,	 1.1315945762159345e+00,	 1.2837034296442800e+02,	 -4.5181614191130688e+00,	 3.0109139283607306e+02,	 9.8021001478307953e+04,	 3.4823960130274230e+02,	 3.6885474587858474e-01 
1.2868670000000001e-01,	 3.2910062500000004e-02,	 1.1315575071326074e+00,	 1.2862445351225045e+02,	 -3.8636883788275775e+00,	 3.0116444735298825e+02,	 9.8041572768022757e+04,	 3.4828184583956016e+02,	 3.6947797224522544e-01 
1.2995227500000001e-01,	 3.2949045000000010e-02,	 1.1314970799073265e+00,	 1.2891000579320777e+02,	 -3.1766360010092520e+00,	 3.0123164033288606e+02,	 9.8058210115833790e+04,	 3.4832069635811183e+02,	 3.7020234793020568e-01 
1.3122549999999999e-01,	 3.2988265000000003e-02,	 1.1314025118530555e+00,	 1.2923737596721062e+02,	 -2.4570885499619752e+00,	 3.0129142855253065e+02,	 9.8069475514811304e+04,	 3.4835526185233448e+02,	 3.7106007963043008e-01 
1.3250650000000000e-01,	 3.3027725000000008e-02,	 1.1312569559428474e+00,	 1.2961773485516534e+02,	 -1.7092751919613818e+00,	 3.0134210995802380e+02,	 9.8073353318493595e+04,	 3.4838455971847213e+02,	 3.7208596332840488e-01 
1.3379540000000001e-01,	 3.3067425000000004e-02,	 1.1310392235497455e+00,	 1.3006161960353762e+02,	 -9.4279243591681994e-01,	 3.0138204356583515e+02,	 9.8067471293501061e+04,	 3.4840764277098305e+02,	 3.7331281135947370e-01 
1.3509232500000001e-01,	 3.3107375000000001e-02,	 1.1307280542834393e+00,	 1.3057652538671144e+02,	 -1.7226834401619526e-01,	 3.0140994758590909e+02,	 9.8049568427647973e+04,	 3.4842377138422324e+02,	 3.7476386442831727e-01 
1.3639740000000000e-01,	 3.3147577499999997e-02,	 1.1303065382531983e+00,	 1.3116565815963381e+02,	 5.8456284720716634e-01,	 3.0142514082501026e+02,	 9.8017957794007540e+04,	 3.4843255281131491e+02,	 3.7644864034221365e-01 
1.3771077499999998e-01,	 3.3188030000000007e-02,	 1.1297662462579365e+00,	 1.3182682306867699e+02,	 1.3092345444411564e+00,	 3.0142768333122274e+02,	 9.7971931117278073e+04,	 3.4843402231392446e+02,	 3.7835950504113519e-01 
1.3903255000000000e-01,	 3.3228742500000005e-02,	 1.1291082551171885e+00,	 1.3255372714205541e+02,	 1.9851496637350170e+00,	 3.0141823857870310e+02,	 9.7911802934345629e+04,	 3.4842856346082118e+02,	 3.8047567047924202e-01 
1.4036282500000002e-01,	 3.3269720000000003e-02,	 1.1283412499680756e+00,	 1.3333648145424087e+02,	 2.5986050959839391e+00,	 3.0139799620686557e+02,	 9.7838720275809625e+04,	 3.4841686354015161e+02,	 3.8276505879750572e-01 
1.4170175000000002e-01,	 3.3310962499999999e-02,	 1.1274807507810904e+00,	 1.3416332973100751e+02,	 3.1400210037537928e+00,	 3.0136845954249748e+02,	 9.7754525427913613e+04,	 3.4839979089164564e+02,	 3.8518986941228045e-01 
1.4304947500000001e-01,	 3.3352472500000001e-02,	 1.1265447947074025e+00,	 1.3502213564168855e+02,	 3.6032365406114892e+00,	 3.0133121867664698e+02,	 9.7661306675113650e+04,	 3.4837826390313984e+02,	 3.8771134580792666e-01 
1.4440610000000001e-01,	 3.3394260000000002e-02,	 1.1255542349395533e+00,	 1.3590090829525306e+02,	 3.9860835038988744e+00,	 3.0128788104737606e+02,	 9.7561400692761119e+04,	 3.4835321102113318e+02,	 3.9029166074054172e-01 
1.4577177500000002e-01,	 3.3436330000000000e-02,	 1.1245271263481655e+00,	 1.3678869619147878e+02,	 4.2886508283081035e+00,	 3.0123993999178441e+02,	 9.7456862571679652e+04,	 3.4832549486309455e+02,	 3.9289661938709164e-01 
1.4714662500000000e-01,	 3.3478677499999998e-02,	 1.1234822988646767e+00,	 1.3767687322053072e+02,	 4.5133650665543330e+00,	 3.0118856093414740e+02,	 9.7349706198293148e+04,	 3.4829578864477440e+02,	 3.9549956415866322e-01 
1.4853077500000000e-01,	 3.3521309999999999e-02,	 1.1224369568023926e+00,	 1.3855823325254235e+02,	 4.6644450009869320e+00,	 3.0113476152224484e+02,	 9.7241754557025139e+04,	 3.4826468031618884e+02,	 3.9807861991886428e-01 
1.4992435000000001e-01,	 3.3564237499999997e-02,	 1.1214034292858510e+00,	 1.3942670744010783e+02,	 4.7460665610905357e+00,	 3.0107941443772143e+02,	 9.7134359328361228e+04,	 3.4823267417985903e+02,	 4.0061565767672080e-01 
1.5132750000000000e-01,	 3.3607457500000000e-02,	 1.1203942098206738e+00,	 1.4027742487675499e+02,	 4.7638709007655962e+00,	 3.0102324624707899e+02,	 9.7028837487769866e+04,	 3.4820019020616502e+02,	 4.0309654297796038e-01 
1.5274037499999998e-01,	 3.3650975000000000e-02,	 1.1194177560221350e+00,	 1.4110712164275236e+02,	 4.7232130042773210e+00,	 3.0096675896290259e+02,	 9.6926082555973422e+04,	 3.4816751863320974e+02,	 4.0551211963370420e-01 
1.5416307500000001e-01,	 3.3694800000000004e-02,	 1.1184795411939166e+00,	 1.4191363154168300e+02,	 4.6286785696689909e+00,	 3.0091031556018885e+02,	 9.6826683825159387e+04,	 3.4813486937819818e+02,	 4.0785657755247190e-01 
1.5559577499999999e-01,	 3.3738930000000000e-02,	 1.1175857768000257e+00,	 1.4269522867982698e+02,	 4.4854862816701626e+00,	 3.0085422655751825e+02,	 9.6731276860709171e+04,	 3.4810242208972227e+02,	 4.1012558566689766e-01 
1.5703857499999999e-01,	 3.3783370000000007e-02,	 1.1167410462340372e+00,	 1.4345085327642857e+02,	 4.2986274047418034e+00,	 3.0079872570900261e+02,	 9.6640330974288416e+04,	 3.4807031206899029e+02,	 4.1231682183189988e-01 
1.5849160000000001e-01,	 3.3828127499999999e-02,	 1.1159466815918331e+00,	 1.4417955427764679e+02,	 4.0724259368008759e+00,	 3.0074404367132433e+02,	 9.6554032696360591e+04,	 3.4803867287410753e+02,	 4.1442824587919636e-01 
1.5995505000000002e-01,	 3.3873205000000003e-02,	 1.1152029576270153e+00,	 1.4488115962085885e+02,	 3.8102789717292573e+00,	 3.0069029999024474e+02,	 9.6472441211176789e+04,	 3.4800757381236667e+02,	 4.1646005943156578e-01 
1.6142902500000000e-01,	 3.3918607500000003e-02,	 1.1145117450745186e+00,	 1.4555553964815888e+02,	 3.5157541658373379e+00,	 3.0063761558409277e+02,	 9.6395754140954654e+04,	 3.4797708500787121e+02,	 4.1841258968287842e-01 
1.6291365000000002e-01,	 3.3964337500000004e-02,	 1.1138745031591542e+00,	 1.4620296171670941e+02,	 3.1922326489834054e+00,	 3.0058607455518478e+02,	 9.6324121605795444e+04,	 3.4794725529790162e+02,	 4.2028728592413234e-01 
1.6440910000000000e-01,	 3.4010400000000010e-02,	 1.1132912747914601e+00,	 1.4682381518684571e+02,	 2.8426498085736496e+00,	 3.0053575387228830e+02,	 9.6257568938219978e+04,	 3.4791812940380862e+02,	 4.2208588288525256e-01 
1.6591552500000001e-01,	 3.4056802500000011e-02,	 1.1127617855116170e+00,	 1.4741852456763644e+02,	 2.4694622487296116e+00,	 3.0048674102026933e+02,	 9.6196097458478151e+04,	 3.4788975814535110e+02,	 4.2381013842079585e-01 
1.6743305000000000e-01,	 3.4103545000000006e-02,	 1.1122857314526573e+00,	 1.4798736538030613e+02,	 2.0746757581299118e+00,	 3.0043915223280590e+02,	 9.6139715225552602e+04,	 3.4786220899751498e+02,	 4.2546129922718068e-01 
1.6896180000000000e-01,	 3.4150632500000000e-02,	 1.1118629090375367e+00,	 1.4853018288718317e+02,	 1.6601086084399808e+00,	 3.0039317688156706e+02,	 9.6088462441627969e+04,	 3.4783559179563980e+02,	 4.2703927816468001e-01 
1.7050194999999999e-01,	 3.4198072500000003e-02,	 1.1114934050256409e+00,	 1.4904668344796923e+02,	 1.2272571871512201e+00,	 3.0034902939761736e+02,	 9.6042412470878597e+04,	 3.4781003091138393e+02,	 4.2854352307660604e-01 
1.7205367500000002e-01,	 3.4245869999999998e-02,	 1.1111775959500836e+00,	 1.4953581046664766e+02,	 7.7760523498120815e-01,	 3.0030703883646703e+02,	 9.6001700421818066e+04,	 3.4778571711737277e+02,	 4.2997117166136628e-01 
1.7361707500000001e-01,	 3.4294027499999997e-02,	 1.1109179381369421e+00,	 1.4999616718862325e+02,	 3.1332308013185389e-01,	 3.0026757182788822e+02,	 9.5966653126315068e+04,	 3.4776286298624558e+02,	 4.3131832176227058e-01 
1.7519230000000002e-01,	 3.4342547500000008e-02,	 1.1107182069669164e+00,	 1.5042631796636573e+02,	 -1.6240783381547366e-01,	 3.0023102865642085e+02,	 9.5937722111749506e+04,	 3.4774170062006584e+02,	 4.3258086496371484e-01 
1.7677952499999999e-01,	 3.4391437500000004e-02,	 1.1105824675458262e+00,	 1.5082524093665683e+02,	 -6.4543120066393700e-01,	 3.0019777755449496e+02,	 9.5915373719107534e+04,	 3.4772244359165256e+02,	 4.3375578630893097e-01 
1.7837890000000001e-01,	 3.4440702500000003e-02,	 1.1105129063799859e+00,	 1.5119292848649084e+02,	 -1.1316228910708104e+00,	 3.0016805181439554e+02,	 9.5899869078777119e+04,	 3.4770522733682481e+02,	 4.3484294002042434e-01 
1.7999057499999999e-01,	 3.4490347500000004e-02,	 1.1105100083646888e+00,	 1.5152980155343033e+02,	 -1.6173082751449359e+00,	 3.0014202360480652e+02,	 9.5891303156959926e+04,	 3.4769015188046717e+02,	 4.3584332606924064e-01 
1.8161469999999999e-01,	 3.4540372500000006e-02,	 1.1105733548893366e+00,	 1.5183670505299966e+02,	 -2.0993727302138949e+00,	 3.0011980133219515e+02,	 9.5889672939358381e+04,	 3.4767728029343118e+02,	 4.3675910527505180e-01 
1.8325145000000001e-01,	 3.4590787500000005e-02,	 1.1107022966255466e+00,	 1.5211452667651960e+02,	 -2.5750864233443518e+00,	 3.0010147785650611e+02,	 9.5894950974948486e+04,	 3.4766666660948550e+02,	 4.3759248738632517e-01 
1.8490092499999999e-01,	 3.4641595000000004e-02,	 1.1108959482501570e+00,	 1.5236384863317747e+02,	 -3.0419715547908823e+00,	 3.0008718320935304e+02,	 9.5907101785356892e+04,	 3.4765838635784542e+02,	 4.3834470371311141e-01 
1.8656332500000000e-01,	 3.4692797499999997e-02,	 1.1111540396390513e+00,	 1.5258537210722480e+02,	 -3.4976792965861199e+00,	 3.0007702819981910e+02,	 9.5926137348268050e+04,	 3.4765250389385824e+02,	 4.3901727552933684e-01 
1.8823882500000003e-01,	 3.4744404999999999e-02,	 1.1114766233163973e+00,	 1.5277973626685744e+02,	 -3.9397181283790941e+00,	 3.0007111720091928e+02,	 9.5952095930130192e+04,	 3.4764907980021746e+02,	 4.3961147402423306e-01 
1.8992757500000002e-01,	 3.4796422500000000e-02,	 1.1118624645338879e+00,	 1.5294773949560786e+02,	 -4.3661409031567295e+00,	 3.0006951853031131e+02,	 9.5984893643308562e+04,	 3.4764815372457383e+02,	 4.4012903404371645e-01 
1.9162972500000000e-01,	 3.4848852499999999e-02,	 1.1123105763551353e+00,	 1.5308989984180320e+02,	 -4.7752429410496697e+00,	 3.0007232547758434e+02,	 9.6024476488618850e+04,	 3.4764977972737444e+02,	 4.4057084553098030e-01 
1.9334542500000002e-01,	 3.4901700000000001e-02,	 1.1128208936911550e+00,	 1.5320647577377352e+02,	 -5.1651487198027839e+00,	 3.0007966185690282e+02,	 9.6070880340889213e+04,	 3.4765402949459497e+02,	 4.4093698342853710e-01 
1.9507487500000001e-01,	 3.4954970000000002e-02,	 1.1133942644496768e+00,	 1.5329766484764272e+02,	 -5.5334775859294822e+00,	 3.0009164547716392e+02,	 9.6124218528632977e+04,	 3.4766097117177020e+02,	 4.4122727045807841e-01 
1.9681820000000000e-01,	 3.5008670000000006e-02,	 1.1140312991237273e+00,	 1.5336402498126517e+02,	 -5.8775110327026798e+00,	 3.0010831820415120e+02,	 9.6184560131185615e+04,	 3.4767062884807513e+02,	 4.4144254809688244e-01 
1.9857562500000001e-01,	 3.5062802500000004e-02,	 1.1147301981268412e+00,	 1.5340645696118170e+02,	 -6.1952529555142659e+00,	 3.0012964377045660e+02,	 9.6251741625916751e+04,	 3.4768298129032536e+02,	 4.4158474977385787e-01 
2.0034727499999999e-01,	 3.5117370000000002e-02,	 1.1154895470000930e+00,	 1.5342573188171912e+02,	 -6.4848588570454249e+00,	 3.0015558010509670e+02,	 9.6325631314235725e+04,	 3.4769800384395813e+02,	 4.4165545121963606e-01 
2.0213329999999999e-01,	 3.5172385000000000e-02,	 1.1163095474725357e+00,	 1.5342247800202159e+02,	 -6.7437463245105551e+00,	 3.0018609598870552e+02,	 9.6406240966508019e+04,	 3.4771567808167674e+02,	 4.4165572102250533e-01 
2.0393392500000002e-01,	 3.5227845000000001e-02,	 1.1171894255935415e+00,	 1.5339772784627883e+02,	 -6.9692116596582654e+00,	 3.0022105934034801e+02,	 9.6493466121942663e+04,	 3.4773592710671528e+02,	 4.4158784849630534e-01 
2.0574927500000001e-01,	 3.5283760000000004e-02,	 1.1181260409713141e+00,	 1.5335301443342001e+02,	 -7.1592233133056746e+00,	 3.0026022965206522e+02,	 9.6586963322499127e+04,	 3.4775861119229057e+02,	 4.4145574331504933e-01 
2.0757957499999999e-01,	 3.5340140000000006e-02,	 1.1191175530761885e+00,	 1.5328967112050356e+02,	 -7.3113923046898570e+00,	 3.0030337988862874e+02,	 9.6686505776962076e+04,	 3.4778359839634828e+02,	 4.4126271899732500e-01 
2.0942497499999999e-01,	 3.5396980000000008e-02,	 1.1201622022017861e+00,	 1.5320935254120022e+02,	 -7.4228663660575274e+00,	 3.0035019372041961e+02,	 9.6791844939978764e+04,	 3.4781070506498151e+02,	 4.4101305904789923e-01 
2.1128559999999999e-01,	 3.5454289999999999e-02,	 1.1212555338098831e+00,	 1.5311432352502780e+02,	 -7.4913975988855350e+00,	 3.0040022885733151e+02,	 9.6902458612784161e+04,	 3.4783967463432617e+02,	 4.4071303622154417e-01 
2.1316167499999999e-01,	 3.5512077500000003e-02,	 1.1223940120409592e+00,	 1.5300683585631975e+02,	 -7.5144245964488192e+00,	 3.0045302040140132e+02,	 9.7017896185009799e+04,	 3.4787023750521246e+02,	 4.4036894008702809e-01 
2.1505342500000002e-01,	 3.5570345000000003e-02,	 1.1235737591341612e+00,	 1.5288964290966479e+02,	 -7.4890443768692831e+00,	 3.0050799581035375e+02,	 9.7137642101570076e+04,	 3.4790206183802468e+02,	 4.3998863182832831e-01 
2.1696097500000000e-01,	 3.5629100000000004e-02,	 1.1247885378046660e+00,	 1.5276611904935172e+02,	 -7.4128175928489686e+00,	 3.0056445127396165e+02,	 9.7260933453409976e+04,	 3.4793473991993966e+02,	 4.3958204054868444e-01 
2.1888449999999998e-01,	 3.5688347500000002e-02,	 1.1260329312151403e+00,	 1.5263994629037543e+02,	 -7.2828169752595944e+00,	 3.0062162598047814e+02,	 9.7387058546069195e+04,	 3.4796783119306025e+02,	 4.3916010083405560e-01 
2.2082422500000001e-01,	 3.5748095000000008e-02,	 1.1273002120308275e+00,	 1.5251562764708780e+02,	 -7.0960676377718093e+00,	 3.0067860078592116e+02,	 9.7515139581368581e+04,	 3.4800080363834451e+02,	 4.3873639241951828e-01 