TITLE = "Final State"
VARIABLES = "X", "Y", "rho", "u", "v", "T", "p", "c", "M"
ZONE I=19, J=10, DATAPACKING=POINT
1.3729065000000001e-03,	 2.8430140000000000e-02,	 9.4662844970806914e-01,	 -1.4550807745108106e+01,	 1.5417578207908100e+01,	 3.0561297036058181e+02,	 8.3230263950092049e+04,	 3.5084466547679847e+02,	 6.0424776409097505e-02 
4.1036947500000002e-03,	 2.8374557500000001e-02,	 9.4800798266886621e-01,	 -4.2824919507421342e+01,	 1.3461316281096236e+01,	 3.0453833321485314e+02,	 8.3058464533586884e+04,	 3.5022727882775484e+02,	 1.2817609461543722e-01 
6.8127292499999999e-03,	 2.8297177499999999e-02,	 9.4684788172908407e-01,	 -6.9411412138924362e+01,	 1.1251606402613861e+01,	 3.0289393580635334e+02,	 8.2508886829463794e+04,	 3.4928044832509948e+02,	 2.0132086773874516e-01 
9.5134160000000002e-03,	 2.8213132499999998e-02,	 9.4414936752955536e-01,	 -9.4022770670399666e+01,	 8.9551070387211524e+00,	 3.0079621696089077e+02,	 8.1703942630887192e+04,	 3.4806886056257702e+02,	 2.7134937593907543e-01 
1.2212779999999999e-02,	 2.8129524999999999e-02,	 9.3980164744132277e-01,	 -1.1620841382261457e+02,	 6.8112523064486892e+00,	 2.9839614909906180e+02,	 8.0678785807689797e+04,	 3.4667745016157778e+02,	 3.3578144323108916e-01 
1.4908299999999999e-02,	 2.8049165000000001e-02,	 9.3474484968964988e-01,	 -1.3558331221267613e+02,	 4.9167445994372647e+00,	 2.9589220249064226e+02,	 7.9571315670209398e+04,	 3.4521983993145562e+02,	 3.9300299913542652e-01 
1.7593747500000000e-02,	 2.7972987500000001e-02,	 9.3000349287196038e-01,	 -1.5169810383994516e+02,	 3.4082514784357065e+00,	 2.9351175013767767e+02,	 7.8530797735905144e+04,	 3.4382838916182970e+02,	 4.4131430373183039e-01 
2.0266272499999998e-02,	 2.7900910000000001e-02,	 9.2760595808839719e-01,	 -1.6403691925092906e+02,	 2.2550305444625325e+00,	 2.9149793450537857e+02,	 7.7790927344395313e+04,	 3.4264683723727393e+02,	 4.7877990031101197e-01 
2.2924509999999999e-02,	 2.7832462499999999e-02,	 9.2909688715270888e-01,	 -1.7213937245168114e+02,	 1.4161213013052385e+00,	 2.9007198964582085e+02,	 7.7534811670621217e+04,	 3.4180773268430869e+02,	 5.0363166430169504e-01 
2.5568012500000001e-02,	 2.7767300000000002e-02,	 9.3561380367946234e-01,	 -1.7574867271885404e+02,	 8.0926207209803491e-01,	 2.8938164844523374e+02,	 7.7892841014033300e+04,	 3.4140075695291137e+02,	 5.1479246110663290e-01 
2.8196525000000000e-02,	 2.7705352499999999e-02,	 9.4753004816397357e-01,	 -1.7488733184484647e+02,	 3.5889418749812985e-01,	 2.8946861190078636e+02,	 7.8908612550965088e+04,	 3.4145205108217380e+02,	 5.1218816680603585e-01 
3.0810267500000002e-02,	 2.7646542499999999e-02,	 9.6446224889715582e-01,	 -1.6997438398026077e+02,	 -2.0579169722001626e-02,	 2.9025642709557883e+02,	 8.0537290677935467e+04,	 3.4191638179708639e+02,	 4.9712267172655161e-01 
3.3409072500000005e-02,	 2.7590582499999999e-02,	 9.8525960870309492e-01,	 -1.6157618175433544e+02,	 -3.6071136561983247e-01,	 2.9159364453804386e+02,	 8.2653009328358065e+04,	 3.4270308471727253e+02,	 4.7147688945627053e-01 
3.5993277500000004e-02,	 2.7537062500000001e-02,	 1.0088287785170489e+00,	 -1.5022629185028785e+02,	 -6.8963205908738134e-01,	 2.9330935766617938e+02,	 8.5128174221798909e+04,	 3.4370982444032592e+02,	 4.3707762792780214e-01 
3.8562742499999997e-02,	 2.7485322499999999e-02,	 1.0334364723149809e+00,	 -1.3645156340576116e+02,	 -9.6907404938604713e-01,	 2.9522473894313481e+02,	 8.7774117047646083e+04,	 3.4483025252734262e+02,	 3.9571645331759031e-01 
4.1118089999999996e-02,	 2.7434500000000001e-02,	 1.0580211377498723e+00,	 -1.2069223929681765e+02,	 -1.1937742627253458e+00,	 2.9717462955493119e+02,	 9.0455715212019742e+04,	 3.4596714013270127e+02,	 3.4887169617602320e-01 
4.3659814999999998e-02,	 2.7383272500000000e-02,	 1.0804646434242284e+00,	 -1.0344776438732855e+02,	 -1.2801984423263246e+00,	 2.9898959910412538e+02,	 9.2938696737950901e+04,	 3.4702201483676583e+02,	 2.9812427191632113e-01 
4.6190690000000000e-02,	 2.7331220000000000e-02,	 1.0997152919525854e+00,	 -8.5279789914070534e+01,	 -1.2043312657695859e+00,	 3.0050016458168386e+02,	 9.5072500360050457e+04,	 3.4789752865024053e+02,	 2.4515349009581072e-01 
4.8727192500000002e-02,	 2.7283459999999999e-02,	 1.1199065365884280e+00,	 -6.5671764796416568e+01,	 -1.2796479021275460e+00,	 3.0160062835443904e+02,	 9.7172630406695956e+04,	 3.4853396550479715e+02,	 1.8845862214547357e-01 
1.5128262500000000e-03,	 3.1075265000000001e-02,	 9.3238672582640991e-01,	 -1.2270431407240261e+01,	 3.9016350780639030e+01,	 3.0498014147194471e+02,	 8.1808340116377833e+04,	 3.5048123244820800e+02,	 1.1669770630448241e-01 
4.4884230000000001e-03,	 3.0879072500000004e-02,	 9.3252141710767045e-01,	 -3.7272011164303535e+01,	 3.4897428551942468e+01,	 3.0415416783713022e+02,	 8.1598565595880340e+04,	 3.5000630885767089e+02,	 1.4588055928319393e-01 
7.3863117500000000e-03,	 3.0621312500000001e-02,	 9.2999398929307830e-01,	 -6.2197376291935356e+01,	 2.9592470799819189e+01,	 3.0284323758695751e+02,	 8.1026664162960704e+04,	 3.4925121591772358e+02,	 1.9721722647957621e-01 
1.0242725000000001e-02,	 3.0350075000000001e-02,	 9.2628932047419510e-01,	 -8.6432604412832760e+01,	 2.3759544710445635e+01,	 3.0102322947294755e+02,	 8.0218882021057216e+04,	 3.4820018050466200e+02,	 2.5743461974353049e-01 
1.3076895000000000e-02,	 3.0086857500000001e-02,	 9.2159632713546846e-01,	 -1.0882432642245668e+02,	 1.8238708542970304e+01,	 2.9880074499315612e+02,	 7.9223194193872812e+04,	 3.4691240084608438e+02,	 3.1806912798338183e-01 
1.5886214999999999e-02,	 2.9838714999999998e-02,	 9.1708905472177327e-01,	 -1.2832135113402114e+02,	 1.3385803193117573e+01,	 2.9642096357447110e+02,	 7.8207852791014389e+04,	 3.4552815718092626e+02,	 3.7339252227999137e-01 
1.8659745000000002e-02,	 2.9607124999999998e-02,	 9.1411445148917336e-01,	 -1.4401909337800325e+02,	 9.3476150654454564e+00,	 2.9418856376663894e+02,	 7.7367096464651258e+04,	 3.4422458069928120e+02,	 4.1926735609112370e-01 
2.1392685000000002e-02,	 2.9391020000000000e-02,	 9.1466540937582885e-01,	 -1.5536312203352406e+02,	 5.9749015474867768e+00,	 2.9238190955751770e+02,	 7.6938318585204659e+04,	 3.4316598666529660e+02,	 4.5306929002592761e-01 
2.4082724999999999e-02,	 2.9188527499999999e-02,	 9.1987321492644081e-01,	 -1.6205469339464338e+02,	 3.2042103093232615e+00,	 2.9120705970265618e+02,	 7.7065466195963309e+04,	 3.4247583738553340e+02,	 4.7327825811422475e-01 
2.6729555000000002e-02,	 2.8998272499999998e-02,	 9.3041945400898507e-01,	 -1.6408125009374973e+02,	 9.2841832767823118e-01,	 2.9076817626211221e+02,	 7.7831534403544050e+04,	 3.4221766430196152e+02,	 4.7947225937253996e-01 
2.9333274999999999e-02,	 2.8819459999999998e-02,	 9.4608679954409369e-01,	 -1.6183195532195333e+02,	 -9.4204259072011831e-01,	 2.9104051448674619e+02,	 7.9216266466389163e+04,	 3.4237789012108482e+02,	 4.7267858654981848e-01 
3.1895147500000005e-02,	 2.8651309999999999e-02,	 9.6601864801446569e-01,	 -1.5582200467756289e+02,	 -2.4798354271605998e+00,	 2.9191578078829565e+02,	 8.1128420532778226e+04,	 3.4289233200615530e+02,	 4.5449175032804440e-01 
3.4415527500000001e-02,	 2.8492620000000000e-02,	 9.8886788868967823e-01,	 -1.4660567211033899e+02,	 -3.7102994638090685e+00,	 2.9324710262102468e+02,	 8.3426099997912606e+04,	 3.4367334622096774e+02,	 4.2672094410669270e-01 
3.6896062500000000e-02,	 2.8341939999999999e-02,	 1.0135137171653623e+00,	 -1.3471174166042201e+02,	 -4.6771720797192282e+00,	 2.9487732207701180e+02,	 8.5980693210833575e+04,	 3.4462729678655984e+02,	 3.9112662818535127e-01 
3.9337234999999998e-02,	 2.8197244999999999e-02,	 1.0383130337141715e+00,	 -1.2063382880337413e+02,	 -5.3229297440872436e+00,	 2.9665112049038026e+02,	 8.8614386721957562e+04,	 3.4566227432139232e+02,	 3.4933290951239138e-01 
4.1741472500000001e-02,	 2.8056097500000002e-02,	 1.0623606832571595e+00,	 -1.0485262100102656e+02,	 -5.6516611788768172e+00,	 2.9842096129208579e+02,	 9.1207647051161592e+04,	 3.4669186329832468e+02,	 3.0287652161080991e-01 
4.4110694999999998e-02,	 2.7914939999999999e-02,	 1.0838842373456388e+00,	 -8.7917472457409076e+01,	 -5.5570642135406336e+00,	 3.0003781786945183e+02,	 9.3559703369465424e+04,	 3.4762978970120156e+02,	 2.5341016426196689e-01 
4.6452784999999996e-02,	 2.7772752500000001e-02,	 1.1022307562735481e+00,	 -7.0570584809183174e+01,	 -5.0155892750436317e+00,	 3.0133693538142984e+02,	 9.5555310905954437e+04,	 3.4838156851633352e+02,	 2.0307789090168887e-01 
4.8809834999999996e-02,	 2.7643582500000000e-02,	 1.1207619759013381e+00,	 -5.2896934579387725e+01,	 -4.5272110202772033e+00,	 3.0213834063404312e+02,	 9.7420233325139285e+04,	 3.4884452111691877e+02,	 1.5218904044944404e-01 
1.6874279999999999e-03,	 3.3692855000000001e-02,	 9.1921397870352062e-01,	 -9.9983039820166297e+00,	 5.4475885346285608e+01,	 3.0429057997147430e+02,	 8.0470197194750290e+04,	 3.5008478839287545e+02,	 1.5820685102330931e-01 
4.9700479999999995e-03,	 3.3305360000000006e-02,	 9.1768458983424861e-01,	 -3.1315168720880497e+01,	 4.9379983684492018e+01,	 3.0370627195423668e+02,	 8.0182046598638350e+04,	 3.4974850515614980e+02,	 1.6718415618924617e-01 
8.1014807499999991e-03,	 3.2827050000000003e-02,	 9.1312097211707122e-01,	 -5.3913251734320021e+01,	 4.2208959159206984e+01,	 3.0279460072901242e+02,	 7.9543808676923305e+04,	 3.4922316978405985e+02,	 1.9606570436287321e-01 
1.1135438250000001e-02,	 3.2341397500000001e-02,	 9.0793883140780107e-01,	 -7.7068168261919681e+01,	 3.3884766646448057e+01,	 3.0138824363960509e+02,	 7.8725030184336691e+04,	 3.4841122649805584e+02,	 2.4163503830863692e-01 
1.4101927500000000e-02,	 3.1883027500000001e-02,	 9.0286593799808046e-01,	 -9.8999915915276461e+01,	 2.5765286177052449e+01,	 2.9951374430390297e+02,	 7.7798274135906526e+04,	 3.4732605597712177e+02,	 2.9452949517433691e-01 
1.7004772500000001e-02,	 3.1459890000000004e-02,	 8.9933698961344644e-01,	 -1.1807598614207042e+02,	 1.8473477458737893e+01,	 2.9742340450434097e+02,	 7.6953350638041360e+04,	 3.4611192024540406e+02,	 3.4529979583325671e-01 
1.9838062500000000e-02,	 3.1071532500000002e-02,	 8.9872824877298652e-01,	 -1.3296480345815866e+02,	 1.2294942392557440e+01,	 2.9546924505224928e+02,	 7.6395998690593377e+04,	 3.4497301775389411e+02,	 3.8707965220819546e-01 
2.2600447499999999e-02,	 3.0714374999999999e-02,	 9.0263620563935643e-01,	 -1.4327150339195308e+02,	 7.0768986784666899e+00,	 2.9390810544938211e+02,	 7.6322792203503515e+04,	 3.4406046203821836e+02,	 4.1692142664231191e-01 
2.5291257500000001e-02,	 3.0384402499999998e-02,	 9.1167243900951977e-01,	 -1.4877582105907734e+02,	 2.7744463324165527e+00,	 2.9293475843289491e+02,	 7.6831563233979949e+04,	 3.4349027029231223e+02,	 4.3320495896126604e-01 
2.7912192499999999e-02,	 3.0078559999999997e-02,	 9.2604115511908314e-01,	 -1.4969629772924233e+02,	 -7.6838670847776958e-01,	 2.9261843648909462e+02,	 7.7958219379129252e+04,	 3.4330476335821089e+02,	 4.3605066327984782e-01 
3.0464977500000000e-02,	 2.9794522499999997e-02,	 9.4498158175524360e-01,	 -1.4657044722300617e+02,	 -3.6574766795665985e+00,	 2.9291304052695523e+02,	 7.9632800361936490e+04,	 3.4347753703441253e+02,	 4.2685782364824093e-01 
3.2952912500000001e-02,	 2.9530064999999998e-02,	 9.6742310380210705e-01,	 -1.3994550400161151e+02,	 -5.9923260962050344e+00,	 2.9371567371220641e+02,	 8.1747318369786968e+04,	 3.4394780949153272e+02,	 4.0725288570259399e-01 
3.5378029999999998e-02,	 2.9282639999999999e-02,	 9.9195623878673800e-01,	 -1.3039795266618535e+02,	 -7.8080709119847018e+00,	 2.9489178467087334e+02,	 8.4156007660646545e+04,	 3.4463574800193209e+02,	 3.7904225882973097e-01 
3.7744130000000001e-02,	 2.9049465000000000e-02,	 1.0174918285198808e+00,	 -1.1845831776294190e+02,	 -9.1572032588342598e+00,	 2.9630282505462804e+02,	 8.6735454742090151e+04,	 3.4545929522765692e+02,	 3.4392396621693505e-01 
4.0053402500000002e-02,	 2.8827132499999998e-02,	 1.0424885435684459e+00,	 -1.0460028515853195e+02,	 -9.9822950816489051e+00,	 2.9781969992209804e+02,	 8.9321220799072442e+04,	 3.4634242817876321e+02,	 3.0338623296700140e-01 
4.2310620000000007e-02,	 2.8611850000000001e-02,	 1.0661675342124339e+00,	 -8.9287078369426240e+01,	 -1.0288159386398464e+01,	 2.9932586729185442e+02,	 9.1812040741620309e+04,	 3.4721710468661888e+02,	 2.5885203377282157e-01 
4.4519630000000004e-02,	 2.8398455000000000e-02,	 1.0869936550333115e+00,	 -7.3043115303192025e+01,	 -9.9791695613914939e+00,	 3.0071008114971170e+02,	 9.4038335704659868e+04,	 3.4801902060679259e+02,	 2.1183222112794584e-01 
4.6692507500000001e-02,	 2.8185627500000001e-02,	 1.1044455074350377e+00,	 -5.6558596123943325e+01,	 -8.9793865464745917e+00,	 3.0184995388745529e+02,	 9.5910320942853345e+04,	 3.4867799780579395e+02,	 1.6424023235864144e-01 
4.8886872499999998e-02,	 2.7994440000000002e-02,	 1.1210961842670810e+00,	 -4.0182779300328910e+01,	 -7.8099652411629332e+00,	 3.0253164791249446e+02,	 9.7576137974306359e+04,	 3.4907150069698753e+02,	 1.1726743665588085e-01 
1.8727780000000001e-03,	 3.6288342500000001e-02,	 9.0772804384515204e-01,	 -7.6922499997398228e+00,	 6.3721191682117464e+01,	 3.0380098282719257e+02,	 7.9336833882081584e+04,	 3.4980303548230859e+02,	 1.8348556101091132e-01 
5.4818590000000004e-03,	 3.5672912500000001e-02,	 9.0435911194615426e-01,	 -2.4880184313372656e+01,	 5.8310971703790749e+01,	 3.0341035727443744e+02,	 7.8940751785766988e+04,	 3.4957807578261480e+02,	 1.8135320818144809e-01 
8.8609485000000002e-03,	 3.4951700000000002e-02,	 8.9742665076932027e-01,	 -4.4455955986828407e+01,	 5.0139591551454089e+01,	 3.0289584056231183e+02,	 7.8202783185078981e+04,	 3.4928154655271408e+02,	 1.9185033111404712e-01 
1.2079065000000000e-02,	 3.4240710000000008e-02,	 8.9046826970541881e-01,	 -6.5782364627385022e+01,	 4.0156970122099914e+01,	 3.0197420362515760e+02,	 7.7360315241718650e+04,	 3.4874975314628608e+02,	 2.2099157733567731e-01 
1.5176157500000001e-02,	 3.3584080000000002e-02,	 8.8491679113171462e-01,	 -8.6728900281296006e+01,	 3.0079793635980685e+01,	 3.0055270359517482e+02,	 7.6516132807704460e+04,	 3.4792794027100172e+02,	 2.6383922378113406e-01 
1.8164272500000002e-02,	 3.2987482500000005e-02,	 8.8250080203393388e-01,	 -1.0512083884696207e+02,	 2.0809586353072898e+01,	 2.9883765274322008e+02,	 7.5871795679312054e+04,	 3.4693382542591684e+02,	 3.0887955442874243e-01 
2.1045202499999999e-02,	 3.2446347500000000e-02,	 8.8445198074729314e-01,	 -1.1925345838194083e+02,	 1.2848312939443810e+01,	 2.9717758441069947e+02,	 7.5617139511523550e+04,	 3.4596886013225173e+02,	 3.4668899691760052e-01 
2.3823125000000001e-02,	 3.1953595000000001e-02,	 8.9180035929944845e-01,	 -1.2871316130840978e+02,	 6.1404694557806732e+00,	 2.9581930874252288e+02,	 7.5896910625037373e+04,	 3.4517731444774500e+02,	 3.7331407129665839e-01 
2.6500712500000002e-02,	 3.1502515000000002e-02,	 9.0469174806047781e-01,	 -1.3339770147812777e+02,	 6.1193526312772828e-01,	 2.9495364132756936e+02,	 7.6768725143396747e+04,	 3.4467189159503152e+02,	 3.8703215518591383e-01 
2.9082762499999998e-02,	 3.1087967500000001e-02,	 9.2274136932349093e-01,	 -1.3368568526938003e+02,	 -3.9217072057367828e+00,	 2.9464050781910441e+02,	 7.8217221342990553e+04,	 3.4448888490528418e+02,	 3.8823660487196049e-01 
3.1573447499999997e-02,	 3.0705824999999999e-02,	 9.4475805178563677e-01,	 -1.3012761502207448e+02,	 -7.5803724213911083e+00,	 2.9484525922264197e+02,	 8.0139142035999655e+04,	 3.4460856012153835e+02,	 3.7825009080142180e-01 
3.3978577499999996e-02,	 3.0352219999999999e-02,	 9.6953741964916940e-01,	 -1.2333123192080018e+02,	 -1.0482570289347114e+01,	 2.9547557857090578e+02,	 8.2416867658663978e+04,	 3.4497671506143479e+02,	 3.5879498309344082e-01 
3.6302477499999999e-02,	 3.0023169999999998e-02,	 9.9562622349192742e-01,	 -1.1389296637480990e+02,	 -1.2677133552127923e+01,	 2.9641269933775169e+02,	 8.4903006766154358e+04,	 3.4552334047303714e+02,	 3.3166015348173727e-01 
3.8551294999999999e-02,	 2.9714514999999997e-02,	 1.0219663082799004e+00,	 -1.0233836650099330e+02,	 -1.4218915781976120e+01,	 2.9753824651960434e+02,	 8.7480108928052854e+04,	 3.4617873468173246e+02,	 2.9846268454450858e-01 
4.0729477500000000e-02,	 2.9421574999999998e-02,	 1.0471529513588980e+00,	 -8.9127828811150920e+01,	 -1.5074739388806156e+01,	 2.9874630338979892e+02,	 9.0000018501014507e+04,	 3.4688079562420711e+02,	 2.6059004284982906e-01 
4.2844100000000003e-02,	 2.9139367499999999e-02,	 1.0705114714998449e+00,	 -7.4667411212658692e+01,	 -1.5240811451138226e+01,	 2.9995030545331002e+02,	 9.2378428833364174e+04,	 3.4757908919008008e+02,	 2.1925077720981345e-01 
4.4901639999999993e-02,	 2.8861925000000000e-02,	 1.0907552626852317e+00,	 -5.9434227282757504e+01,	 -1.4666877753380868e+01,	 3.0107319560122721e+02,	 9.4477707531663851e+04,	 3.4822907776452536e+02,	 1.7579575215608578e-01 
4.6917914999999998e-02,	 2.8587840000000000e-02,	 1.1073911504453919e+00,	 -4.3984824203481622e+01,	 -1.3183638514769500e+01,	 3.0204700854582887e+02,	 9.6228900787006540e+04,	 3.4879179178334442e+02,	 1.3164906370786933e-01 
4.8960129999999998e-02,	 2.8342382499999999e-02,	 1.1221886331875066e+00,	 -2.8782341481726206e+01,	 -1.1203293352340788e+01,	 3.0269215436653633e+02,	 9.7723039672074679e+04,	 3.4916408737308609e+02,	 8.8456605577984085e-02 
2.0577199999999999e-03,	 3.8866727500000003e-02,	 8.9870671948703584e-01,	 -5.3935403907610402e+00,	 6.8075006160577203e+01,	 3.0359351937927164e+02,	 7.8494716098713820e+04,	 3.4968357612934699e+02,	 1.9528608144172316e-01 
5.9947342500000006e-03,	 3.7998469999999999e-02,	 8.9344433038470894e-01,	 -1.8114759047787196e+01,	 6.2627693395900806e+01,	 3.0333615156207082e+02,	 7.7968935924234494e+04,	 3.4953532464408977e+02,	 1.8651871827866584e-01 
9.6260317499999998e-03,	 3.7023792500000006e-02,	 8.8395886306479365e-01,	 -3.3988620175927203e+01,	 5.4031286973589303e+01,	 3.0316686191861800e+02,	 7.7098107996334191e+04,	 3.4943777450302503e+02,	 1.8267241653035379e-01 
1.3032827499999998e-02,	 3.6084657500000006e-02,	 8.7498428645018200e-01,	 -5.2727483490136159e+01,	 4.3047564012855709e+01,	 3.0273257806339143e+02,	 7.6206032313653690e+04,	 3.4918740154197076e+02,	 1.9493315872315256e-01 
1.6262055000000001e-02,	 3.5231300000000000e-02,	 8.6875124279670002e-01,	 -7.2089494889597802e+01,	 3.1582974684007858e+01,	 3.0181141515493357e+02,	 7.5432940585218879e+04,	 3.4865573834068545e+02,	 2.2573665706482160e-01 
1.9333512500000000e-02,	 3.4464832500000001e-02,	 8.6742425160503778e-01,	 -8.9537479136371715e+01,	 2.0739734316193097e+01,	 3.0050876455527924e+02,	 7.4992639660999106e+04,	 3.4790250683079910e+02,	 2.6417771298774467e-01 
2.2257587499999999e-02,	 3.3775220000000002e-02,	 8.7186843302821992e-01,	 -1.0300549088685449e+02,	 1.1319010985757469e+01,	 2.9911980979042892e+02,	 7.5028466023909757e+04,	 3.4709757107061250e+02,	 2.9854871364445612e-01 
2.5045000000000001e-02,	 3.3151352500000002e-02,	 8.8258031846211604e-01,	 -1.1184216154949442e+02,	 3.3899917184285933e+00,	 2.9790460520039977e+02,	 7.5641719509418253e+04,	 3.4639179396064657e+02,	 3.2302591422719362e-01 
2.7702965000000000e-02,	 3.2583495000000004e-02,	 8.9915066035729718e-01,	 -1.1599873989961188e+02,	 -3.1407815476916312e+00,	 2.9706492583247359e+02,	 7.6844675880309180e+04,	 3.4590327635915571e+02,	 3.3547312192879331e-01 
3.0239927500000000e-02,	 3.2064320000000000e-02,	 9.2062742485746873e-01,	 -1.1594209196933663e+02,	 -8.4610576963643815e+00,	 2.9667538194318092e+02,	 7.8576984058577247e+04,	 3.4567640893426676e+02,	 3.3629836620064751e-01 
3.2663115000000000e-02,	 3.1587897500000003e-02,	 9.4549572280863303e-01,	 -1.1224687887319220e+02,	 -1.2697548950269239e+01,	 2.9672044290674467e+02,	 8.0711789170289179e+04,	 3.4570265971474191e+02,	 3.2676283038748127e-01 
3.4981129999999999e-02,	 3.1148750000000003e-02,	 9.7240296305682838e-01,	 -1.0557492627569692e+02,	 -1.5973987057401285e+01,	 2.9712308242173617e+02,	 8.3121352827070674e+04,	 3.4593713355426235e+02,	 3.0865885029476059e-01 
3.7201015000000004e-02,	 3.0741482500000000e-02,	 9.9985840476492849e-01,	 -9.6558324590605878e+01,	 -1.8359380833439310e+01,	 2.9778180384019993e+02,	 8.5657736784794019e+04,	 3.4632039229836892e+02,	 2.8380723754820297e-01 
3.9331347500000002e-02,	 3.0360614999999997e-02,	 1.0268442467404442e+00,	 -8.5715302161218474e+01,	 -1.9916547942314619e+01,	 2.9859791321625625e+02,	 8.8210702327943494e+04,	 3.4679463540341737e+02,	 2.5374891027783963e-01 
4.1379282499999996e-02,	 3.0000310000000002e-02,	 1.0520955549997359e+00,	 -7.3499361921858323e+01,	 -2.0649093788573335e+01,	 2.9948565553673825e+02,	 9.0648610001412861e+04,	 3.4730976926299877e+02,	 2.1981784136904783e-01 
4.3354232499999999e-02,	 2.9654527500000000e-02,	 1.0750799070811738e+00,	 -6.0248204188300669e+01,	 -2.0556357016188848e+01,	 3.0038284231440321e+02,	 9.2906436989587266e+04,	 3.4782960836878397e+02,	 1.8301645429933608e-01 
4.5266062500000002e-02,	 2.9317130000000000e-02,	 1.0947601320536962e+00,	 -4.6363256644849159e+01,	 -1.9632349430329601e+01,	 3.0123680666928311e+02,	 9.4876126588491374e+04,	 3.4832368331886681e+02,	 1.4454541668122337e-01 
4.7133900000000006e-02,	 2.8986642500000000e-02,	 1.1107508417625336e+00,	 -3.2186779953819084e+01,	 -1.7633089712793236e+01,	 3.0202367420816893e+02,	 9.6513391056101143e+04,	 3.4877831874370577e+02,	 1.0522539374535027e-01 
4.9030777499999997e-02,	 2.8689849999999999e-02,	 1.1241090179517319e+00,	 -1.8108556541603100e+01,	 -1.4763679658440202e+01,	 3.0264503263047010e+02,	 9.7875032548806921e+04,	 3.4913690817778485e+02,	 6.6919893208542275e-02 
2.2360424999999999e-03,	 4.1430125000000005e-02,	 8.9213744652825910e-01,	 -3.1698948991151772e+00,	 6.8643834418837258e+01,	 3.0365724830111429e+02,	 7.7937300379908789e+04,	 3.4972027616822260e+02,	 1.9649128520714892e-01 
6.4940290000000001e-03,	 4.0289617500000000e-02,	 8.8512553786861703e-01,	 -1.1267329366846205e+01,	 6.3153982488809575e+01,	 3.0346977223332033e+02,	 7.7276998873848308e+04,	 3.4961230195482267e+02,	 1.8349243808273175e-01 
1.0380381500000001e-02,	 3.9057502500000008e-02,	 8.7311854019055146e-01,	 -2.2986315529448834e+01,	 5.4455540979019837e+01,	 3.0355256257166417e+02,	 7.6249508976146579e+04,	 3.4965998800064807e+02,	 1.6904472775791993e-01 
1.3982365000000000e-02,	 3.7892162500000007e-02,	 8.6200699465210928e-01,	 -3.8511388801558326e+01,	 4.2976878922661747e+01,	 3.0353927151406310e+02,	 7.5275840754227145e+04,	 3.4965233298058479e+02,	 1.6504210825321478e-01 
1.7348605000000000e-02,	 3.6845417500000005e-02,	 8.5489241510383340e-01,	 -5.5776046144753266e+01,	 3.0617529014501653e+01,	 3.0309851108004676e+02,	 7.4546147507354690e+04,	 3.4939838083193627e+02,	 1.8210456877511985e-01 
2.0504842499999999e-02,	 3.5912917500000002e-02,	 8.5443119822348401e-01,	 -7.2032794200201323e+01,	 1.8548909166838669e+01,	 3.0220276897262659e+02,	 7.4285743485638945e+04,	 3.4888171314429593e+02,	 2.1320319537233398e-01 
2.3470767500000003e-02,	 3.5078539999999998e-02,	 8.6115835874359592e-01,	 -8.4728376854988426e+01,	 7.9241287236022711e+00,	 3.0106382733526698e+02,	 7.4588442259619304e+04,	 3.4822365993251424e+02,	 2.4437775956983887e-01 
2.6264827500000001e-02,	 3.4326780000000001e-02,	 8.7512427635128320e-01,	 -9.2986954548085464e+01,	 -1.0707899281435391e+00,	 2.9993937900808078e+02,	 7.5514987872582788e+04,	 3.4757275841061664e+02,	 2.6755008103023192e-01 
2.8899550000000000e-02,	 3.3644872500000006e-02,	 8.9521847416441469e-01,	 -9.6702217513824479e+01,	 -8.4703927884064072e+00,	 2.9906914292803060e+02,	 7.7024800035109685e+04,	 3.4706817300154103e+02,	 2.7969283219516872e-01 
3.1387447499999999e-02,	 3.3023390000000000e-02,	 9.1995425131933717e-01,	 -9.6399070441741472e+01,	 -1.4434327188626469e+01,	 2.9855715680363488e+02,	 7.9017567197216282e+04,	 3.4677096714090953e+02,	 2.8108968824517339e-01 
3.3739365000000000e-02,	 3.2454757500000000e-02,	 9.4753142008713465e-01,	 -9.2723662860391457e+01,	 -1.9089789694981434e+01,	 2.9840377817763425e+02,	 8.1344440263724828e+04,	 3.4668188187527403e+02,	 2.7306981259239826e-01 
3.5967015000000005e-02,	 3.1931982499999997e-02,	 9.7640632697449270e-01,	 -8.6375844925073494e+01,	 -2.2559490042765049e+01,	 2.9855227054600442e+02,	 8.3865028868899142e+04,	 3.4676812946112454e+02,	 2.5744370628514757e-01 
3.8080574999999998e-02,	 3.1448310000000000e-02,	 1.0050562308270423e+00,	 -7.8023920223741783e+01,	 -2.4950960818743557e+01,	 2.9892135005039597e+02,	 8.6432531440741848e+04,	 3.4698240597425411e+02,	 2.3608204058272700e-01 
4.0091287500000003e-02,	 3.0997012500000001e-02,	 1.0324989319370015e+00,	 -6.8164921045447926e+01,	 -2.6341499850733417e+01,	 2.9943145283598989e+02,	 8.8944063355731763e+04,	 3.4727833874372283e+02,	 2.1042938974764491e-01 
4.2009437500000003e-02,	 3.0571207499999999e-02,	 1.0576359978480199e+00,	 -5.7239671169034033e+01,	 -2.6791505104556652e+01,	 3.0001525384204984e+02,	 9.1287118341007154e+04,	 3.4761671788972893e+02,	 1.8180772393038266e-01 
4.3847062499999999e-02,	 3.0163895000000000e-02,	 1.0800870318758526e+00,	 -4.5511497590838594e+01,	 -2.6309187225713455e+01,	 3.0063023978160646e+02,	 9.3416018335062981e+04,	 3.4797281637038515e+02,	 1.5107132522671565e-01 
4.5617624999999995e-02,	 2.9768880000000001e-02,	 1.0990869273389732e+00,	 -3.3294470384082601e+01,	 -2.4936068831102219e+01,	 3.0123950343812135e+02,	 9.5251956039540251e+04,	 3.4832524246823311e+02,	 1.1942065013404139e-01 
4.7342974999999995e-02,	 2.9384510000000003e-02,	 1.1144490855343197e+00,	 -2.0714173569346141e+01,	 -2.2370302607141493e+01,	 3.0184133651618339e+02,	 9.6776271239630005e+04,	 3.4867302064881926e+02,	 8.7439584969268569e-02 
4.9099502500000003e-02,	 2.9037479999999997e-02,	 1.1269190941253100e+00,	 -7.9434436249297713e+00,	 -1.8521655580646637e+01,	 3.0240953638814062e+02,	 9.8043353451561678e+04,	 3.4900104533224646e+02,	 5.7745282830777796e-02 
2.4045630000000002e-03,	 4.3977837500000005e-02,	 8.8772047215390504e-01,	 -1.1159169732696566e+00,	 6.6368482974599814e+01,	 3.0394088984167553e+02,	 7.7623872235937073e+04,	 3.4988357219538790e+02,	 1.8971414801340561e-01 
6.9734382500000001e-03,	 4.2547245000000004e-02,	 8.7925280439935605e-01,	 -4.6450298930735396e+00,	 6.0655511311397760e+01,	 3.0375854942937758e+02,	 7.6837320196599991e+04,	 3.4977860526228409e+02,	 1.7391890117353737e-01 
1.1119062750000002e-02,	 4.1057412500000001e-02,	 8.6502546523822099e-01,	 -1.1928978665366378e+01,	 5.1972160375828871e+01,	 3.0397616817565716e+02,	 7.5648159517653505e+04,	 3.4990387705033964e+02,	 1.5239498729597578e-01 
1.4925582499999999e-02,	 3.9669360000000008e-02,	 8.5188615058516681e-01,	 -2.3741193262203495e+01,	 4.0310895898295790e+01,	 3.0426740558586732e+02,	 7.4570477953677939e+04,	 3.5007145713175498e+02,	 1.3363731578336255e-01 
1.8436047500000000e-02,	 3.8432447500000001e-02,	 8.4376925109968870e-01,	 -3.8360954031823887e+01,	 2.7406577090760223e+01,	 3.0424226319651200e+02,	 7.3853855977689876e+04,	 3.5005699318565257e+02,	 1.3467904601027453e-01 
2.1679722499999998e-02,	 3.7336957500000004e-02,	 8.4388211392088275e-01,	 -5.3047476055189286e+01,	 1.4346555010259584e+01,	 3.0373002001422185e+02,	 7.3739372631262610e+04,	 3.4976217903595784e+02,	 1.5711600968033024e-01 
2.4686875000000004e-02,	 3.6360372500000002e-02,	 8.5270305501043686e-01,	 -6.4715468026528939e+01,	 2.6408981092267698e+00,	 3.0280770783925783e+02,	 7.4283897516742523e+04,	 3.4923072813721745e+02,	 1.8546286182749250e-01 
2.7485122500000000e-02,	 3.5482662499999998e-02,	 8.6984823923541188e-01,	 -7.2211846860740636e+01,	 -7.3561679183139326e+00,	 3.0172091773708127e+02,	 7.5505544920017928e+04,	 3.4860346263466460e+02,	 2.0821813697705260e-01 
3.0093014999999997e-02,	 3.4688212500000003e-02,	 8.9339251651794582e-01,	 -7.5442260654828431e+01,	 -1.5534902389484834e+01,	 3.0077404278870773e+02,	 7.7305892964707396e+04,	 3.4805603081163997e+02,	 2.2130089762156818e-01 
3.2527584999999998e-02,	 3.3965767500000001e-02,	 9.2128521994030366e-01,	 -7.4926823661629399e+01,	 -2.2002843810053463e+01,	 3.0010912376961022e+02,	 7.9543233269559816e+04,	 3.4767109546503440e+02,	 2.2461078684407776e-01 
3.4803962500000001e-02,	 3.3306305000000001e-02,	 9.5142935439480714e-01,	 -7.1407270496259216e+01,	 -2.6888656499081105e+01,	 2.9973865984687296e+02,	 8.2044457037329048e+04,	 3.4745644125971143e+02,	 2.1960168268691146e-01 
3.6937417500000000e-02,	 3.2701382500000001e-02,	 9.8207277609763777e-01,	 -6.5602125639924509e+01,	 -3.0330286868429550e+01,	 2.9962860734621177e+02,	 8.4655832594149993e+04,	 3.4739264908686101e+02,	 2.0804768377864066e-01 
3.8941814999999998e-02,	 3.2142920000000005e-02,	 1.0116478588324200e+00,	 -5.8199803987109298e+01,	 -3.2494045926219904e+01,	 2.9972086858015405e+02,	 8.7232091756980371e+04,	 3.4744612930669956e+02,	 1.9184681728070177e-01 
4.0831485000000001e-02,	 3.1622995000000001e-02,	 1.0392505112173076e+00,	 -4.9649456461189708e+01,	 -3.3496721282445925e+01,	 2.9995294651472551e+02,	 8.9681593578637156e+04,	 3.4758061940305856e+02,	 1.7231223691512562e-01 
4.2620362499999995e-02,	 3.1133765000000001e-02,	 1.0639638617842964e+00,	 -4.0345310826244145e+01,	 -3.3461990158808625e+01,	 3.0027466466410488e+02,	 9.1912696027620448e+04,	 3.4776697034030997e+02,	 1.5072194131611552e-01 
4.4323387499999999e-02,	 3.0667299999999998e-02,	 1.0856224010231823e+00,	 -3.0478043742466323e+01,	 -3.2433060548192309e+01,	 3.0065682631454160e+02,	 9.3903072455625428e+04,	 3.4798820269050344e+02,	 1.2789612593771524e-01 
4.5957477499999996e-02,	 3.0217317500000000e-02,	 1.1037124918724184e+00,	 -2.0248492526877680e+01,	 -3.0480432569079937e+01,	 3.0107347167196934e+02,	 9.5600108649600763e+04,	 3.4822923741978411e+02,	 1.0508349241505938e-01 
4.7546242500000002e-02,	 2.9781835000000000e-02,	 1.1183323016245870e+00,	 -9.5965951173910238e+00,	 -2.7290270575884083e+01,	 3.0152729111592072e+02,	 9.7012441079831638e+04,	 3.4849158815181727e+02,	 8.3010383516247122e-02 