TITLE = "Final State"
VARIABLES = "X", "Y", "rho", "u", "v", "T", "p", "c", "M"
ZONE I=299, J=49, DATAPACKING=POINT
5.0500002500000002e-02,	 3.2454492500000001e-04,	 1.7660870652868166e-01,	 2.0914059476775765e+03,	 3.7933729314769997e+00,	 9.2804881597987219e+02,	 4.7153384280459395e+04,	 6.1138446185503926e+02,	 3.4207761537177332e+00 
5.1500037499999998e-02,	 3.2467452500000002e-04,	 1.7378159210113617e-01,	 2.0942484319752361e+03,	 4.0524712308678739e+00,	 9.2213990364958215e+02,	 4.6103142056633740e+04,	 6.0943500299532388e+02,	 3.4363834412884899e+00 
5.2500205000000001e-02,	 3.2483457500000001e-04,	 1.7085010710103005e-01,	 2.0972193858674227e+03,	 4.3006357871307737e+00,	 9.1595538003886941e+02,	 4.5021453379979321e+04,	 6.0738791342871195e+02,	 3.4528573075244258e+00 
5.3500620000000006e-02,	 3.2500840000000003e-04,	 1.6783332403340737e-01,	 2.1003030142894090e+03,	 4.5339204845397809e+00,	 9.0952708018115425e+02,	 4.3916100251196200e+04,	 6.0525279506140623e+02,	 3.4701333477588889e+00 
5.4501372500000006e-02,	 3.2518822499999999e-04,	 1.6474966240165981e-01,	 2.1034835016372622e+03,	 4.7501870009855027e+00,	 9.0288702846534397e+02,	 4.2794492897128403e+04,	 6.0303940751463119e+02,	 3.4881449520014547e+00 
5.5502555000000009e-02,	 3.2537180000000003e-04,	 1.6161706056539951e-01,	 2.1067451750164482e+03,	 4.9481853631974007e+00,	 8.9606711595183833e+02,	 4.1663685182583926e+04,	 6.0075757625261849e+02,	 3.5068238325632390e+00 
5.6504262499999999e-02,	 3.2555542499999998e-04,	 1.5845210658791598e-01,	 2.1100731769601248e+03,	 5.1276712797182329e+00,	 8.8909770050185159e+02,	 4.0530078220960015e+04,	 5.9841673474054517e+02,	 3.5261036077499717e+00 
5.7506595000000001e-02,	 3.2573822500000003e-04,	 1.5526999299366312e-01,	 2.1134535557056511e+03,	 5.2887544362378449e+00,	 8.8200741742217292e+02,	 3.9399409086486310e+04,	 5.9602586307873241e+02,	 3.5459202426691419e+00 
5.8509645000000006e-02,	 3.2591992500000003e-04,	 1.5208439770139806e-01,	 2.1168734336171865e+03,	 5.4320958263834731e+00,	 8.7482281734768219e+02,	 3.8276718793074921e+04,	 5.9359336449197065e+02,	 3.5662130506650911e+00 
5.9513507500000007e-02,	 3.2610065000000002e-04,	 1.4890737126569370e-01,	 2.1203211370888266e+03,	 5.5585076522744705e+00,	 8.6756808249829260e+02,	 3.7166331864022817e+04,	 5.9112696355346918e+02,	 3.5869255739183967e+00 
6.0518282500000006e-02,	 3.2628057500000001e-04,	 1.4574949091336084e-01,	 2.1237861123404177e+03,	 5.6688998637664545e+00,	 8.6026518813872985e+02,	 3.6071926125182108e+04,	 5.8863375240190851e+02,	 3.6080052655741888e+00 
6.1524065000000003e-02,	 3.2645980000000003e-04,	 1.4261984099996727e-01,	 2.1272589643082051e+03,	 5.7643530696356748e+00,	 8.5293380333760774e+02,	 3.4996548294563538e+04,	 5.8612014704814339e+02,	 3.6294039455953708e+00 
6.2530950000000002e-02,	 3.2663829999999997e-04,	 1.3952616651369429e-01,	 2.1307313786894974e+03,	 5.8460125278991812e+00,	 8.4559143790453186e+02,	 3.3942683648470913e+04,	 5.8359192626942013e+02,	 3.6510775809463758e+00 
6.3539037499999992e-02,	 3.2681617500000002e-04,	 1.3647486875996426e-01,	 2.1341961419038721e+03,	 5.9150060323673612e+00,	 8.3825338241105669e+02,	 3.2912277591164500e+04,	 5.8105419881089438e+02,	 3.6729866905499460e+00 
6.4548419999999995e-02,	 3.2699372500000001e-04,	 1.3347133353194540e-01,	 2.1376468724407337e+03,	 5.9723288546018534e+00,	 8.3093326013216301e+02,	 3.1906860978721306e+04,	 5.7851158197550160e+02,	 3.6950949332939405e+00 
6.5559192500000002e-02,	 3.2717100000000002e-04,	 1.3051981231605050e-01,	 2.1410781833591514e+03,	 6.0191083047952532e+00,	 8.2364266512366180e+02,	 3.0927528323110459e+04,	 5.7596806484910235e+02,	 3.7173704144789137e+00 
6.6571457500000000e-02,	 3.2734787500000000e-04,	 1.2762372981364509e-01,	 2.1444854075039316e+03,	 6.0562500715682672e+00,	 8.1639173174158771e+02,	 2.9975053564843824e+04,	 5.7342719460894318e+02,	 3.7397841947306554e+00 
6.7585310000000010e-02,	 3.2752442499999997e-04,	 1.2478568942126830e-01,	 2.1478646018194904e+03,	 6.0846881342612669e+00,	 8.0918911081775741e+02,	 2.9049907249632146e+04,	 5.7089205823465613e+02,	 3.7623105620071589e+00 
6.8600845000000008e-02,	 3.2770095000000000e-04,	 1.2200759726439690e-01,	 2.1512124820418817e+03,	 6.1053689999651493e+00,	 8.0204209610266548e+02,	 2.8152306058920149e+04,	 5.6836531680836117e+02,	 3.7849268459002312e+00 
6.9618157500000000e-02,	 3.2787757500000005e-04,	 1.1929075402640700e-01,	 2.1545263361521379e+03,	 6.1191020380070800e+00,	 7.9495679842342702e+02,	 2.7282254064731376e+04,	 5.6584925763456090e+02,	 3.8076130639762353e+00 
7.0637350000000002e-02,	 3.2805435000000005e-04,	 1.1663596849126516e-01,	 2.1578039398829997e+03,	 6.1264998207798271e+00,	 7.8793831680084861e+02,	 2.6439586438865845e+04,	 5.6334584664912109e+02,	 3.8303515504177756e+00 
7.1658520000000003e-02,	 3.2823127499999999e-04,	 1.1404361963141911e-01,	 2.1610434956148501e+03,	 6.1283464238254544e+00,	 7.8099085860555408e+02,	 2.5623997362278511e+04,	 5.6085676395170378e+02,	 3.8531267231893782e+00 
7.2681762499999997e-02,	 3.2840850000000004e-04,	 1.1151369435462843e-01,	 2.1642436247368437e+03,	 6.1252394267167949e+00,	 7.7411775059060392e+02,	 2.4835057355451005e+04,	 5.5838340097575269e+02,	 3.8759251954119325e+00 
7.3707177499999998e-02,	 3.2858604999999998e-04,	 1.0904590705440381e-01,	 2.1674032446997908e+03,	 6.1176689730777056e+00,	 7.6732169581954906e+02,	 2.4072255524758220e+04,	 5.5592694672635321e+02,	 3.8987350608755555e+00 
7.4734860000000000e-02,	 3.2876390000000002e-04,	 1.0663969822609914e-01,	 2.1705215871054843e+03,	 6.1061675996694866e+00,	 7.6060472865352915e+02,	 2.3335003264005831e+04,	 5.5348836653117155e+02,	 3.9215461558951241e+00 
7.5764909999999991e-02,	 3.2894207499999995e-04,	 1.0429428518832776e-01,	 2.1735981532569217e+03,	 6.0912378249659964e+00,	 7.5396830592461140e+02,	 2.2622653279625767e+04,	 5.5106843007128998e+02,	 3.9443498658165801e+00 
7.6797427500000015e-02,	 3.2912065000000002e-04,	 1.0200873723127912e-01,	 2.1766326334492223e+03,	 6.0732819818107204e+00,	 7.4741347746001929e+02,	 2.1934524986171258e+04,	 5.4866776936859242e+02,	 3.9671386362485865e+00 
7.7832510000000008e-02,	 3.2929965000000002e-04,	 9.9781991215884117e-02,	 2.1796249020679970e+03,	 6.0525897052915330e+00,	 7.4094089375734893e+02,	 2.1269910803562827e+04,	 5.4628687834762354e+02,	 3.9899060221764135e+00 
7.8870259999999998e-02,	 3.2947910000000001e-04,	 9.7612851094281916e-02,	 2.1825750245775807e+03,	 6.0295656547399457e+00,	 7.3455078664562029e+02,	 2.0628077935164798e+04,	 5.4392610245128697e+02,	 4.0126468344547721e+00 
7.9910772500000005e-02,	 3.2965902500000000e-04,	 9.5500077597405697e-02,	 2.1854831525669856e+03,	 6.0045199032550167e+00,	 7.2824319554258591e+02,	 2.0008295709251801e+04,	 5.4158571938281068e+02,	 4.0353564041914378e+00 
8.0954147500000004e-02,	 3.2983942499999999e-04,	 9.3442340888950218e-02,	 2.1883495903719895e+03,	 5.9776233465602475e+00,	 7.2201782172776586e+02,	 1.9409822537093638e+04,	 5.3926588309807971e+02,	 4.0580311551024666e+00 
8.2000489999999995e-02,	 3.3002032499999999e-04,	 9.1438290433989503e-02,	 2.1911747083614732e+03,	 5.9491336291616248e+00,	 7.1587421361194561e+02,	 1.8831926663378043e+04,	 5.3696669053430685e+02,	 4.0806679875117977e+00 
8.3049892500000000e-02,	 3.3020175000000000e-04,	 8.9486543731134002e-02,	 2.1939589610174044e+03,	 5.9193480544029775e+00,	 7.0981172684901037e+02,	 1.8273883087276579e+04,	 5.3468816531230823e+02,	 4.1032644606693669e+00 
8.4102457500000005e-02,	 3.3038372499999999e-04,	 8.7585696576032115e-02,	 2.1967028788215152e+03,	 5.8883279473234138e+00,	 7.0382954266387310e+02,	 1.7734976518910567e+04,	 5.3243026307666491e+02,	 4.1258187655100711e+00 
8.5158287499999999e-02,	 3.3056625000000000e-04,	 8.5734350177153806e-02,	 2.1994070312295380e+03,	 5.8563891197287523e+00,	 6.9792674500580404e+02,	 1.7214508958647530e+04,	 5.3019289935778841e+02,	 4.1483294680497975e+00 
8.6217484999999996e-02,	 3.3074937499999999e-04,	 8.3931104699932632e-02,	 2.2020720370128211e+03,	 5.8235092487773912e+00,	 6.9210230110440011e+02,	 1.6711797708130616e+04,	 5.2797594133054861e+02,	 4.1707956081418738e+00 
8.7280152499999999e-02,	 3.3093309999999998e-04,	 8.2174607075714515e-02,	 2.2046984990670812e+03,	 5.7898826081261818e+00,	 6.8635520056528105e+02,	 1.6226187956303591e+04,	 5.2577926011390070e+02,	 4.1932161819094675e+00 
8.8346384999999999e-02,	 3.3111742500000000e-04,	 8.0463561549362142e-02,	 2.2072869811919309e+03,	 5.7554487809981758e+00,	 6.8068450950769864e+02,	 1.5757055207288835e+04,	 5.2360275172658487e+02,	 4.2155899248029680e+00 
8.9416290000000009e-02,	 3.3130237500000003e-04,	 7.8796774788343807e-02,	 2.2098379418167924e+03,	 5.7200901965200011e+00,	 6.7508951576443360e+02,	 1.5303816255208209e+04,	 5.2144639372893710e+02,	 4.2379147147432263e+00 
9.0489970000000003e-02,	 3.3148797500000000e-04,	 7.7173444571490252e-02,	 2.2123512806804483e+03,	 5.6830556137476584e+00,	 6.6957073026065245e+02,	 1.4866005292777025e+04,	 5.1931063526895218e+02,	 4.2601834618651591e+00 
9.1567522499999998e-02,	 3.3167427499999999e-04,	 7.5593783543563914e-02,	 2.2148253449419358e+03,	 5.6418367543759791e+00,	 6.6413208837360844e+02,	 1.4443434772069373e+04,	 5.1719726389673315e+02,	 4.2823748021864398e+00 
9.2649057499999993e-02,	 3.3186125000000000e-04,	 7.4061257913914075e-02,	 2.2172533360259390e+03,	 5.5880670330128170e+00,	 6.5878891026356303e+02,	 1.4036773803271757e+04,	 5.1511254467594540e+02,	 4.3044192975650262e+00 
9.3734677500000002e-02,	 3.3204892500000003e-04,	 7.2590395359128229e-02,	 2.2196106581519098e+03,	 5.4930920736798834e+00,	 6.5359595237042333e+02,	 1.3649553755924422e+04,	 5.1307831945922646e+02,	 4.3260792185344910e+00 
9.4824482500000001e-02,	 3.3223732499999999e-04,	 7.1235560386136862e-02,	 2.2218078786356809e+03,	 5.2527787938835040e+00,	 6.4875177914142682e+02,	 1.3295520513809677e+04,	 5.1117342496694482e+02,	 4.3464976452122235e+00 
9.5918577500000005e-02,	 3.3242647499999998e-04,	 7.0205591899724654e-02,	 2.2234978343623061e+03,	 4.4758728835848487e+00,	 6.4502660280525629e+02,	 1.3028045578680985e+04,	 5.0970371604967147e+02,	 4.3623428067741905e+00 
9.7017069999999997e-02,	 3.3261637500000001e-04,	 7.0357962576629768e-02,	 2.2232058771099614e+03,	 1.5099881305935439e+00,	 6.4568611196181485e+02,	 1.3069670461873877e+04,	 5.0996422343405629e+02,	 4.3595340373614233e+00 
9.8120065000000006e-02,	 3.3280704999999998e-04,	 7.5120975750689781e-02,	 2.2137903677442750e+03,	 -1.0593221409810413e+01,	 6.6640406512746461e+02,	 1.4402198604237141e+04,	 5.1808116706512817e+02,	 4.2731059401048874e+00 
9.9227664999999993e-02,	 3.3299855000000001e-04,	 9.4891535888941003e-02,	 2.1676998340387117e+03,	 -4.5566281020774980e+01,	 7.6581573229240655e+02,	 2.0906517554181788e+04,	 5.5538114117076452e+02,	 3.9039472804613378e+00 
1.0033996499999999e-01,	 3.3319084999999999e-04,	 1.4729473935633142e-01,	 2.0479096565137568e+03,	 -8.4097789725643835e+01,	 1.0143352150157165e+03,	 4.2983193313419106e+04,	 6.3917493834495701e+02,	 3.2066896742280822e+00 
1.0145709999999999e-01,	 3.3338397500000004e-04,	 2.4053328156332052e-01,	 1.8794894590472661e+03,	 -8.9001982347467447e+01,	 1.3426625892259995e+03,	 9.2912041376820722e+04,	 7.3538104382527945e+02,	 2.5586675232447047e+00 
1.0257915000000001e-01,	 3.3357794999999999e-04,	 3.5802900700766349e-01,	 1.7196704234221404e+03,	 -6.8873417481083180e+01,	 1.6301205510891152e+03,	 1.6790664120684483e+05,	 8.1028695638640090e+02,	 2.1239994791605867e+00 
1.0370625000000000e-01,	 3.3377277500000002e-04,	 4.6817092911974401e-01,	 1.5983265939897674e+03,	 -4.3948220399806075e+01,	 1.8316197779880390e+03,	 2.4670031542094727e+05,	 8.5890800186674426e+02,	 1.8615855076242744e+00 
1.0483850000000000e-01,	 3.3396849999999998e-04,	 5.4822473124380078e-01,	 1.5203277224206186e+03,	 -2.4535162224946522e+01,	 1.9531839096926535e+03,	 3.0805743762898480e+05,	 8.8695289488446429e+02,	 1.7143251839430280e+00 
1.0597597500000000e-01,	 3.3416515000000003e-04,	 5.9380825343777244e-01,	 1.4786468745447544e+03,	 -1.2160001275031291e+01,	 2.0155484254307919e+03,	 3.4432567223818676e+05,	 9.0100168888878397e+02,	 1.6411699248224041e+00 
1.0711882499999999e-01,	 3.3436272499999997e-04,	 6.1231502256764725e-01,	 1.4623337212824424e+03,	 -5.0363121273311027e+00,	 2.0394722905564338e+03,	 3.5927141226888174e+05,	 9.0633320449868222e+02,	 1.6134710574296804e+00 
1.0826715000000001e-01,	 3.3456125000000001e-04,	 6.1362509669915999e-01,	 1.4614296214413910e+03,	 -1.1190821141929381e+00,	 2.0408194270860545e+03,	 3.6027790676122124e+05,	 9.0663248608738979e+02,	 1.6119321470752037e+00 
1.0942104999999999e-01,	 3.3476072500000000e-04,	 6.0544124231939245e-01,	 1.4689670065035821e+03,	 1.0036983512628790e+00,	 2.0298648306047701e+03,	 3.5356482995836233e+05,	 9.0419592638213271e+02,	 1.6246117755459524e+00 
1.1058060000000000e-01,	 3.3496120000000001e-04,	 5.9258557363135567e-01,	 1.4807283911808336e+03,	 2.1548436466883696e+00,	 2.0126442403588082e+03,	 3.4312157498067216e+05,	 9.0035233239421837e+02,	 1.6446116768204382e+00 
1.1174595000000000e-01,	 3.3516267499999997e-04,	 5.7779949251001850e-01,	 1.4942824705672504e+03,	 2.7681020540688248e+00,	 1.9926256980538708e+03,	 3.3123240693813673e+05,	 8.9586351540390217e+02,	 1.6679829112069613e+00 
1.1291725000000000e-01,	 3.3536515000000001e-04,	 5.6253861860168819e-01,	 1.5083415242208764e+03,	 3.0777091571029027e+00,	 1.9716684393911912e+03,	 3.1909218257429119e+05,	 8.9113998141789318e+02,	 1.6926012698784718e+00 
1.1409457500000000e-01,	 3.3556867499999997e-04,	 5.4752698426491020e-01,	 1.5222599226307625e+03,	 3.2160263233488471e+00,	 1.9507282484218267e+03,	 3.0727854537211818e+05,	 8.8639515403658891e+02,	 1.7173642171766490e+00 
1.1527802500000001e-01,	 3.3577327500000002e-04,	 5.3309107951779189e-01,	 1.5357404072772815e+03,	 3.2584337461891706e+00,	 1.9302645807533029e+03,	 2.9603849963778304e+05,	 8.8173363403395979e+02,	 1.7417322020634769e+00 
1.1646772500000001e-01,	 3.3597895000000001e-04,	 5.1933963257752347e-01,	 1.5486781906990675e+03,	 3.2535582289567291e+00,	 1.9104561809600980e+03,	 2.8544240035251249e+05,	 8.7719778638432126e+02,	 1.7654873648463896e+00 
1.1766377500000000e-01,	 3.3618572500000000e-04,	 5.0627447454923991e-01,	 1.5610644414897558e+03,	 3.2257702532226515e+00,	 1.8913375691587933e+03,	 2.7547679299892846e+05,	 8.7279753548393887e+02,	 1.7885794939518362e+00 
1.1886632499999999e-01,	 3.3639362499999999e-04,	 4.9384174951833970e-01,	 1.5729418416515757e+03,	 3.1940177082161876e+00,	 1.8728622709770023e+03,	 2.6608695327009342e+05,	 8.6852416626978970e+02,	 1.8110550582513592e+00 
1.2007547500000000e-01,	 3.3660264999999998e-04,	 4.8196743808759412e-01,	 1.5843730151930047e+03,	 3.1655178513184996e+00,	 1.8549495961294215e+03,	 2.5720520246649545e+05,	 8.6436076096182842e+02,	 1.8330033581346001e+00 
1.2129130000000000e-01,	 3.3681282499999998e-04,	 4.7056904416053946e-01,	 1.5954301823357846e+03,	 3.1481919705095196e+00,	 1.8375001292160155e+03,	 2.4876006979165098e+05,	 8.6028564408263810e+02,	 1.8545390120140681e+00 
1.2251395000000000e-01,	 3.3702419999999996e-04,	 4.5956996176258080e-01,	 1.6061817421388637e+03,	 3.1428152200137682e+00,	 1.8204169139651513e+03,	 2.4068688940777030e+05,	 8.5627727355830859e+02,	 1.8757765346661803e+00 
1.2374357499999999e-01,	 3.3723677500000003e-04,	 4.4889833702733623e-01,	 1.6166932695784317e+03,	 3.1512480112398897e+00,	 1.8036042750669133e+03,	 2.3292665505556756e+05,	 8.5231398513875524e+02,	 1.8968318823354613e+00 
1.2498024999999999e-01,	 3.3745055000000001e-04,	 4.3849237266257635e-01,	 1.6270222416726444e+03,	 3.1731383986422754e+00,	 1.7869766838998607e+03,	 2.2542956182340052e+05,	 8.4837610830086533e+02,	 1.9178113574794358e+00 
1.2622410000000001e-01,	 3.3766560000000000e-04,	 4.2829825541501165e-01,	 1.6372198189087294e+03,	 3.2090076816544468e+00,	 1.7704564042855420e+03,	 2.1815314583133440e+05,	 8.4444546003151379e+02,	 1.9388143358930943e+00 
1.2747524999999998e-01,	 3.3788190000000004e-04,	 4.1827266832642018e-01,	 1.6473281506405579e+03,	 3.2578373687229121e+00,	 1.7539783104289859e+03,	 2.1106374656686961e+05,	 8.4050653774445800e+02,	 1.9599268989483485e+00 
1.2873380000000001e-01,	 3.3809947500000002e-04,	 4.0837824676047935e-01,	 1.6573846358670755e+03,	 3.3188157962722276e+00,	 1.7374833764362547e+03,	 2.0413298954398680e+05,	 8.3654501510646003e+02,	 1.9812298547019411e+00 
1.2999990000000000e-01,	 3.3831835000000001e-04,	 3.9858520106231193e-01,	 1.6674201385943170e+03,	 3.3911770496409246e+00,	 1.7209218960745586e+03,	 1.9733870218763137e+05,	 8.3254854613636212e+02,	 2.0027944253753911e+00 
1.3127367500000001e-01,	 3.3853855000000001e-04,	 3.8886947522142262e-01,	 1.6774606461167793e+03,	 3.4740885959147838e+00,	 1.7042510603088031e+03,	 1.9066341363366295e+05,	 8.2850621958133172e+02,	 2.0246851549881342e+00 
1.3255522500000000e-01,	 3.3876010000000005e-04,	 3.7921111519968148e-01,	 1.6875287969288977e+03,	 3.5681530430671056e+00,	 1.6874326361916308e+03,	 1.8409307012290787e+05,	 8.2440802144227791e+02,	 2.0469628209928814e+00 
1.3384465000000001e-01,	 3.3898300000000000e-04,	 3.6959575893564317e-01,	 1.6976422445576748e+03,	 3.6706261106750002e+00,	 1.6704359068031558e+03,	 1.7761790095044480e+05,	 8.2024557273768107e+02,	 2.0696804338529446e+00 
1.3514212500000000e-01,	 3.3920730000000000e-04,	 3.6001029234907572e-01,	 1.7078180135405228e+03,	 3.7829353264252985e+00,	 1.6532304990344649e+03,	 1.7122937169335896e+05,	 8.1601039442882450e+02,	 2.0928927069156122e+00 
1.3644774999999998e-01,	 3.3943302500000000e-04,	 3.5044462254629599e-01,	 1.7180706382393771e+03,	 3.9059125445592056e+00,	 1.6357895976043778e+03,	 1.6492131151594452e+05,	 8.1169469510807289e+02,	 2.1166518501311278e+00 
1.3776162500000000e-01,	 3.3966017499999999e-04,	 3.4089100572053804e-01,	 1.7284128215576779e+03,	 4.0381512997206661e+00,	 1.6180889383006343e+03,	 1.5868938209768219e+05,	 8.0729113052961793e+02,	 2.1410089538012773e+00 
1.3908392500000000e-01,	 3.3988877499999999e-04,	 3.3134305640330375e-01,	 1.7388564334505886e+03,	 4.1794865056415320e+00,	 1.6001051539887796e+03,	 1.5253037414264341e+05,	 8.0279239303331008e+02,	 2.1660163591553032e+00 
1.4041477499999999e-01,	 3.4011885000000000e-04,	 3.2179582347907598e-01,	 1.7494124136228127e+03,	 4.3325056694917983e+00,	 1.5818159699038813e+03,	 1.4644221747502882e+05,	 7.9819125344923953e+02,	 2.1917275726665957e+00 
1.4175425000000000e-01,	 3.4035040000000003e-04,	 3.1224654672095131e-01,	 1.7600899553216436e+03,	 4.4952625579012038e+00,	 1.5632017002629068e+03,	 1.4042440753755526e+05,	 7.9348093416631525e+02,	 2.2181953213566064e+00 
1.4310249999999999e-01,	 3.4058347499999999e-04,	 3.0269402786522126e-01,	 1.7708971070630494e+03,	 4.6689941261867922e+00,	 1.5442442408262211e+03,	 1.3447754752279312e+05,	 7.8865485598003056e+02,	 2.2454730970809007e+00 
1.4445970000000000e-01,	 3.4081810000000004e-04,	 2.9314057628949552e-01,	 1.7818385625874816e+03,	 4.8532011944438382e+00,	 1.5249310565883202e+03,	 1.2860447596328719e+05,	 7.8370765931884910e+02,	 2.2736094903884920e+00 
1.4582592500000002e-01,	 3.4105430000000003e-04,	 2.8359163617558691e-01,	 1.7929158989874295e+03,	 5.0472497707397928e+00,	 1.5052549287855963e+03,	 1.2280991016243848e+05,	 7.7863516849723919e+02,	 2.3026483721603590e+00 
1.4720132499999999e-01,	 3.4129207500000001e-04,	 2.7405506683672015e-01,	 1.8041282168333512e+03,	 5.2509062060309297e+00,	 1.4852129731990201e+03,	 1.1709989548451034e+05,	 7.7343416734637060e+02,	 2.3326301505082312e+00 
1.4858605000000000e-01,	 3.4153145000000000e-04,	 2.6454409377393889e-01,	 1.8154685235715315e+03,	 5.4603489795438263e+00,	 1.4648133251842796e+03,	 1.1148342159108823e+05,	 7.6810417832014332e+02,	 2.3635813816500342e+00 
1.4998020000000001e-01,	 3.4177247500000001e-04,	 2.5507489354336799e-01,	 1.8269261301383592e+03,	 5.6752087481564200e+00,	 1.4440711016962100e+03,	 1.0597080383133302e+05,	 7.6264648880783602e+02,	 2.3955200367836444e+00 
1.5138389999999999e-01,	 3.4201515000000004e-04,	 2.4566740407469631e-01,	 1.8384853756690725e+03,	 5.8928070237115673e+00,	 1.4230109818458448e+03,	 1.0057400064767548e+05,	 7.5706490187971349e+02,	 2.4284507378993845e+00 
1.5279730000000000e-01,	 3.4225949999999998e-04,	 2.3634407064038274e-01,	 1.8501267105389404e+03,	 6.1102198981817670e+00,	 1.4016655024102320e+03,	 9.5305734654705811e+04,	 7.5136537710897130e+02,	 2.4623663222574290e+00 
1.5422057500000003e-01,	 3.4250555000000003e-04,	 2.2712972324161443e-01,	 1.8618264525621892e+03,	 6.3244451797287917e+00,	 1.3800757474854297e+03,	 9.0179294451074995e+04,	 7.4555630715921529e+02,	 2.4972455821492265e+00 
1.5565382500000000e-01,	 3.4275332500000001e-04,	 2.1805001537227639e-01,	 1.8735583125553003e+03,	 6.5341121088150267e+00,	 1.3582887510197802e+03,	 8.5207566680054428e+04,	 7.3964791707898723e+02,	 2.5330561517875489e+00 
1.5709717500000001e-01,	 3.4300284999999999e-04,	 2.0913178442416971e-01,	 1.8852926239845672e+03,	 6.7331312976236717e+00,	 1.3363591341783629e+03,	 8.0403169133209289e+04,	 7.3365280072485962e+02,	 2.5697504942816471e+00 
1.5855077500000003e-01,	 3.4325415000000003e-04,	 2.0040001123029461e-01,	 1.8969998742401917e+03,	 6.9224202381282680e+00,	 1.3143425778063615e+03,	 7.5776799059601675e+04,	 7.2758422610695220e+02,	 2.6072754693879898e+00 
1.6001477500000000e-01,	 3.4350725000000003e-04,	 1.9187941602157357e-01,	 1.9086485460293413e+03,	 7.0960356474190185e+00,	 1.2922999843817274e+03,	 7.1338120747762412e+04,	 7.2145733982229626e+02,	 2.6455642372284380e+00 
1.6148932499999999e-01,	 3.4376215000000000e-04,	 1.8359161923333281e-01,	 1.9202086610429180e+03,	 7.2553307668559928e+00,	 1.2702907270946771e+03,	 6.7094345002422211e+04,	 7.1528735981418072e+02,	 2.6845467649405346e+00 
1.6297452499999998e-01,	 3.4401890000000001e-04,	 1.7555724591945637e-01,	 1.9316489998770833e+03,	 7.3948955695134142e+00,	 1.2483779641171709e+03,	 6.3051408211840600e+04,	 7.0909109860882324e+02,	 2.7241396182872104e+00 
1.6447054999999999e-01,	 3.4427755000000001e-04,	 1.6779213322946188e-01,	 1.9429422964298394e+03,	 7.5163363624488078e+00,	 1.2266185510596404e+03,	 5.9212181477469887e+04,	 7.0288415120267598e+02,	 2.7642632596687604e+00 
1.6597755000000000e-01,	 3.4453807500000005e-04,	 1.6031104686202741e-01,	 1.9540602939565363e+03,	 7.6161879708979940e+00,	 1.2050724667478596e+03,	 5.5578465450025149e+04,	 6.9668356984089098e+02,	 2.8048244870429726e+00 
1.6749562500000001e-01,	 3.4480050000000004e-04,	 1.5312516689225736e-01,	 1.9649773727422837e+03,	 7.6936196862977031e+00,	 1.1837956811524828e+03,	 5.2149874031229177e+04,	 6.9050584980788960e+02,	 2.8457288738789202e+00 
1.6902495000000001e-01,	 3.4506490000000005e-04,	 1.4624353282671723e-01,	 1.9756687134638532e+03,	 7.7459997682817336e+00,	 1.1628435992939435e+03,	 4.8924671015135915e+04,	 6.8436791416173560e+02,	 2.8868739421940548e+00 
1.7056567500000000e-01,	 3.4533127500000003e-04,	 1.3967266649239496e-01,	 1.9861110309684670e+03,	 7.7736490617221268e+00,	 1.1422694855412437e+03,	 4.5899709519242548e+04,	 6.7828665751586743e+02,	 2.9281517216273376e+00 
1.7211795000000002e-01,	 3.4559962500000003e-04,	 1.3341686554415913e-01,	 1.9962823970003483e+03,	 7.7756195426342556e+00,	 1.1221247085183090e+03,	 4.3070686708348876e+04,	 6.7227900598661029e+02,	 2.9694479857009215e+00 
1.7368192500000001e-01,	 3.4587000000000002e-04,	 1.2747984050229441e-01,	 2.0061598629399355e+03,	 7.7483570481731077e+00,	 1.1024633674464174e+03,	 4.0432967487746253e+04,	 6.6636330023447783e+02,	 3.0106322262223837e+00 
1.7525772500000000e-01,	 3.4614242500000006e-04,	 1.2186501498483411e-01,	 2.0157189576697006e+03,	 7.6878599204607534e+00,	 1.0833432683612418e+03,	 3.7981758910725075e+04,	 6.6055963423006767e+02,	 3.0515543392822551e+00 
1.7684552500000000e-01,	 3.4641692499999999e-04,	 1.1657500665905804e-01,	 2.0249345490279691e+03,	 7.5931735290119180e+00,	 1.0648241698659747e+03,	 3.5711927134158017e+04,	 6.5488936343083117e+02,	 3.0920471435806265e+00 
1.7844547499999999e-01,	 3.4669352499999999e-04,	 1.1161469286936396e-01,	 2.0337756456974478e+03,	 7.4558855406329192e+00,	 1.0469783220016470e+03,	 3.3619325468294832e+04,	 6.4937838891354102e+02,	 3.1319017496251504e+00 
1.8005769999999999e-01,	 3.4697222500000005e-04,	 1.0699175686455217e-01,	 2.0422039340857550e+03,	 7.2697142417845253e+00,	 1.0298935290827037e+03,	 3.1700972532557640e+04,	 6.4405825539860075e+02,	 3.1708573814114671e+00 
1.8168237499999998e-01,	 3.4725307499999998e-04,	 1.0271995854818822e-01,	 2.0501673176592399e+03,	 7.0196201349919622e+00,	 1.0136865744778618e+03,	 2.9956320441193086e+04,	 6.3897053793005887e+02,	 3.2085663004020706e+00 
1.8331967500000002e-01,	 3.4753612500000000e-04,	 9.8823475599491589e-02,	 2.0575906712253968e+03,	 6.6835134437849097e+00,	 9.9852247430594127e+02,	 2.8388856893065455e+04,	 6.3417323473012425e+02,	 3.2445417328966850e+00 
1.8496974999999999e-01,	 3.4782140000000003e-04,	 9.5342278025104574e-02,	 2.0643637388285788e+03,	 6.2305492618851304e+00,	 9.8463987004157809e+02,	 2.7008028242086795e+04,	 6.2974930256418099e+02,	 3.2780872209819978e+00 
1.8663272500000000e-01,	 3.4810890000000000e-04,	 9.2344220075654362e-02,	 2.0703157764178795e+03,	 5.6080476707578475e+00,	 9.7240392421505601e+02,	 2.5833684892138383e+04,	 6.2582417853705056e+02,	 3.3081549785297044e+00 
1.8830877499999998e-01,	 3.4839864999999999e-04,	 8.9943512579628002e-02,	 2.0751751456001939e+03,	 4.7333182573660144e+00,	 9.6239044041369107e+02,	 2.4902966367256256e+04,	 6.2259357818860428e+02,	 3.3331223071751750e+00 
1.8999810000000000e-01,	 3.4869070000000005e-04,	 8.8333900293545195e-02,	 2.0784929697592725e+03,	 3.4666200270951877e+00,	 9.5554395633069851e+02,	 2.4283317272822362e+04,	 6.2037504765973938e+02,	 3.3503859778109288e+00 
1.9170080000000000e-01,	 3.4898505000000002e-04,	 8.7847852521206582e-02,	 2.0795155427361192e+03,	 1.5885985014553701e+00,	 9.5343920714887213e+02,	 2.4096507083501881e+04,	 6.1969142987118983e+02,	 3.3557284307693118e+00 
1.9341704999999998e-01,	 3.4928175000000004e-04,	 8.9058058481673807e-02,	 2.0769616225254531e+03,	 -1.2257843612563837e+00,	 9.5872929672432701e+02,	 2.4564003985794749e+04,	 6.2140820870359573e+02,	 3.3423471965008189e+00 
1.9514705000000002e-01,	 3.4958085000000002e-04,	 9.2899975677626187e-02,	 2.0687503728190013e+03,	 -5.3736329218934484e+00,	 9.7566419560222027e+02,	 2.6076296200065626e+04,	 6.2687243083649946e+02,	 3.3001249538480164e+00 
1.9689095000000001e-01,	 3.4988232500000004e-04,	 1.0069058441047490e-01,	 2.0521022875669819e+03,	 -1.0887055389739743e+01,	 1.0097692401793120e+03,	 2.9251014691919707e+04,	 6.3773471011824358e+02,	 3.2178445589534186e+00 
1.9864892500000003e-01,	 3.5018622500000002e-04,	 1.1384246499386662e-01,	 2.0245883151178330e+03,	 -1.6819455226398304e+01,	 1.0655147573745496e+03,	 3.4897450295033792e+04,	 6.5510169196489676e+02,	 3.0906013575265550e+00 
2.0042112500000001e-01,	 3.5049260000000003e-04,	 1.3315514621378405e-01,	 1.9861187682439063e+03,	 -2.1300800237275652e+01,	 1.1422155506045369e+03,	 4.3755833575141151e+04,	 6.7827064387799226e+02,	 2.9283782317476565e+00 
2.0220769999999999e-01,	 3.5080147500000003e-04,	 1.5804609179145365e-01,	 1.9400535067864273e+03,	 -2.2854217643759817e+01,	 1.2321819031632792e+03,	 5.6025859073364736e+04,	 7.0447632023104245e+02,	 2.7540856378303951e+00 
2.0400885000000002e-01,	 3.5111287500000002e-04,	 1.8649024515007132e-01,	 1.8917849842145183e+03,	 -2.1588134971326845e+01,	 1.3242404347122449e+03,	 7.1048170936655704e+04,	 7.3031867960693876e+02,	 2.5905241228373890e+00 
2.0582477500000002e-01,	 3.5142680000000001e-04,	 2.1565450081414775e-01,	 1.8463651714689424e+03,	 -1.8492142177491761e+01,	 1.4087763035336313e+03,	 8.7403837698204152e+04,	 7.5326884506508918e+02,	 2.4512599779303064e+00 
2.0765562500000001e-01,	 3.5174330000000000e-04,	 2.4298033428730287e-01,	 1.8068727157546264e+03,	 -1.4772052773244283e+01,	 1.4806133544206084e+03,	 1.0350056602650107e+05,	 7.7223559818412696e+02,	 2.3398728358414949e+00 
2.0950155000000001e-01,	 3.5206242500000003e-04,	 2.6687493760401587e-01,	 1.7743493083197920e+03,	 -1.1284084631034936e+01,	 1.5385978357539573e+03,	 1.1813071851379679e+05,	 7.8721170900606432e+02,	 2.2540126989674523e+00 
2.1136274999999999e-01,	 3.5238417500000003e-04,	 2.8677697631095450e-01,	 1.7484750615675384e+03,	 -8.4036915940180883e+00,	 1.5839641365289970e+03,	 1.3068314063386164e+05,	 7.9873305669922013e+02,	 2.1890858805796953e+00 
2.1323940000000000e-01,	 3.5270860000000001e-04,	 3.0285352413812300e-01,	 1.7282784791242825e+03,	 -6.1945558302364372e+00,	 1.6189031284631969e+03,	 1.4105335857710065e+05,	 8.0749421140435140e+02,	 2.1403120369793087e+00 
2.1513165000000001e-01,	 3.5303575000000001e-04,	 3.1563084347794695e-01,	 1.7126298905886911e+03,	 -4.5682817331392744e+00,	 1.6456886153889939e+03,	 1.4943662073984405e+05,	 8.1414698509409732e+02,	 2.1035955603450160e+00 
2.1703970000000000e-01,	 3.5336562500000001e-04,	 3.2571919817627076e-01,	 1.7005075018653974e+03,	 -3.3923276621762546e+00,	 1.6662664842813033e+03,	 1.5614128651510147e+05,	 8.1922126313250340e+02,	 2.0757650735555875e+00 
2.1896375000000001e-01,	 3.5369825000000003e-04,	 3.3366382116561211e-01,	 1.6910988308898598e+03,	 -2.5409272801401173e+00,	 1.6821342746366117e+03,	 1.6147292654130858e+05,	 8.2311272649508169e+02,	 2.0545190049482684e+00 
2.2090399999999999e-01,	 3.5403367500000003e-04,	 3.3988950258524314e-01,	 1.6838100097203603e+03,	 -1.9126840699523433e+00,	 1.6943648163476723e+03,	 1.6568172739517037e+05,	 8.2609967046160966e+02,	 2.0382662725348788e+00 
2.2286062500000001e-01,	 3.5437192500000002e-04,	 3.4469577310548510e-01,	 1.6782363698484673e+03,	 -1.4321045724933403e+00,	 1.7036809114657374e+03,	 1.6894842705759191e+05,	 8.2836762164010042e+02,	 2.0259567576542126e+00 