TITLE = "2DRampMesh"
VARIABLES = "X", "Y"
ZONE I=300, J=50, DATAPACKING=POINT
  0.0000000000000000,  0.0000000000000000
  0.0100334448160535,  0.0000000000000000
  0.0200668896321070,  0.0000000000000000
  0.0301003344481605,  0.0000000000000000
  0.0401337792642140,  0.0000000000000000
  0.0501672240802676,  0.0000000000000000
  0.0602006688963211,  0.0000000000000000
  0.0702341137123746,  0.0000000000000000
  0.0802675585284281,  0.0000000000000000
  0.0903010033444816,  0.0000000000000000
  0.1003344481605351,  0.0000000000000000
  0.1103678929765886,  0.0000000000000000
  0.1204013377926421,  0.0000000000000000
  0.1304347826086957,  0.0000000000000000
  0.1404682274247492,  0.0000000000000000
  0.1505016722408027,  0.0000000000000000
  0.1605351170568562,  0.0000000000000000
  0.1705685618729097,  0.0000000000000000
  0.1806020066889632,  0.0000000000000000
  0.1906354515050167,  0.0000000000000000
  0.2006688963210702,  0.0000000000000000
  0.2107023411371237,  0.0000000000000000
  0.2207357859531773,  0.0000000000000000
  0.2307692307692308,  0.0000000000000000
  0.2408026755852843,  0.0000000000000000
  0.2508361204013378,  0.0000000000000000
  0.2608695652173913,  0.0000000000000000
  0.2709030100334448,  0.0000000000000000
  0.2809364548494984,  0.0000000000000000
  0.2909698996655519,  0.0000000000000000
  0.3010033444816054,  0.0000000000000000
  0.3110367892976589,  0.0000000000000000
  0.3210702341137124,  0.0000000000000000
  0.3311036789297659,  0.0000000000000000
  0.3411371237458194,  0.0000000000000000
  0.3511705685618729,  0.0000000000000000
  0.3612040133779264,  0.0000000000000000
  0.3712374581939800,  0.0000000000000000
  0.3812709030100335,  0.0000000000000000
  0.3913043478260870,  0.0000000000000000
  0.4013377926421405,  0.0000000000000000
  0.4113712374581940,  0.0000000000000000
  0.4214046822742475,  0.0000000000000000
  0.4314381270903010,  0.0000000000000000
  0.4414715719063546,  0.0000000000000000
  0.4515050167224081,  0.0000000000000000
  0.4615384615384616,  0.0000000000000000
  0.4715719063545151,  0.0000000000000000
  0.4816053511705686,  0.0000000000000000
  0.4916387959866221,  0.0000000000000000
  0.5016722408026756,  0.0000000000000000
  0.5117056856187291,  0.0000000000000000
  0.5217391304347826,  0.0000000000000000
  0.5317725752508361,  0.0000000000000000
  0.5418060200668896,  0.0000000000000000
  0.5518394648829431,  0.0000000000000000
  0.5618729096989967,  0.0000000000000000
  0.5719063545150502,  0.0000000000000000
  0.5819397993311037,  0.0000000000000000
  0.5919732441471572,  0.0000000000000000
  0.6020066889632108,  0.0000000000000000
  0.6120401337792643,  0.0000000000000000
  0.6220735785953178,  0.0000000000000000
  0.6321070234113713,  0.0000000000000000
  0.6421404682274248,  0.0000000000000000
  0.6521739130434783,  0.0000000000000000
  0.6622073578595318,  0.0000000000000000
  0.6722408026755853,  0.0000000000000000
  0.6822742474916388,  0.0000000000000000
  0.6923076923076923,  0.0000000000000000
  0.7023411371237458,  0.0000000000000000
  0.7123745819397993,  0.0000000000000000
  0.7224080267558528,  0.0000000000000000
  0.7324414715719064,  0.0000000000000000
  0.7424749163879599,  0.0000000000000000
  0.7525083612040134,  0.0000000000000000
  0.7625418060200669,  0.0000000000000000
  0.7725752508361204,  0.0000000000000000
  0.7826086956521740,  0.0000000000000000
  0.7926421404682275,  0.0000000000000000
  0.8026755852842810,  0.0000000000000000
  0.8127090301003345,  0.0000000000000000
  0.8227424749163880,  0.0000000000000000
  0.8327759197324415,  0.0000000000000000
  0.8428093645484950,  0.0000000000000000
  0.8528428093645485,  0.0000000000000000
  0.8628762541806020,  0.0000000000000000
  0.8729096989966555,  0.0000000000000000
  0.8829431438127091,  0.0000000000000000
  0.8929765886287626,  0.0000000000000000
  0.9030100334448161,  0.0000000000000000
  0.9130434782608696,  0.0000000000000000
  0.9230769230769231,  0.0000000000000000
  0.9331103678929766,  0.0000000000000000
  0.9431438127090301,  0.0000000000000000
  0.9531772575250836,  0.0000000000000000
  0.9632107023411372,  0.0000000000000000
  0.9732441471571907,  0.0000000000000000
  0.9832775919732442,  0.0000000000000000
  0.9933110367892977,  0.0000000000000000
  1.0033444816053512,  0.0000000000000000
  1.0133779264214047,  0.0000000000000000
  1.0234113712374582,  0.0000000000000000
  1.0334448160535117,  0.0000000000000000
  1.0434782608695652,  0.0000000000000000
  1.0535117056856187,  0.0000000000000000
  1.0635451505016722,  0.0000000000000000
  1.0735785953177257,  0.0000000000000000
  1.0836120401337792,  0.0000000000000000
  1.0936454849498327,  0.0000000000000000
  1.1036789297658862,  0.0000000000000000
  1.1137123745819397,  0.0000000000000000
  1.1237458193979935,  0.0000000000000000
  1.1337792642140470,  0.0000000000000000
  1.1438127090301005,  0.0000000000000000
  1.1538461538461540,  0.0000000000000000
  1.1638795986622075,  0.0000000000000000
  1.1739130434782610,  0.0000000000000000
  1.1839464882943145,  0.0000000000000000
  1.1939799331103680,  0.0000000000000000
  1.2040133779264215,  0.0000000000000000
  1.2140468227424750,  0.0000000000000000
  1.2240802675585285,  0.0000000000000000
  1.2341137123745820,  0.0000000000000000
  1.2441471571906355,  0.0000000000000000
  1.2541806020066890,  0.0000000000000000
  1.2642140468227425,  0.0000000000000000
  1.2742474916387960,  0.0000000000000000
  1.2842809364548495,  0.0000000000000000
  1.2943143812709030,  0.0000000000000000
  1.3043478260869565,  0.0000000000000000
  1.3143812709030100,  0.0000000000000000
  1.3244147157190636,  0.0000000000000000
  1.3344481605351171,  0.0000000000000000
  1.3444816053511706,  0.0000000000000000
  1.3545150501672241,  0.0000000000000000
  1.3645484949832776,  0.0000000000000000
  1.3745819397993311,  0.0000000000000000
  1.3846153846153846,  0.0000000000000000
  1.3946488294314381,  0.0000000000000000
  1.4046822742474916,  0.0000000000000000
  1.4147157190635451,  0.0000000000000000
  1.4247491638795986,  0.0000000000000000
  1.4347826086956521,  0.0000000000000000
  1.4448160535117056,  0.0000000000000000
  1.4548494983277593,  0.0000000000000000
  1.4648829431438128,  0.0000000000000000
  1.4749163879598663,  0.0000000000000000
  1.4849498327759199,  0.0000000000000000
  1.4949832775919734,  0.0000000000000000
  1.5050167224080269,  0.0000000000000000
  1.5150501672240804,  0.0000000000000000
  1.5250836120401339,  0.0000000000000000
  1.5351170568561874,  0.0000000000000000
  1.5451505016722409,  0.0000000000000000
  1.5551839464882944,  0.0000000000000000
  1.5652173913043479,  0.0000000000000000
  1.5752508361204014,  0.0000000000000000
  1.5852842809364549,  0.0000000000000000
  1.5953177257525084,  0.0000000000000000
  1.6053511705685619,  0.0000000000000000
  1.6153846153846154,  0.0000000000000000
  1.6254180602006689,  0.0000000000000000
  1.6354515050167224,  0.0000000000000000
  1.6454849498327759,  0.0000000000000000
  1.6555183946488294,  0.0000000000000000
  1.6655518394648829,  0.0000000000000000
  1.6755852842809364,  0.0000000000000000
  1.6856187290969900,  0.0000000000000000
  1.6956521739130435,  0.0000000000000000
  1.7056856187290970,  0.0000000000000000
  1.7157190635451505,  0.0000000000000000
  1.7257525083612040,  0.0000000000000000
  1.7357859531772575,  0.0000000000000000
  1.7458193979933110,  0.0000000000000000
  1.7558528428093645,  0.0000000000000000
  1.7658862876254182,  0.0000000000000000
  1.7759197324414717,  0.0000000000000000
  1.7859531772575252,  0.0000000000000000
  1.7959866220735787,  0.0000000000000000
  1.8060200668896322,  0.0000000000000000
  1.8160535117056857,  0.0000000000000000
  1.8260869565217392,  0.0000000000000000
  1.8361204013377928,  0.0000000000000000
  1.8461538461538463,  0.0000000000000000
  1.8561872909698998,  0.0000000000000000
  1.8662207357859533,  0.0000000000000000
  1.8762541806020068,  0.0000000000000000
  1.8862876254180603,  0.0000000000000000
  1.8963210702341138,  0.0000000000000000
  1.9063545150501673,  0.0000000000000000
  1.9163879598662208,  0.0000000000000000
  1.9264214046822743,  0.0000000000000000
  1.9364548494983278,  0.0000000000000000
  1.9464882943143813,  0.0000000000000000
  1.9565217391304348,  0.0000000000000000
  1.9665551839464883,  0.0000000000000000
  1.9765886287625418,  0.0000000000000000
  1.9866220735785953,  0.0000000000000000
  1.9966555183946488,  0.0000000000000000
  2.0066889632107023,  0.0000000000000000
  2.0167224080267561,  0.0000000000000000
  2.0267558528428093,  0.0000000000000000
  2.0367892976588631,  0.0000000000000000
  2.0468227424749164,  0.0000000000000000
  2.0568561872909701,  0.0000000000000000
  2.0668896321070234,  0.0000000000000000
  2.0769230769230771,  0.0000000000000000
  2.0869565217391304,  0.0000000000000000
  2.0969899665551841,  0.0000000000000000
  2.1070234113712374,  0.0000000000000000
  2.1170568561872911,  0.0000000000000000
  2.1270903010033444,  0.0000000000000000
  2.1371237458193981,  0.0000000000000000
  2.1471571906354514,  0.0000000000000000
  2.1571906354515051,  0.0000000000000000
  2.1672240802675584,  0.0000000000000000
  2.1772575250836121,  0.0000000000000000
  2.1872909698996654,  0.0000000000000000
  2.1973244147157192,  0.0000000000000000
  2.2073578595317724,  0.0000000000000000
  2.2173913043478262,  0.0000000000000000
  2.2274247491638794,  0.0000000000000000
  2.2374581939799332,  0.0000000000000000
  2.2474916387959869,  0.0000000000000000
  2.2575250836120402,  0.0000000000000000
  2.2675585284280939,  0.0000000000000000
  2.2775919732441472,  0.0000000000000000
  2.2876254180602009,  0.0000000000000000
  2.2976588628762542,  0.0000000000000000
  2.3076923076923079,  0.0000000000000000
  2.3177257525083612,  0.0000000000000000
  2.3277591973244149,  0.0000000000000000
  2.3377926421404682,  0.0000000000000000
  2.3478260869565220,  0.0000000000000000
  2.3578595317725752,  0.0000000000000000
  2.3678929765886290,  0.0000000000000000
  2.3779264214046822,  0.0000000000000000
  2.3879598662207360,  0.0000000000000000
  2.3979933110367893,  0.0000000000000000
  2.4080267558528430,  0.0000000000000000
  2.4180602006688963,  0.0000000000000000
  2.4280936454849500,  0.0000000000000000
  2.4381270903010033,  0.0000000000000000
  2.4481605351170570,  0.0000000000000000
  2.4581939799331103,  0.0000000000000000
  2.4682274247491640,  0.0000000000000000
  2.4782608695652173,  0.0000000000000000
  2.4882943143812710,  0.0000000000000000
  2.4983277591973243,  0.0000000000000000
  2.5083612040133780,  0.0000000000000000
  2.5183946488294313,  0.0000000000000000
  2.5284280936454850,  0.0000000000000000
  2.5384615384615383,  0.0000000000000000
  2.5484949832775921,  0.0000000000000000
  2.5585284280936453,  0.0000000000000000
  2.5685618729096991,  0.0000000000000000
  2.5785953177257528,  0.0000000000000000
  2.5886287625418061,  0.0000000000000000
  2.5986622073578598,  0.0000000000000000
  2.6086956521739131,  0.0000000000000000
  2.6187290969899668,  0.0000000000000000
  2.6287625418060201,  0.0000000000000000
  2.6387959866220738,  0.0000000000000000
  2.6488294314381271,  0.0000000000000000
  2.6588628762541808,  0.0000000000000000
  2.6688963210702341,  0.0000000000000000
  2.6789297658862878,  0.0000000000000000
  2.6889632107023411,  0.0000000000000000
  2.6989966555183948,  0.0000000000000000
  2.7090301003344481,  0.0000000000000000
  2.7190635451505019,  0.0000000000000000
  2.7290969899665551,  0.0000000000000000
  2.7391304347826089,  0.0000000000000000
  2.7491638795986622,  0.0000000000000000
  2.7591973244147159,  0.0000000000000000
  2.7692307692307692,  0.0000000000000000
  2.7792642140468229,  0.0000000000000000
  2.7892976588628762,  0.0000000000000000
  2.7993311036789299,  0.0000000000000000
  2.8093645484949832,  0.0000000000000000
  2.8193979933110369,  0.0000000000000000
  2.8294314381270902,  0.0000000000000000
  2.8394648829431439,  0.0000000000000000
  2.8494983277591972,  0.0000000000000000
  2.8595317725752509,  0.0000000000000000
  2.8695652173913042,  0.0000000000000000
  2.8795986622073579,  0.0000000000000000
  2.8896321070234112,  0.0000000000000000
  2.8996655518394649,  0.0000000000000000
  2.9096989966555187,  0.0000000000000000
  2.9197324414715720,  0.0000000000000000
  2.9297658862876257,  0.0000000000000000
  2.9397993311036790,  0.0000000000000000
  2.9498327759197327,  0.0000000000000000
  2.9598662207357860,  0.0000000000000000
  2.9698996655518397,  0.0000000000000000
  2.9799331103678930,  0.0000000000000000
  2.9899665551839467,  0.0000000000000000
  3.0000000000000000,  0.0000000000000000
  0.0000000000000000,  0.0204081632653061
  0.0100334448160535,  0.0204081632653061
  0.0200668896321070,  0.0204081632653061
  0.0301003344481605,  0.0204081632653061
  0.0401337792642140,  0.0204081632653061
  0.0501672240802676,  0.0204081632653061
  0.0602006688963211,  0.0204081632653061
  0.0702341137123746,  0.0204081632653061
  0.0802675585284281,  0.0204081632653061
  0.0903010033444816,  0.0204081632653061
  0.1003344481605351,  0.0202648112414851
  0.1103678929765886,  0.0194295611221077
  0.1204013377926421,  0.0184825267899802
  0.1304347826086957,  0.0175354924578527
  0.1404682274247492,  0.0165884581257252
  0.1505016722408027,  0.0156414237935977
  0.1605351170568562,  0.0146943894614702
  0.1705685618729097,  0.0137473551293427
  0.1806020066889632,  0.0128003207972152
  0.1906354515050167,  0.0118532864650877
  0.2006688963210702,  0.0109062521329602
  0.2107023411371237,  0.0099592178008327
  0.2207357859531773,  0.0090121834687052
  0.2307692307692308,  0.0080651491365777
  0.2408026755852843,  0.0071181148044502
  0.2508361204013378,  0.0061710804723227
  0.2608695652173913,  0.0052240461401952
  0.2709030100334448,  0.0042770118080677
  0.2809364548494984,  0.0033299774759402
  0.2909698996655519,  0.0023829431438127
  0.3010033444816054,  0.0015306122448980
  0.3110367892976589,  0.0015306122448980
  0.3210702341137124,  0.0015306122448980
  0.3311036789297659,  0.0015306122448980
  0.3411371237458194,  0.0015306122448980
  0.3511705685618729,  0.0015306122448980
  0.3612040133779264,  0.0015306122448980
  0.3712374581939800,  0.0015306122448980
  0.3812709030100335,  0.0015306122448980
  0.3913043478260870,  0.0015306122448980
  0.4013377926421405,  0.0015612675992442
  0.4113712374581940,  0.0016949923782222
  0.4214046822742475,  0.0018400336723318
  0.4314381270903010,  0.0019850749664414
  0.4414715719063546,  0.0021301162605511
  0.4515050167224081,  0.0022751575546607
  0.4615384615384616,  0.0024201988487703
  0.4715719063545151,  0.0025652401428799
  0.4816053511705686,  0.0027102814369895
  0.4916387959866221,  0.0028553227310991
  0.5016722408026756,  0.0030003640252087
  0.5117056856187291,  0.0031454053193184
  0.5217391304347826,  0.0032904466134280
  0.5317725752508361,  0.0034354879075376
  0.5418060200668896,  0.0035805292016472
  0.5518394648829431,  0.0037255704957568
  0.5618729096989967,  0.0038706117898664
  0.5719063545150502,  0.0040156530839761
  0.5819397993311037,  0.0041606943780857
  0.5919732441471572,  0.0043057356721953
  0.6020066889632108,  0.0044507769663049
  0.6120401337792643,  0.0045958182604145
  0.6220735785953178,  0.0047408595545242
  0.6321070234113713,  0.0048859008486338
  0.6421404682274248,  0.0050309421427434
  0.6521739130434783,  0.0051759834368530
  0.6622073578595318,  0.0053210247309626
  0.6722408026755853,  0.0054660660250722
  0.6822742474916388,  0.0056111073191818
  0.6923076923076923,  0.0057561486132915
  0.7023411371237458,  0.0059011899074011
  0.7123745819397993,  0.0060462312015107
  0.7224080267558528,  0.0061912724956203
  0.7324414715719064,  0.0063363137897299
  0.7424749163879599,  0.0064813550838396
  0.7525083612040134,  0.0066263963779492
  0.7625418060200669,  0.0067714376720588
  0.7725752508361204,  0.0069164789661684
  0.7826086956521740,  0.0070615202602780
  0.7926421404682275,  0.0072065615543877
  0.8026755852842810,  0.0073516028484973
  0.8127090301003345,  0.0074966441426069
  0.8227424749163880,  0.0076416854367165
  0.8327759197324415,  0.0077867267308261
  0.8428093645484950,  0.0079317680249357
  0.8528428093645485,  0.0080768093190453
  0.8628762541806020,  0.0082218506131549
  0.8729096989966555,  0.0083668919072646
  0.8829431438127091,  0.0085119332013742
  0.8929765886287626,  0.0086569744954838
  0.9030100334448161,  0.0088020157895934
  0.9130434782608696,  0.0089470570837030
  0.9230769230769231,  0.0090920983778127
  0.9331103678929766,  0.0092371396719223
  0.9431438127090301,  0.0093821809660319
  0.9531772575250836,  0.0095272222601415
  0.9632107023411372,  0.0096722635542511
  0.9732441471571907,  0.0098173048483608
  0.9832775919732442,  0.0099623461424704
  0.9933110367892977,  0.0101073874365800
  1.0033444816053512,  0.0102008843295765
  1.0133779264214047,  0.0102040816326531
  1.0234113712374582,  0.0102040816326531
  1.0334448160535117,  0.0102040816326531
  1.0434782608695652,  0.0102040816326531
  1.0535117056856187,  0.0102040816326531
  1.0635451505016722,  0.0102040816326531
  1.0735785953177257,  0.0102040816326531
  1.0836120401337792,  0.0102040816326531
  1.0936454849498327,  0.0102040816326531
  1.1036789297658862,  0.0102040816326531
  1.1137123745819397,  0.0102040816326531
  1.1237458193979935,  0.0102040816326531
  1.1337792642140470,  0.0102040816326531
  1.1438127090301005,  0.0102040816326531
  1.1538461538461540,  0.0102040816326531
  1.1638795986622075,  0.0102040816326531
  1.1739130434782610,  0.0102040816326531
  1.1839464882943145,  0.0102040816326531
  1.1939799331103680,  0.0102040816326531
  1.2040133779264215,  0.0102040816326531
  1.2140468227424750,  0.0102040816326531
  1.2240802675585285,  0.0102040816326531
  1.2341137123745820,  0.0102040816326531
  1.2441471571906355,  0.0102040816326531
  1.2541806020066890,  0.0102040816326531
  1.2642140468227425,  0.0102040816326531
  1.2742474916387960,  0.0102040816326531
  1.2842809364548495,  0.0102040816326531
  1.2943143812709030,  0.0102040816326531
  1.3043478260869565,  0.0102040816326531
  1.3143812709030100,  0.0102040816326531
  1.3244147157190636,  0.0102040816326531
  1.3344481605351171,  0.0102040816326531
  1.3444816053511706,  0.0102040816326531
  1.3545150501672241,  0.0102040816326531
  1.3645484949832776,  0.0102040816326531
  1.3745819397993311,  0.0102040816326531
  1.3846153846153846,  0.0102040816326531
  1.3946488294314381,  0.0102040816326531
  1.4046822742474916,  0.0102040816326531
  1.4147157190635451,  0.0102040816326531
  1.4247491638795986,  0.0102040816326531
  1.4347826086956521,  0.0102040816326531
  1.4448160535117056,  0.0102040816326531
  1.4548494983277593,  0.0102040816326531
  1.4648829431438128,  0.0102040816326531
  1.4749163879598663,  0.0102040816326531
  1.4849498327759199,  0.0102040816326531
  1.4949832775919734,  0.0102040816326531
  1.5050167224080269,  0.0102040816326531
  1.5150501672240804,  0.0102040816326531
  1.5250836120401339,  0.0102040816326531
  1.5351170568561874,  0.0102040816326531
  1.5451505016722409,  0.0102040816326531
  1.5551839464882944,  0.0102040816326531
  1.5652173913043479,  0.0102040816326531
  1.5752508361204014,  0.0102040816326531
  1.5852842809364549,  0.0102040816326531
  1.5953177257525084,  0.0102040816326531
  1.6053511705685619,  0.0102040816326531
  1.6153846153846154,  0.0102040816326531
  1.6254180602006689,  0.0102040816326531
  1.6354515050167224,  0.0102040816326531
  1.6454849498327759,  0.0102040816326531
  1.6555183946488294,  0.0102040816326531
  1.6655518394648829,  0.0102040816326531
  1.6755852842809364,  0.0102040816326531
  1.6856187290969900,  0.0102040816326531
  1.6956521739130435,  0.0102040816326531
  1.7056856187290970,  0.0102040816326531
  1.7157190635451505,  0.0102040816326531
  1.7257525083612040,  0.0102040816326531
  1.7357859531772575,  0.0102040816326531
  1.7458193979933110,  0.0102040816326531
  1.7558528428093645,  0.0102040816326531
  1.7658862876254182,  0.0102040816326531
  1.7759197324414717,  0.0102040816326531
  1.7859531772575252,  0.0102040816326531
  1.7959866220735787,  0.0102040816326531
  1.8060200668896322,  0.0102040816326531
  1.8160535117056857,  0.0102040816326531
  1.8260869565217392,  0.0102040816326531
  1.8361204013377928,  0.0102040816326531
  1.8461538461538463,  0.0102040816326531
  1.8561872909698998,  0.0102040816326531
  1.8662207357859533,  0.0102040816326531
  1.8762541806020068,  0.0102040816326531
  1.8862876254180603,  0.0102040816326531
  1.8963210702341138,  0.0102040816326531
  1.9063545150501673,  0.0102040816326531
  1.9163879598662208,  0.0102040816326531
  1.9264214046822743,  0.0102040816326531
  1.9364548494983278,  0.0102040816326531
  1.9464882943143813,  0.0102040816326531
  1.9565217391304348,  0.0102040816326531
  1.9665551839464883,  0.0102040816326531
  1.9765886287625418,  0.0102040816326531
  1.9866220735785953,  0.0102040816326531
  1.9966555183946488,  0.0102017563213247
  2.0066889632107023,  0.0101337585809636
  2.0167224080267561,  0.0100282740034293
  2.0267558528428093,  0.0099227894258950
  2.0367892976588631,  0.0098173048483608
  2.0468227424749164,  0.0097118202708265
  2.0568561872909701,  0.0096063356932922
  2.0668896321070234,  0.0095008511157579
  2.0769230769230771,  0.0093953665382237
  2.0869565217391304,  0.0092898819606894
  2.0969899665551841,  0.0091843973831552
  2.1070234113712374,  0.0090789128056209
  2.1170568561872911,  0.0089734282280866
  2.1270903010033444,  0.0088679436505523
  2.1371237458193981,  0.0087624590730181
  2.1471571906354514,  0.0086569744954838
  2.1571906354515051,  0.0085514899179495
  2.1672240802675584,  0.0084460053404153
  2.1772575250836121,  0.0083405207628810
  2.1872909698996654,  0.0082350361853467
  2.1973244147157192,  0.0081295516078125
  2.2073578595317724,  0.0080240670302782
  2.2173913043478262,  0.0079185824527440
  2.2274247491638794,  0.0078130978752097
  2.2374581939799332,  0.0077076132976754
  2.2474916387959869,  0.0076021287201412
  2.2575250836120402,  0.0074966441426069
  2.2675585284280939,  0.0073911595650726
  2.2775919732441472,  0.0072856749875384
  2.2876254180602009,  0.0071801904100041
  2.2976588628762542,  0.0070747058324699
  2.3076923076923079,  0.0069692212549356
  2.3177257525083612,  0.0068637366774013
  2.3277591973244149,  0.0067634065399783
  2.3377926421404682,  0.0067346938775510
  2.3478260869565220,  0.0067346938775510
  2.3578595317725752,  0.0067346938775510
  2.3678929765886290,  0.0067346938775510
  2.3779264214046822,  0.0067346938775510
  2.3879598662207360,  0.0067346938775510
  2.3979933110367893,  0.0067346938775510
  2.4080267558528430,  0.0067346938775510
  2.4180602006688963,  0.0067346938775510
  2.4280936454849500,  0.0067346938775510
  2.4381270903010033,  0.0067346938775510
  2.4481605351170570,  0.0067346938775510
  2.4581939799331103,  0.0067346938775510
  2.4682274247491640,  0.0067346938775510
  2.4782608695652173,  0.0067346938775510
  2.4882943143812710,  0.0067346938775510
  2.4983277591973243,  0.0067346938775510
  2.5083612040133780,  0.0067346938775510
  2.5183946488294313,  0.0067346938775510
  2.5284280936454850,  0.0067346938775510
  2.5384615384615383,  0.0067346938775510
  2.5484949832775921,  0.0067346938775510
  2.5585284280936453,  0.0067346938775510
  2.5685618729096991,  0.0067346938775510
  2.5785953177257528,  0.0067346938775510
  2.5886287625418061,  0.0067346938775510
  2.5986622073578598,  0.0067346938775510
  2.6086956521739131,  0.0067346938775510
  2.6187290969899668,  0.0067346938775510
  2.6287625418060201,  0.0067346938775510
  2.6387959866220738,  0.0067346938775510
  2.6488294314381271,  0.0067346938775510
  2.6588628762541808,  0.0067434356803156
  2.6688963210702341,  0.0068254726639820
  2.6789297658862878,  0.0069278547539417
  2.6889632107023411,  0.0070302368439014
  2.6989966555183948,  0.0071326189338612
  2.7090301003344481,  0.0072350010238209
  2.7190635451505019,  0.0073373831137806
  2.7290969899665551,  0.0074397652037404
  2.7391304347826089,  0.0075421472937001
  2.7491638795986622,  0.0076445293836598
  2.7591973244147159,  0.0077469114736196
  2.7692307692307692,  0.0078492935635793
  2.7792642140468229,  0.0079516756535390
  2.7892976588628762,  0.0080540577434988
  2.7993311036789299,  0.0081564398334584
  2.8093645484949832,  0.0082588219234182
  2.8193979933110369,  0.0083612040133780
  2.8294314381270902,  0.0084635861033376
  2.8394648829431439,  0.0085659681932974
  2.8494983277591972,  0.0086683502832571
  2.8595317725752509,  0.0087707323732168
  2.8695652173913042,  0.0088731144631766
  2.8795986622073579,  0.0089754965531363
  2.8896321070234112,  0.0090778786430960
  2.8996655518394649,  0.0091802607330558
  2.9096989966555187,  0.0092826428230155
  2.9197324414715720,  0.0093850249129752
  2.9297658862876257,  0.0094874070029349
  2.9397993311036790,  0.0095897890928947
  2.9498327759197327,  0.0096921711828544
  2.9598662207357860,  0.0097945532728141
  2.9698996655518397,  0.0098969353627739
  2.9799331103678930,  0.0099993174527336
  2.9899665551839467,  0.0101016995426933
  3.0000000000000000,  0.0102040816326531
  0.0000000000000000,  0.0408163265306122
  0.0100334448160535,  0.0408163265306122
  0.0200668896321070,  0.0408163265306122
  0.0301003344481605,  0.0408163265306122
  0.0401337792642140,  0.0408163265306122
  0.0501672240802676,  0.0408163265306122
  0.0602006688963211,  0.0408163265306122
  0.0702341137123746,  0.0408163265306122
  0.0802675585284281,  0.0408163265306122
  0.0903010033444816,  0.0408163265306122
  0.1003344481605351,  0.0405296224829702
  0.1103678929765886,  0.0388591222442154
  0.1204013377926421,  0.0369650535799604
  0.1304347826086957,  0.0350709849157054
  0.1404682274247492,  0.0331769162514504
  0.1505016722408027,  0.0312828475871955
  0.1605351170568562,  0.0293887789229404
  0.1705685618729097,  0.0274947102586854
  0.1806020066889632,  0.0256006415944305
  0.1906354515050167,  0.0237065729301754
  0.2006688963210702,  0.0218125042659204
  0.2107023411371237,  0.0199184356016655
  0.2207357859531773,  0.0180243669374104
  0.2307692307692308,  0.0161302982731554
  0.2408026755852843,  0.0142362296089005
  0.2508361204013378,  0.0123421609446454
  0.2608695652173913,  0.0104480922803904
  0.2709030100334448,  0.0085540236161355
  0.2809364548494984,  0.0066599549518804
  0.2909698996655519,  0.0047658862876253
  0.3010033444816054,  0.0030612244897959
  0.3110367892976589,  0.0030612244897959
  0.3210702341137124,  0.0030612244897959
  0.3311036789297659,  0.0030612244897959
  0.3411371237458194,  0.0030612244897959
  0.3511705685618729,  0.0030612244897959
  0.3612040133779264,  0.0030612244897959
  0.3712374581939800,  0.0030612244897959
  0.3812709030100335,  0.0030612244897959
  0.3913043478260870,  0.0030612244897959
  0.4013377926421405,  0.0031225351984883
  0.4113712374581940,  0.0033899847564444
  0.4214046822742475,  0.0036800673446636
  0.4314381270903010,  0.0039701499328828
  0.4414715719063546,  0.0042602325211021
  0.4515050167224081,  0.0045503151093213
  0.4615384615384616,  0.0048403976975405
  0.4715719063545151,  0.0051304802857598
  0.4816053511705686,  0.0054205628739791
  0.4916387959866221,  0.0057106454621983
  0.5016722408026756,  0.0060007280504175
  0.5117056856187291,  0.0062908106386367
  0.5217391304347826,  0.0065808932268559
  0.5317725752508361,  0.0068709758150752
  0.5418060200668896,  0.0071610584032944
  0.5518394648829431,  0.0074511409915136
  0.5618729096989967,  0.0077412235797329
  0.5719063545150502,  0.0080313061679522
  0.5819397993311037,  0.0083213887561714
  0.5919732441471572,  0.0086114713443906
  0.6020066889632108,  0.0089015539326098
  0.6120401337792643,  0.0091916365208291
  0.6220735785953178,  0.0094817191090483
  0.6321070234113713,  0.0097718016972675
  0.6421404682274248,  0.0100618842854868
  0.6521739130434783,  0.0103519668737060
  0.6622073578595318,  0.0106420494619253
  0.6722408026755853,  0.0109321320501445
  0.6822742474916388,  0.0112222146383637
  0.6923076923076923,  0.0115122972265829
  0.7023411371237458,  0.0118023798148022
  0.7123745819397993,  0.0120924624030214
  0.7224080267558528,  0.0123825449912406
  0.7324414715719064,  0.0126726275794599
  0.7424749163879599,  0.0129627101676791
  0.7525083612040134,  0.0132527927558984
  0.7625418060200669,  0.0135428753441176
  0.7725752508361204,  0.0138329579323368
  0.7826086956521740,  0.0141230405205560
  0.7926421404682275,  0.0144131231087753
  0.8026755852842810,  0.0147032056969945
  0.8127090301003345,  0.0149932882852137
  0.8227424749163880,  0.0152833708734330
  0.8327759197324415,  0.0155734534616522
  0.8428093645484950,  0.0158635360498715
  0.8528428093645485,  0.0161536186380907
  0.8628762541806020,  0.0164437012263099
  0.8729096989966555,  0.0167337838145291
  0.8829431438127091,  0.0170238664027484
  0.8929765886287626,  0.0173139489909676
  0.9030100334448161,  0.0176040315791869
  0.9130434782608696,  0.0178941141674061
  0.9230769230769231,  0.0181841967556253
  0.9331103678929766,  0.0184742793438446
  0.9431438127090301,  0.0187643619320638
  0.9531772575250836,  0.0190544445202830
  0.9632107023411372,  0.0193445271085022
  0.9732441471571907,  0.0196346096967215
  0.9832775919732442,  0.0199246922849407
  0.9933110367892977,  0.0202147748731600
  1.0033444816053512,  0.0204017686591530
  1.0133779264214047,  0.0204081632653061
  1.0234113712374582,  0.0204081632653061
  1.0334448160535117,  0.0204081632653061
  1.0434782608695652,  0.0204081632653061
  1.0535117056856187,  0.0204081632653061
  1.0635451505016722,  0.0204081632653061
  1.0735785953177257,  0.0204081632653061
  1.0836120401337792,  0.0204081632653061
  1.0936454849498327,  0.0204081632653061
  1.1036789297658862,  0.0204081632653061
  1.1137123745819397,  0.0204081632653061