TITLE = "Final State"
VARIABLES = "X", "Y", "rho", "u", "v", "T", "p", "c", "M"
ZONE I=48, J=48, DATAPACKING=POINT
2.6490109999999998e+00,	 4.6895189999999998e-01,	 1.7097394223641860e-02,	 7.5647462695467539e+02,	 5.4000568139717814e+01,	 5.2095512698729397e+02,	 2.5624782010096187e+03,	 4.3799596720662794e+02,	 1.7315218324963118e+00 
2.6564790000000000e+00,	 4.6894859999999999e-01,	 1.7048872896166588e-02,	 7.5713671169560644e+02,	 5.4205820071775548e+01,	 5.2049221476143566e+02,	 2.5529355349362772e+03,	 4.3780132592322553e+02,	 1.7338335223000034e+00 
2.6639469999999998e+00,	 4.6894540000000001e-01,	 1.6992166167660638e-02,	 7.5798934481858009e+02,	 5.4426410073048061e+01,	 5.1994194660989353e+02,	 2.5417541404810645e+03,	 4.3756984135375495e+02,	 1.7367303882074112e+00 
2.6714150000000001e+00,	 4.6894219999999998e-01,	 1.6935379105620395e-02,	 7.5883288072832988e+02,	 5.4644169047782540e+01,	 5.1939053775907189e+02,	 2.5305731387473420e+03,	 4.3733775401262994e+02,	 1.7396115818998446e+00 
2.6788829999999999e+00,	 4.6893889999999999e-01,	 1.6878128587002720e-02,	 7.5964356510301309e+02,	 5.4857766111269676e+01,	 5.1883311649339453e+02,	 2.5193117808045768e+03,	 4.3710301079954098e+02,	 1.7424308484751070e+00 
2.6863510000000002e+00,	 4.6893570000000001e-01,	 1.6820191681820043e-02,	 7.6043309451337825e+02,	 5.5074254068655407e+01,	 5.1826608821868444e+02,	 2.5079199527728802e+03,	 4.3686409243306150e+02,	 1.7452220761488666e+00 
2.6938190000000000e+00,	 4.6893249999999997e-01,	 1.6762000471828131e-02,	 7.6121429016576508e+02,	 5.5287118093784777e+01,	 5.1769513584807282e+02,	 2.4964902282293942e+03,	 4.3662338854654035e+02,	 1.7480039447086000e+00 
2.7012870000000002e+00,	 4.6892919999999999e-01,	 1.6703698601268961e-02,	 7.6198199188602371e+02,	 5.5495631545879405e+01,	 5.1712193474528135e+02,	 2.4850523508623296e+03,	 4.3638160307713446e+02,	 1.7507617295116318e+00 
2.7087539999999999e+00,	 4.6892600000000001e-01,	 1.6645390936081916e-02,	 7.6274037457782606e+02,	 5.5700527464284832e+01,	 5.1654782131171169e+02,	 2.4736284721058014e+03,	 4.3613929841149468e+02,	 1.7535028145248583e+00 
2.7162220000000001e+00,	 4.6892270000000003e-01,	 1.6587242234851043e-02,	 7.6349680106519827e+02,	 5.5902160845840584e+01,	 5.1597508563266149e+02,	 2.4622540262138896e+03,	 4.3589744102064424e+02,	 1.7562401892112260e+00 
2.7236899999999999e+00,	 4.6891939999999999e-01,	 1.6529419468380172e-02,	 7.6425654038546395e+02,	 5.6098586579961172e+01,	 5.1540578898391823e+02,	 2.4509634258054207e+03,	 4.3565690281737278e+02,	 1.7589820494734902e+00 
2.7311580000000002e+00,	 4.6891620000000001e-01,	 1.6471990985854647e-02,	 7.6502351813236021e+02,	 5.6291343362515555e+01,	 5.1484093043889152e+02,	 2.4397711972103807e+03,	 4.3541810846298085e+02,	 1.7617359032775397e+00 
2.7386260000000000e+00,	 4.6891290000000002e-01,	 1.6415086241924635e-02,	 7.6579966590307936e+02,	 5.6478929741649438e+01,	 5.1428205337165821e+02,	 2.4287033703135148e+03,	 4.3518171382456461e+02,	 1.7645032454747085e+00 
2.7460939999999998e+00,	 4.6890959999999998e-01,	 1.6358936116219594e-02,	 7.6659177367183941e+02,	 5.6660799016466932e+01,	 5.1373156222956504e+02,	 2.4178048381083395e+03,	 4.3494874067385155e+02,	 1.7672953694749567e+00 
2.7535620000000001e+00,	 4.6890630000000000e-01,	 1.6302876955397803e-02,	 7.6738239015799672e+02,	 5.6844580111623927e+01,	 5.1318089882305730e+02,	 2.4069367131834551e+03,	 4.3471556970540968e+02,	 1.7700882407099761e+00 
2.7610299999999999e+00,	 4.6890300000000001e-01,	 1.6245980745009894e-02,	 7.6814734738912534e+02,	 5.7039239854641124e+01,	 5.1261835562849410e+02,	 2.3959073774444973e+03,	 4.3447723918701348e+02,	 1.7728481680751202e+00 
2.7684980000000001e+00,	 4.6889969999999997e-01,	 1.6188702203925268e-02,	 7.6889803648807435e+02,	 5.7240155770620113e+01,	 5.1204952514830779e+02,	 2.3848108524888071e+03,	 4.3423611194958704e+02,	 1.7755909195836921e+00 
2.7759659999999999e+00,	 4.6889639999999999e-01,	 1.6131227041443562e-02,	 7.6963974165182356e+02,	 5.7446722438220490e+01,	 5.1147657504045253e+02,	 2.3736850233287878e+03,	 4.3399310297247808e+02,	 1.7783248178745754e+00 
2.7834340000000002e+00,	 4.6889310000000001e-01,	 1.6073073609764045e-02,	 7.7035794966926824e+02,	 5.7656844542495243e+01,	 5.1089315223611118e+02,	 2.3624300204500678e+03,	 4.3374551224085138e+02,	 1.7810272513800449e+00 
2.7909020000000000e+00,	 4.6888970000000002e-01,	 1.6014399997024316e-02,	 7.7105803501318837e+02,	 5.7865504407605826e+01,	 5.1030124640156600e+02,	 2.3510790867686210e+03,	 4.3349417700252098e+02,	 1.7837063110414659e+00 
2.7983690000000001e+00,	 4.6888639999999998e-01,	 1.5955500305580891e-02,	 7.7174806978677452e+02,	 5.8069052401173934e+01,	 5.0970478403542768e+02,	 2.3396940678430883e+03,	 4.3324075947370568e+02,	 1.7863731188552894e+00 
2.8058369999999999e+00,	 4.6888310000000000e-01,	 1.5896793741833549e-02,	 7.7244046693715416e+02,	 5.8265097867612937e+01,	 5.0910937113929015e+02,	 2.3283623495977313e+03,	 4.3298763990258055e+02,	 1.7890460225662890e+00 
2.8133050000000002e+00,	 4.6887970000000001e-01,	 1.5838789458193267e-02,	 7.7314758316257985e+02,	 5.8449869495868597e+01,	 5.0852169500229297e+02,	 2.3171887388632736e+03,	 4.3273766416886752e+02,	 1.7917410505907552e+00 
2.8207730000000000e+00,	 4.6887630000000002e-01,	 1.5781889976359438e-02,	 7.7387992034401373e+02,	 5.8620849371910623e+01,	 5.0794711170179676e+02,	 2.3062556316602340e+03,	 4.3249311795411006e+02,	 1.7944724574371380e+00 
2.8282409999999998e+00,	 4.6887289999999998e-01,	 1.5726616688079294e-02,	 7.7464976492404662e+02,	 5.8771952665712874e+01,	 5.0739239279793605e+02,	 2.2956685830164151e+03,	 4.3225689489132731e+02,	 1.7972554319733063e+00 
2.8357090000000000e+00,	 4.6886960000000000e-01,	 1.5673114944594627e-02,	 7.7546113308119038e+02,	 5.8901066236679512e+01,	 5.0685935969768775e+02,	 2.2854552746036466e+03,	 4.3202978488678343e+02,	 1.8000954868256767e+00 
2.8431769999999998e+00,	 4.6886620000000001e-01,	 1.5620855227337221e-02,	 7.7629794655624232e+02,	 5.9008390385248106e+01,	 5.0634102562183057e+02,	 2.2755053547895659e+03,	 4.3180882315879018e+02,	 1.8029678039778121e+00 
2.8506450000000001e+00,	 4.6886270000000002e-01,	 1.5568934882054424e-02,	 7.7713561124040257e+02,	 5.9097415771265943e+01,	 5.0582536893507938e+02,	 2.2656323993325627e+03,	 4.3158889052929766e+02,	 1.8058375131260413e+00 
2.8581129999999999e+00,	 4.6885929999999998e-01,	 1.5516629686172258e-02,	 7.7795337040361824e+02,	 5.9169638510930234e+01,	 5.0530252233305646e+02,	 2.2556868053559024e+03,	 4.3136577684131043e+02,	 1.8086745216436273e+00 
2.8655810000000002e+00,	 4.6885589999999999e-01,	 1.5463636125178485e-02,	 7.7874401423446238e+02,	 5.9227971193351060e+01,	 5.0476810949397048e+02,	 2.2456055254899957e+03,	 4.3113760818634353e+02,	 1.8114705513590514e+00 
2.8730490000000000e+00,	 4.6885240000000000e-01,	 1.5409949271321936e-02,	 7.7950747947226796e+02,	 5.9276185729710697e+01,	 5.0422161316750010e+02,	 2.2353863982766802e+03,	 4.3090415551527218e+02,	 1.8142271174439828e+00 
2.8805170000000002e+00,	 4.6884900000000002e-01,	 1.5355605959611981e-02,	 7.8024605973107077e+02,	 5.9323232695019129e+01,	 5.0366323314761837e+02,	 2.2250365306668768e+03,	 4.3066549565367058e+02,	 1.8169508196930202e+00 
2.8879850000000000e+00,	 4.6884550000000003e-01,	 1.5300791211706334e-02,	 7.8096374354134048e+02,	 5.9375835473063376e+01,	 5.0309537072164500e+02,	 2.2145941461119187e+03,	 4.3042264715018490e+02,	 1.8196478202509758e+00 
2.8954529999999998e+00,	 4.6884199999999998e-01,	 1.5245871456739543e-02,	 7.8167082535562281e+02,	 5.9438847224517019e+01,	 5.0252286230965069e+02,	 2.2041341125517997e+03,	 4.3017767299081459e+02,	 1.8223341305265706e+00 
2.9029210000000001e+00,	 4.6883849999999999e-01,	 1.5190949862069699e-02,	 7.8236878295175552e+02,	 5.9515607820401982e+01,	 5.0194722476215628e+02,	 2.1936782292752528e+03,	 4.2993121915397296e+02,	 1.8250110474734167e+00 
2.9103889999999999e+00,	 4.6883500000000000e-01,	 1.5135736565956032e-02,	 7.8304962502749925e+02,	 5.9610915336669848e+01,	 5.0136493136406818e+02,	 2.1831694788354221e+03,	 4.2968177185650444e+02,	 1.8276673276254163e+00 
2.9178560000000000e+00,	 4.6883150000000001e-01,	 1.5080139682048620e-02,	 7.8371044663495718e+02,	 5.9723168757139391e+01,	 5.0077508914522843e+02,	 2.1725912128309174e+03,	 4.2942894300833871e+02,	 1.8302976238877926e+00 
2.9253239999999998e+00,	 4.6882800000000002e-01,	 1.5024291034078183e-02,	 7.8435879108796780e+02,	 5.9848250172834838e+01,	 5.0017987969154603e+02,	 2.1619723875801005e+03,	 4.2917366257670704e+02,	 1.8329147863215420e+00 
2.9327920000000001e+00,	 4.6882449999999998e-01,	 1.4968089905669411e-02,	 7.8500226204507032e+02,	 5.9983201859265037e+01,	 4.9957848527670581e+02,	 2.1512953942884037e+03,	 4.2891557515290003e+02,	 1.8355375171787391e+00 
2.9402599999999999e+00,	 4.6882099999999999e-01,	 1.4910768839815819e-02,	 7.8565757630595056e+02,	 6.0142093982963672e+01,	 4.9896122416373566e+02,	 2.1404090149289791e+03,	 4.2865051696541343e+02,	 1.8382251311402100e+00 
2.9477270000000000e+00,	 4.6881760000000000e-01,	 1.4850080445979342e-02,	 7.8635846432903941e+02,	 6.0401816065701780e+01,	 4.9829635518416399e+02,	 2.1288568254977317e+03,	 4.2836483200514613e+02,	 1.8411288410421052e+00 
2.9551949999999998e+00,	 4.6881420000000001e-01,	 1.4784349478858368e-02,	 7.8706550897571356e+02,	 6.1012334305588084e+01,	 4.9750968453316341e+02,	 2.1160878649011884e+03,	 4.2802656428258354e+02,	 1.8443405919447253e+00 
2.9626630000000000e+00,	 4.6881099999999998e-01,	 1.4729921567551211e-02,	 7.8746205986637870e+02,	 6.1442956856006980e+01,	 4.9683873427049349e+02,	 2.1054542965117353e+03,	 4.2773784485104920e+02,	 1.8465878652203087e+00 
2.9701300000000002e+00,	 4.6880800000000000e-01,	 1.4706959690816554e-02,	 7.8699824204573531e+02,	 6.0955087624282726e+01,	 4.9653426043778700e+02,	 2.1008839313868930e+03,	 4.2760676113024550e+02,	 1.8459840915754748e+00 
2.9775980000000000e+00,	 4.6880529999999998e-01,	 1.4895106954987841e-02,	 7.8273539959597724e+02,	 5.5502143670696597e+01,	 4.9882485360162036e+02,	 2.1375764063657966e+03,	 4.2859193595374938e+02,	 1.8308806989957089e+00 
2.9850650000000001e+00,	 4.6880300000000003e-01,	 1.5617039988607369e-02,	 7.7050364363303061e+02,	 3.6779566818031959e+01,	 5.0791623831762843e+02,	 2.2820268894121546e+03,	 4.3247997413581351e+02,	 1.7836224021037796e+00 
2.9925329999999999e+00,	 4.6880159999999998e-01,	 1.7126305139515990e-02,	 7.4670854856933408e+02,	 3.7041569310865929e+00,	 5.2830008185171607e+02,	 2.6030007487077492e+03,	 4.4107281618614286e+02,	 1.6929579620787627e+00 
3.0000000000000000e+00,	 4.6880149999999998e-01,	 1.7737644284435243e-02,	 7.3668808553754297e+02,	 -2.4211016558884374e+01,	 5.3797967565746103e+02,	 2.7453122465484744e+03,	 4.4509517658467661e+02,	 1.6560184440863668e+00 
2.6490089999999999e+00,	 4.7471910000000000e-01,	 1.7101304121664669e-02,	 7.5733529607944683e+02,	 5.5246780617478635e+01,	 5.2018453911375559e+02,	 2.5592729578757749e+03,	 4.3767190927221043e+02,	 1.7349701964513149e+00 
2.6564770000000002e+00,	 4.7471600000000003e-01,	 1.7053298853253251e-02,	 7.5799615337896716e+02,	 5.5454236873447655e+01,	 5.1972812123079245e+02,	 2.5498495513816265e+03,	 4.3747985711679650e+02,	 1.7372729787175838e+00 
2.6639450000000000e+00,	 4.7471289999999999e-01,	 1.6997344959048307e-02,	 7.5884596851504205e+02,	 5.5683465666982457e+01,	 5.1918721815496565e+02,	 2.5388381636311165e+03,	 4.3725214594288963e+02,	 1.7401543600651892e+00 
2.6714129999999998e+00,	 4.7470980000000002e-01,	 1.6941033631958563e-02,	 7.5968531760185806e+02,	 5.5910358466090983e+01,	 5.1864136861851080e+02,	 2.5277667491831858e+03,	 4.3702223210977718e+02,	 1.7430233362790901e+00 
2.6788810000000001e+00,	 4.7470669999999998e-01,	 1.6884071574602796e-02,	 7.6049336144985409e+02,	 5.6134171084376774e+01,	 5.1808668287868636e+02,	 2.5165731063129429e+03,	 4.3678847246031165e+02,	 1.7458387904072608e+00 
2.6863489999999999e+00,	 4.7470370000000001e-01,	 1.6826403091303489e-02,	 7.6128051152051501e+02,	 5.6360536989904276e+01,	 5.1752225446102841e+02,	 2.5052453004411323e+03,	 4.3655047849318805e+02,	 1.7486270026435589e+00 
2.6938170000000001e+00,	 4.7470059999999997e-01,	 1.6768378723781535e-02,	 7.6205704224778810e+02,	 5.6582865211979069e+01,	 5.1695382620945588e+02,	 2.4938639984364445e+03,	 4.3631066677525996e+02,	 1.7514006803491631e+00 
2.7012849999999999e+00,	 4.7469739999999999e-01,	 1.6710225355298293e-02,	 7.6282038769766143e+02,	 5.6799387661500639e+01,	 5.1638390550464374e+02,	 2.4824753349142170e+03,	 4.3607009301121712e+02,	 1.7541494133912439e+00 
2.7087530000000002e+00,	 4.7469430000000001e-01,	 1.6652180458684961e-02,	 7.6357599331292715e+02,	 5.7011699988008736e+01,	 5.1580953445219234e+02,	 2.4711005177695861e+03,	 4.3582750632100039e+02,	 1.7568909426014065e+00 
2.7162210000000000e+00,	 4.7469119999999998e-01,	 1.6594349149846789e-02,	 7.6432932655626621e+02,	 5.7219383916668363e+01,	 5.1523235947935052e+02,	 2.4597631575365135e+03,	 4.3558359929666773e+02,	 1.7596349361258690e+00 
2.7236889999999998e+00,	 4.7468810000000000e-01,	 1.6536663388239819e-02,	 7.6508571995911711e+02,	 5.7420139210724273e+01,	 5.1466323143953434e+02,	 2.4485048363620372e+03,	 4.3534295899916646e+02,	 1.7623746664543887e+00 
2.7311570000000001e+00,	 4.7468500000000002e-01,	 1.6479293152753080e-02,	 7.6584922123456249e+02,	 5.7615112050791993e+01,	 5.1410201575493579e+02,	 2.4373495846104920e+03,	 4.3510553389925826e+02,	 1.7651197386728643e+00 
2.7386249999999999e+00,	 4.7468179999999999e-01,	 1.6422550591392963e-02,	 7.6662191820766088e+02,	 5.7804938087761464e+01,	 5.1354296295381607e+02,	 2.4263158115484439e+03,	 4.3486889493959495e+02,	 1.7678848648970367e+00 
2.7460930000000001e+00,	 4.7467870000000001e-01,	 1.6366649766347611e-02,	 7.6741235921315320e+02,	 5.7989614184782440e+01,	 5.1299311883438509e+02,	 2.4154678759620206e+03,	 4.3463602820866248e+02,	 1.7706775021282901e+00 
2.7535609999999999e+00,	 4.7467559999999998e-01,	 1.6311037210022788e-02,	 7.6820713526199438e+02,	 5.8174536022229994e+01,	 5.1244845364111234e+02,	 2.4047044268735822e+03,	 4.3440523175379406e+02,	 1.7734747213594164e+00 
2.7610280000000000e+00,	 4.7467239999999999e-01,	 1.6254658626174423e-02,	 7.6897719051884474e+02,	 5.8367981611917642e+01,	 5.1189216722127060e+02,	 2.3937912474499008e+03,	 4.3416938427820725e+02,	 1.7762403363672807e+00 
2.7684959999999998e+00,	 4.7466920000000001e-01,	 1.6197803300943548e-02,	 7.6973028950371281e+02,	 5.8568644444076583e+01,	 5.1132665056423150e+02,	 2.3827829683003001e+03,	 4.3392949208530740e+02,	 1.7789878925174016e+00 
2.7759640000000001e+00,	 4.7466609999999998e-01,	 1.6140761101687735e-02,	 7.7047475004387570e+02,	 5.8775094237949027e+01,	 5.1075693955752780e+02,	 2.3717462527505991e+03,	 4.3368768647400452e+02,	 1.7817275642826791e+00 
2.7834319999999999e+00,	 4.7466290000000000e-01,	 1.6082951244418608e-02,	 7.7119476259145392e+02,	 5.8984394656304097e+01,	 5.1017655111535043e+02,	 2.3605661568820333e+03,	 4.3344121026629585e+02,	 1.7844338494295522e+00 
2.7909000000000002e+00,	 4.7465970000000002e-01,	 1.6024490959936761e-02,	 7.7189404400679359e+02,	 5.9191883017686052e+01,	 5.0958611960404090e+02,	 2.3492637090456165e+03,	 4.3319032512176034e+02,	 1.7871134373939193e+00 
2.7983680000000000e+00,	 4.7465649999999998e-01,	 1.5965725893826419e-02,	 7.7258192037587298e+02,	 5.9394942162599030e+01,	 5.0898967872240382e+02,	 2.3379088886619884e+03,	 4.3293673887182695e+02,	 1.7897803176127103e+00 
2.8058360000000002e+00,	 4.7465330000000000e-01,	 1.5907072049030843e-02,	 7.7327048810904091e+02,	 5.9591929878817993e+01,	 5.0839299075839864e+02,	 2.3265893721694151e+03,	 4.3268289885707662e+02,	 1.7924519568572785e+00 
2.8133040000000000e+00,	 4.7465010000000002e-01,	 1.5849041491438794e-02,	 7.7397278009733327e+02,	 5.9780362691491540e+01,	 5.0780284883113694e+02,	 2.3154108966399340e+03,	 4.3243169706206152e+02,	 1.7951459617013557e+00 
2.8207719999999998e+00,	 4.7464689999999998e-01,	 1.5791995103321625e-02,	 7.7469787584540029e+02,	 5.9957760562963117e+01,	 5.0722400938815952e+02,	 2.3044470877516819e+03,	 4.3218516448060262e+02,	 1.7978743642963086e+00 
2.8282400000000001e+00,	 4.7464370000000000e-01,	 1.5736438972197415e-02,	 7.7545800223696790e+02,	 6.0118289230778501e+01,	 5.0666314922426437e+02,	 2.2938008931920094e+03,	 4.3194615520499150e+02,	 1.8006524011280791e+00 
2.8357079999999999e+00,	 4.7464040000000002e-01,	 1.5682602979334260e-02,	 7.7625840142860682e+02,	 6.0258094634707412e+01,	 5.0612331297743816e+02,	 2.2835179386533955e+03,	 4.3171598024894422e+02,	 1.8034859301430100e+00 
2.8431760000000001e+00,	 4.7463719999999998e-01,	 1.5630026351418053e-02,	 7.7708473381837041e+02,	 6.0375561149045843e+01,	 5.0559851654198610e+02,	 2.2735025136827417e+03,	 4.3149210025497916e+02,	 1.8063520574378304e+00 
2.8506440000000000e+00,	 4.7463390000000000e-01,	 1.5577837913029359e-02,	 7.7791262610845490e+02,	 6.0472059561237188e+01,	 5.0507730583423677e+02,	 2.2635754411662278e+03,	 4.3126963491320066e+02,	 1.8092150715658830e+00 
2.8581120000000002e+00,	 4.7463060000000001e-01,	 1.5525319645939001e-02,	 7.7872185726543103e+02,	 6.0549045207826076e+01,	 5.0454993702240699e+02,	 2.2535886373752560e+03,	 4.3104442428469412e+02,	 1.8120459126996828e+00 
2.8655800000000000e+00,	 4.7462739999999998e-01,	 1.5472208538996382e-02,	 7.7950557605719780e+02,	 6.0609649023587885e+01,	 5.0401253147764481e+02,	 2.2434871296120223e+03,	 4.3081480639947830e+02,	 1.8148362916820360e+00 
2.8730479999999998e+00,	 4.7462409999999999e-01,	 1.5418575175437065e-02,	 7.8026567493738696e+02,	 6.0658764488459099e+01,	 5.0346565735388248e+02,	 2.2332843966850332e+03,	 4.3058101715910385e+02,	 1.8175904964275518e+00 
2.8805160000000001e+00,	 4.7462080000000001e-01,	 1.5364514466758385e-02,	 7.8100531333016647e+02,	 6.0705863730757102e+01,	 5.0291023568520285e+02,	 2.2229989267631036e+03,	 4.3034344383265034e+02,	 1.8203159359386982e+00 
2.8879839999999999e+00,	 4.7461750000000003e-01,	 1.5310152301414554e-02,	 7.8172747952564362e+02,	 6.0759330554015627e+01,	 5.0234775772693285e+02,	 2.2126560855656567e+03,	 4.3010271854537649e+02,	 1.8230183925828887e+00 
2.8954520000000001e+00,	 4.7461409999999998e-01,	 1.5255787925238587e-02,	 7.8244047925773350e+02,	 6.0824266093825941e+01,	 5.0178214070019851e+02,	 2.2023167417748309e+03,	 4.2986051388342332e+02,	 1.8257109667307958e+00 
2.9029199999999999e+00,	 4.7461080000000000e-01,	 1.5201512122038224e-02,	 7.8314617429201212e+02,	 6.0903340105634108e+01,	 5.0121472426993199e+02,	 2.1919999932581977e+03,	 4.2961740149360037e+02,	 1.8283960399578412e+00 
2.9103880000000002e+00,	 4.7460740000000001e-01,	 1.5146970686969496e-02,	 7.8383544840214813e+02,	 6.0999631707487929e+01,	 5.0064109643617417e+02,	 2.1816356378487635e+03,	 4.2937148787707400e+02,	 1.8310610834215777e+00 
2.9178560000000000e+00,	 4.7460409999999997e-01,	 1.5091901630535341e-02,	 7.8450386480724273e+02,	 6.1112196666627007e+01,	 5.0005800667472550e+02,	 2.1711722952468231e+03,	 4.2912137351268319e+02,	 1.8337016233405738e+00 
2.9253239999999998e+00,	 4.7460069999999999e-01,	 1.5036202061142374e-02,	 7.8515997645224161e+02,	 6.1241082678347205e+01,	 4.9946432798920665e+02,	 2.1605910207218731e+03,	 4.2886656720166121e+02,	 1.8363396985897675e+00 
2.9327920000000001e+00,	 4.7459740000000000e-01,	 1.4979231635128697e-02,	 7.8581856385883464e+02,	 6.1399168914504116e+01,	 4.9885138608897967e+02,	 2.1497633638416683e+03,	 4.2860333420188294e+02,	 1.8390281486648978e+00 
2.9402590000000002e+00,	 4.7459410000000002e-01,	 1.4919087370385199e-02,	 7.8650853036997034e+02,	 6.1639223779375641e+01,	 4.9819175103501516e+02,	 2.1383004486374703e+03,	 4.2831986770813648e+02,	 1.8418949177546386e+00 
2.9477270000000000e+00,	 4.7459079999999998e-01,	 1.4853419109237591e-02,	 7.8722914869961028e+02,	 6.2105999973690373e+01,	 4.9744826936841815e+02,	 2.1257113782420761e+03,	 4.2800014456243662e+02,	 1.8450348409798689e+00 
2.9551949999999998e+00,	 4.7458760000000000e-01,	 1.4795240556484388e-02,	 7.8772670909705312e+02,	 6.2373175585497499e+01,	 4.9680140496610977e+02,	 2.1146319204027754e+03,	 4.2772177579781879e+02,	 1.8474445023378658e+00 
2.9626630000000000e+00,	 4.7458450000000002e-01,	 1.4784982754580202e-02,	 7.8731238221953572e+02,	 6.1525800537593895e+01,	 4.9674584385614946e+02,	 2.1129294771655573e+03,	 4.2769785742634872e+02,	 1.8464266912743810e+00 
2.9701300000000002e+00,	 4.7458159999999999e-01,	 1.4965324084659027e-02,	 7.8380956861797381e+02,	 5.5707768243923837e+01,	 4.9931008463376804e+02,	 2.1497422964983302e+03,	 4.2880034132475822e+02,	 1.8325235798509742e+00 
2.9775980000000000e+00,	 4.7457899999999997e-01,	 1.5620878515644577e-02,	 7.7319396538019851e+02,	 3.7329797456041504e+01,	 5.0852755391509174e+02,	 2.2853350579586186e+03,	 4.3274015704671450e+02,	 1.7888207724486984e+00 
2.9850650000000001e+00,	 4.7457690000000002e-01,	 1.6856677111846234e-02,	 7.5432879651909002e+02,	 6.0329546553235431e+00,	 5.2514388502698898e+02,	 2.5467142492609155e+03,	 4.3975330279668668e+02,	 1.7154002402108024e+00 
2.9925329999999999e+00,	 4.7457549999999998e-01,	 1.8360289654596330e-02,	 7.3228282713103636e+02,	 -2.4810838392718289e+01,	 5.4353329909378454e+02,	 2.8710160594407130e+03,	 4.4738666121837036e+02,	 1.6377399781037383e+00 
3.0000000000000000e+00,	 4.7457539999999998e-01,	 1.9001959597566159e-02,	 7.2333112808458282e+02,	 -4.3820745518107572e+01,	 5.5087568047584568e+02,	 3.0114934838903473e+03,	 4.5039831132738772e+02,	 1.6089254007384779e+00 
2.6490070000000001e+00,	 4.8048649999999998e-01,	 1.7111093924552387e-02,	 7.5869252520097803e+02,	 5.6638350092820872e+01,	 5.1911907929667427e+02,	 2.5554930463351734e+03,	 4.3722345220912717e+02,	 1.7400797770160839e+00 
2.6564749999999999e+00,	 4.8048360000000001e-01,	 1.7063480969350057e-02,	 7.5935358781915374e+02,	 5.6848583486507863e+01,	 5.1866960369498190e+02,	 2.5461756885690202e+03,	 4.3703412779430442e+02,	 1.7423778484136538e+00 
2.6639430000000002e+00,	 4.8048059999999998e-01,	 1.7008085301046610e-02,	 7.6019839971445731e+02,	 5.7086423891598741e+01,	 5.1813803154942127e+02,	 2.5353086235946548e+03,	 4.3681011744028086e+02,	 1.7452407422872669e+00 
2.6714110000000000e+00,	 4.8047770000000001e-01,	 1.6952307108120453e-02,	 7.6102872796783993e+02,	 5.7325254761294637e+01,	 5.1760123555740051e+02,	 2.5243760623705280e+03,	 4.3658378906071783e+02,	 1.7480830355945951e+00 
2.6788789999999998e+00,	 4.8047469999999998e-01,	 1.6895705454958415e-02,	 7.6182958343957739e+02,	 5.7562184804379044e+01,	 5.1705343474250799e+02,	 2.5132847423539883e+03,	 4.3635269970929636e+02,	 1.7508797945324033e+00 
2.6863470000000000e+00,	 4.8047180000000000e-01,	 1.6838224396526071e-02,	 7.6260905538416387e+02,	 5.7797553217189616e+01,	 5.1649432438526344e+02,	 2.5020258013519633e+03,	 4.3611671316852022e+02,	 1.7536501403617590e+00 
2.6938149999999998e+00,	 4.8046879999999997e-01,	 1.6780205215069233e-02,	 7.6337446097316865e+02,	 5.8026966534928974e+01,	 5.1593046510945055e+02,	 2.4906825523854463e+03,	 4.3587859283112562e+02,	 1.7563989630025274e+00 
2.7012830000000001e+00,	 4.8046580000000000e-01,	 1.6722116368089811e-02,	 7.6412805200261505e+02,	 5.8250217714530550e+01,	 5.1536509866790664e+02,	 2.4793405471241167e+03,	 4.3563970533209067e+02,	 1.7591258591416137e+00 
2.7087509999999999e+00,	 4.8046290000000003e-01,	 1.6664321441890714e-02,	 7.6487585581097255e+02,	 5.8468604956296751e+01,	 5.1479002906434175e+02,	 2.4680144503591173e+03,	 4.3539658343772112e+02,	 1.7618588595159779e+00 
2.7162190000000002e+00,	 4.8045990000000000e-01,	 1.6606759460806295e-02,	 7.6562059736146807e+02,	 5.8681347360908575e+01,	 5.1420849471941608e+02,	 2.4567110519346525e+03,	 4.3515059031472981e+02,	 1.7645986263554758e+00 
2.7236870000000000e+00,	 4.8045690000000002e-01,	 1.6549102003082128e-02,	 7.6636751783683746e+02,	 5.8887109025732045e+01,	 5.1364060728491415e+02,	 2.4454777797246716e+03,	 4.3491023565223014e+02,	 1.7673224172559348e+00 
2.7311550000000002e+00,	 4.8045389999999999e-01,	 1.6491710394287869e-02,	 7.6712116461950143e+02,	 5.9085189837758563e+01,	 5.1308353915242162e+02,	 2.4343539215018841e+03,	 4.3467433105801496e+02,	 1.7700452362796635e+00 
2.7386230000000000e+00,	 4.8045090000000001e-01,	 1.6435101077621011e-02,	 7.6788457838034230e+02,	 5.9276399578248864e+01,	 5.1252514035289448e+02,	 2.4233575166016249e+03,	 4.3443773440099056e+02,	 1.7727950925239311e+00 
2.7460909999999998e+00,	 4.8044789999999998e-01,	 1.6379416580320525e-02,	 7.6866934499372235e+02,	 5.9463103266563699e+01,	 5.1197751909536998e+02,	 2.4125663026379107e+03,	 4.3420557903602611e+02,	 1.7755780661767349e+00 
2.7535590000000001e+00,	 4.8044490000000001e-01,	 1.6324222008854881e-02,	 7.6946678372589531e+02,	 5.9649869947525346e+01,	 5.1144069745136233e+02,	 2.4019154387718036e+03,	 4.3397788145497680e+02,	 1.7783749211007545e+00 
2.7610269999999999e+00,	 4.8044189999999998e-01,	 1.6268387546042609e-02,	 7.7024143713192211e+02,	 5.9841610419952346e+01,	 5.1089243287100101e+02,	 2.3911340133542285e+03,	 4.3374520687220758e+02,	 1.7811437112572823e+00 
2.7684950000000002e+00,	 4.8043890000000000e-01,	 1.6212032209764745e-02,	 7.7099633912131173e+02,	 6.0040634067779663e+01,	 5.1033142395087066e+02,	 2.3802342848712647e+03,	 4.3350699452804548e+02,	 1.7838941930923677e+00 
2.7759630000000000e+00,	 4.8043590000000003e-01,	 1.6155482069880385e-02,	 7.7174261829544048e+02,	 6.0246050555951825e+01,	 5.0976589703268507e+02,	 2.3693031794330354e+03,	 4.3326673122107093e+02,	 1.7866375219828574e+00 
2.7834310000000002e+00,	 4.8043279999999999e-01,	 1.6098040254032709e-02,	 7.7246251988341476e+02,	 6.0453290656829488e+01,	 5.0918951364290069e+02,	 2.3582095708251895e+03,	 4.3302171838349994e+02,	 1.7893431850070967e+00 
2.7908990000000000e+00,	 4.8042980000000002e-01,	 1.6039829686843563e-02,	 7.7315862127180344e+02,	 6.0658309003226861e+01,	 5.0860129404595904e+02,	 2.3469679063322151e+03,	 4.3277153111764181e+02,	 1.7920181778521704e+00 
2.7983669999999998e+00,	 4.8042669999999998e-01,	 1.5981261998697954e-02,	 7.7384202968709815e+02,	 6.0859644292180008e+01,	 5.0800570708113850e+02,	 2.3356598765015724e+03,	 4.3251806284199199e+02,	 1.7946800226317190e+00 
2.8058350000000001e+00,	 4.8042370000000001e-01,	 1.5922735586453147e-02,	 7.7452476017183699e+02,	 6.1056370843160323e+01,	 5.0740937557558289e+02,	 2.3243745321570991e+03,	 4.3226412880083302e+02,	 1.7973445888524655e+00 
2.8133029999999999e+00,	 4.8042059999999998e-01,	 1.5864762478156942e-02,	 7.7522037985401630e+02,	 6.1247588932799665e+01,	 5.0681898192303163e+02,	 2.3132170464158680e+03,	 4.3201257621893905e+02,	 1.8000311636917150e+00 
2.8207710000000001e+00,	 4.8041750000000000e-01,	 1.5807642190725585e-02,	 7.7593553439831237e+02,	 6.1430902676383376e+01,	 5.0623770947855354e+02,	 2.3022449390998781e+03,	 4.3176476678574556e+02,	 1.8027489535626886e+00 
2.8282389999999999e+00,	 4.8041450000000002e-01,	 1.5751835396187155e-02,	 7.7668178298246994e+02,	 6.1601246767838354e+01,	 5.0567168676391555e+02,	 2.2915521223372480e+03,	 4.3152332189576498e+02,	 1.8055127377283120e+00 
2.8357070000000002e+00,	 4.8041139999999999e-01,	 1.5697626572015112e-02,	 7.7746565757804024e+02,	 6.1753289046060104e+01,	 5.0512516614099144e+02,	 2.2811977643069449e+03,	 4.3129006763492060e+02,	 1.8083289179559618e+00 
2.8431750000000000e+00,	 4.8040830000000001e-01,	 1.5644632945055009e-02,	 7.7827493971983620e+02,	 6.1883306981228259e+01,	 5.0459315903521212e+02,	 2.2711021789444558e+03,	 4.3106288648960259e+02,	 1.8111773585967081e+00 
2.8506429999999998e+00,	 4.8040519999999998e-01,	 1.5592054729516518e-02,	 7.7908642170346889e+02,	 6.1989972349440990e+01,	 5.0406491982480725e+02,	 2.2610999581432898e+03,	 4.3083719581221504e+02,	 1.8140233302610349e+00 
2.8581120000000002e+00,	 4.8040200000000000e-01,	 1.5539221235078549e-02,	 7.7988119723212810e+02,	 6.2074341267661396e+01,	 5.0353148947660515e+02,	 2.2510535301464497e+03,	 4.3060916717826819e+02,	 1.8168393710414505e+00 
2.8655800000000000e+00,	 4.8039890000000002e-01,	 1.5485924323459525e-02,	 7.8065350737218046e+02,	 6.2139704962000181e+01,	 5.0298991827358225e+02,	 2.2409199884003401e+03,	 4.3037753492772458e+02,	 1.8196180943592466e+00 
2.8730479999999998e+00,	 4.8039579999999998e-01,	 1.5432334593162327e-02,	 7.8140836326104102e+02,	 6.2192199096120476e+01,	 5.0244215443311111e+02,	 2.2307332334487201e+03,	 4.3014312717883126e+02,	 1.8223687456044775e+00 
2.8805160000000001e+00,	 4.8039260000000000e-01,	 1.5378633001579786e-02,	 7.8215059112492258e+02,	 6.2241550575254081e+01,	 5.0189016712930959e+02,	 2.2205285308545881e+03,	 4.2990678276544185e+02,	 1.8251007573102862e+00 
2.8879839999999999e+00,	 4.8038950000000002e-01,	 1.5324860997894972e-02,	 7.8288107185296144e+02,	 6.2297399058380371e+01,	 5.0133424196740430e+02,	 2.2103133670917655e+03,	 4.2966862088072645e+02,	 1.8278174519959935e+00 
2.8954520000000001e+00,	 4.8038629999999999e-01,	 1.5271183343892689e-02,	 7.8360423349180155e+02,	 6.2364859878389538e+01,	 5.0077655254651950e+02,	 2.2001212453779744e+03,	 4.2942957046208403e+02,	 1.8305261027361408e+00 
2.9029199999999999e+00,	 4.8038310000000001e-01,	 1.5217650246213455e-02,	 7.8432201261958903e+02,	 6.2445987674121760e+01,	 5.0021788391217524e+02,	 2.1899628641739851e+03,	 4.2918996681185723e+02,	 1.8332301596600959e+00 
2.9103880000000002e+00,	 4.8037990000000003e-01,	 1.5163807447158279e-02,	 7.8502475308830640e+02,	 6.2542937589579417e+01,	 4.9965251713577430e+02,	 2.1797479512240252e+03,	 4.2894735418468480e+02,	 1.8359180981502459e+00 
2.9178560000000000e+00,	 4.8037669999999999e-01,	 1.5109058503925308e-02,	 7.8570780714122338e+02,	 6.2659696880235650e+01,	 4.9907275805463036e+02,	 2.1693578855594806e+03,	 4.2869842288100239e+02,	 1.8385940802547189e+00 