TITLE = "Final State"
VARIABLES = "X", "Y", "rho", "u", "v", "T", "p", "c", "M"
ZONE I=51, J=48, DATAPACKING=POINT
0.0000000000000000e+00,	 0.0000000000000000e+00,	 1.1586407740522199e-02,	 1.0000000000000000e+03,	 -5.9636890126434136e-15,	 2.9999999999999989e+02,	 9.9999999999999966e+02,	 3.3237670711487277e+02,	 3.0086344156914397e+00 
1.1911760000000000e-02,	 0.0000000000000000e+00,	 1.1586407740522199e-02,	 1.0000000000000000e+03,	 -2.6297123334472779e-14,	 2.9999999999999989e+02,	 9.9999999999999966e+02,	 3.3237670711487277e+02,	 3.0086344156914397e+00 
2.3823529999999999e-02,	 0.0000000000000000e+00,	 1.1586407740522199e-02,	 1.0000000000000000e+03,	 -4.2707608295177769e-14,	 2.9999999999999989e+02,	 9.9999999999999966e+02,	 3.3237670711487277e+02,	 3.0086344156914397e+00 
3.5735290000000003e-02,	 0.0000000000000000e+00,	 1.1586407740522199e-02,	 1.0000000000000000e+03,	 -9.2870180199418362e-14,	 3.0000000000000000e+02,	 1.0000000000000000e+03,	 3.3237670711487283e+02,	 3.0086344156914393e+00 
4.7647059999999998e-02,	 0.0000000000000000e+00,	 1.1586407740522199e-02,	 1.0000000000000000e+03,	 -1.1423963701604569e-13,	 3.0000000000000000e+02,	 1.0000000000000000e+03,	 3.3237670711487283e+02,	 3.0086344156914393e+00 
5.9558819999999998e-02,	 0.0000000000000000e+00,	 1.1586407740522199e-02,	 1.0000000000000000e+03,	 -6.5868984681915582e-14,	 3.0000000000000000e+02,	 1.0000000000000000e+03,	 3.3237670711487283e+02,	 3.0086344156914393e+00 
7.1470590000000001e-02,	 0.0000000000000000e+00,	 1.1586407740522199e-02,	 1.0000000000000000e+03,	 -3.4838154925489365e-14,	 3.0000000000000000e+02,	 1.0000000000000000e+03,	 3.3237670711487283e+02,	 3.0086344156914393e+00 
8.3382349999999994e-02,	 0.0000000000000000e+00,	 1.1586407740522199e-02,	 1.0000000000000000e+03,	 -4.1987698161746731e-14,	 3.0000000000000000e+02,	 1.0000000000000000e+03,	 3.3237670711487283e+02,	 3.0086344156914393e+00 
9.5294119999999996e-02,	 0.0000000000000000e+00,	 1.1586407740522199e-02,	 1.0000000000000000e+03,	 -4.0847090702281342e-14,	 3.0000000000000000e+02,	 1.0000000000000000e+03,	 3.3237670711487283e+02,	 3.0086344156914393e+00 
1.0720590000000001e-01,	 0.0000000000000000e+00,	 1.1586407740522199e-02,	 1.0000000000000000e+03,	 -4.9057660128993462e-14,	 3.0000000000000000e+02,	 1.0000000000000000e+03,	 3.3237670711487283e+02,	 3.0086344156914393e+00 
1.1911760000000000e-01,	 0.0000000000000000e+00,	 1.1586407740522199e-02,	 1.0000000000000000e+03,	 -4.4387252523304428e-14,	 3.0000000000000000e+02,	 1.0000000000000000e+03,	 3.3237670711487283e+02,	 3.0086344156914393e+00 
1.3102939999999999e-01,	 0.0000000000000000e+00,	 1.1586407740522199e-02,	 1.0000000000000000e+03,	 -3.4247862250169868e-14,	 3.0000000000000000e+02,	 1.0000000000000000e+03,	 3.3237670711487283e+02,	 3.0086344156914393e+00 
1.4294119999999999e-01,	 0.0000000000000000e+00,	 1.1586407740522199e-02,	 1.0000000000000000e+03,	 -3.6089591868304580e-14,	 3.0000000000000000e+02,	 1.0000000000000000e+03,	 3.3237670711487283e+02,	 3.0086344156914393e+00 
1.5485289999999999e-01,	 0.0000000000000000e+00,	 1.1586407740522199e-02,	 1.0000000000000000e+03,	 -3.6352053048639605e-14,	 3.0000000000000000e+02,	 1.0000000000000000e+03,	 3.3237670711487283e+02,	 3.0086344156914393e+00 
1.6676469999999999e-01,	 0.0000000000000000e+00,	 1.1586407740522199e-02,	 1.0000000000000000e+03,	 -3.6472461725515558e-14,	 3.0000000000000000e+02,	 1.0000000000000000e+03,	 3.3237670711487283e+02,	 3.0086344156914393e+00 
1.7867649999999999e-01,	 0.0000000000000000e+00,	 1.1586407740522199e-02,	 1.0000000000000000e+03,	 -3.4017256161074686e-14,	 3.0000000000000000e+02,	 1.0000000000000000e+03,	 3.3237670711487283e+02,	 3.0086344156914393e+00 
1.9058820000000001e-01,	 0.0000000000000000e+00,	 1.1586407740522199e-02,	 1.0000000000000000e+03,	 -3.6316000854380749e-14,	 3.0000000000000000e+02,	 1.0000000000000000e+03,	 3.3237670711487283e+02,	 3.0086344156914393e+00 
2.0250000000000001e-01,	 0.0000000000000000e+00,	 1.1586407740522199e-02,	 1.0000000000000000e+03,	 -4.4751783661995272e-14,	 3.0000000000000000e+02,	 1.0000000000000000e+03,	 3.3237670711487283e+02,	 3.0086344156914393e+00 
2.1441180000000001e-01,	 0.0000000000000000e+00,	 1.1586407740522199e-02,	 1.0000000000000000e+03,	 -3.2781384367425526e-14,	 3.0000000000000000e+02,	 1.0000000000000000e+03,	 3.3237670711487283e+02,	 3.0086344156914393e+00 
2.2632350000000001e-01,	 0.0000000000000000e+00,	 1.1586407740522199e-02,	 1.0000000000000000e+03,	 -1.2080245872622239e-14,	 3.0000000000000000e+02,	 1.0000000000000000e+03,	 3.3237670711487283e+02,	 3.0086344156914393e+00 
2.3823530000000001e-01,	 0.0000000000000000e+00,	 1.1586407740522197e-02,	 1.0000000000000000e+03,	 -4.6727441126447600e-14,	 3.0000000000000000e+02,	 9.9999999999999989e+02,	 3.3237670711487283e+02,	 3.0086344156914393e+00 
2.5014710000000001e-01,	 0.0000000000000000e+00,	 1.1586407740522177e-02,	 1.0000000000000002e+03,	 -1.0814210745164027e-13,	 2.9999999999999977e+02,	 9.9999999999999739e+02,	 3.3237670711487272e+02,	 3.0086344156914406e+00 
2.6205879999999998e-01,	 0.0000000000000000e+00,	 1.1586407740527858e-02,	 9.9999999999969043e+02,	 -6.1334777468630825e-13,	 3.0000000000005809e+02,	 1.0000000000006821e+03,	 3.3237670711490500e+02,	 3.0086344156902163e+00 
2.7397060000000001e-01,	 0.0000000000000000e+00,	 1.1586407785223525e-02,	 9.9999999751249993e+02,	 -1.0990856127146229e-08,	 3.0000000046291143e+02,	 1.0000000054011215e+03,	 3.3237670737130782e+02,	 3.0086344058862418e+00 
2.8588239999999998e-01,	 0.0000000000000000e+00,	 1.1586772954970525e-02,	 9.9998000924258258e+02,	 -2.1254960600596075e-04,	 3.0000378700837064e+02,	 1.0000441446978515e+03,	 3.3237880496387248e+02,	 3.0085552818306116e+00 
2.9779410000000001e-01,	 0.0000000000000000e+00,	 1.9523133654943521e-02,	 7.6846680563416840e+02,	 -2.5171766238275231e+00,	 4.4837511547215695e+02,	 2.5183782880056910e+03,	 4.0634105545203317e+02,	 1.8911968601804432e+00 
3.0970589999999998e-01,	 0.0000000000000000e+00,	 4.3429496471978982e-02,	 2.6786425862662765e+02,	 -2.6322889508604206e+00,	 7.6531201426287851e+02,	 9.5620995934024832e+03,	 5.3087126579959249e+02,	 5.0459915474653283e-01 
3.2161760000000000e-01,	 0.0000000000000000e+00,	 4.3532948768639140e-02,	 2.5585764163393748e+02,	 9.8277960771939832e-01,	 7.6543198544582538e+02,	 9.5863797634051552e+03,	 5.3091287416112300e+02,	 4.8192376106509704e-01 
3.3352939999999998e-01,	 0.0000000000000000e+00,	 4.3792661556904013e-02,	 2.4660265517805112e+02,	 5.1595636389067101e-01,	 7.6746022744457684e+02,	 9.6691245902215451e+03,	 5.3161581538494886e+02,	 4.6387482801991597e-01 
3.4544120000000000e-01,	 0.0000000000000000e+00,	 4.4129144622078662e-02,	 2.3679283916531517e+02,	 4.9344366470356538e-01,	 7.6987178334722933e+02,	 9.7740340890898351e+03,	 5.3245039656676556e+02,	 4.4472378051724082e-01 
3.5735289999999997e-01,	 0.0000000000000000e+00,	 4.4453951361177663e-02,	 2.2730550275939149e+02,	 4.8887508645485056e-01,	 7.7214845684027068e+02,	 9.8750912024663921e+03,	 5.3323709953381888e+02,	 4.2627571989863439e-01 
3.6926470000000000e-01,	 0.0000000000000000e+00,	 4.4761720585049021e-02,	 2.1808800565610449e+02,	 4.8538656288105886e-01,	 7.7429275814073230e+02,	 9.9710732515501641e+03,	 5.3397700146557327e+02,	 4.0842310662452297e-01 
3.8117649999999997e-01,	 0.0000000000000000e+00,	 4.5051944203214019e-02,	 2.0913122225801226e+02,	 4.8335580119595167e-01,	 7.7630088345193792e+02,	 1.0061750765616271e+04,	 5.3466898674782146e+02,	 3.9114253121139458e-01 
3.9308820000000000e-01,	 0.0000000000000000e+00,	 4.5325864042257566e-02,	 2.0042980858470216e+02,	 4.7351673809437733e-01,	 7.7817453011483963e+02,	 1.0147359372302799e+04,	 5.3531382501134556e+02,	 3.7441657316224608e-01 
4.0500000000000003e-01,	 0.0000000000000000e+00,	 4.5596346171151589e-02,	 1.9206226810776263e+02,	 4.7297978513182282e-01,	 7.7993788297828110e+02,	 1.0231045002814661e+04,	 5.3591999559761348e+02,	 3.5837970606346908e-01 
4.1475000000000001e-01,	 0.0000000000000000e+00,	 4.5828238837390470e-02,	 1.8501991684869739e+02,	 4.8467231738614625e-01,	 7.8132995685156880e+02,	 1.0301431549593721e+04,	 5.3639805137883639e+02,	 3.4493143885988120e-01 
4.2449999999999999e-01,	 0.0000000000000000e+00,	 4.6016449729939374e-02,	 1.7842130914719883e+02,	 4.9014372910604653e-01,	 7.8258696982919469e+02,	 1.0360379381006107e+04,	 5.3682935977464422e+02,	 3.3236256389041613e-01 
4.3425000000000002e-01,	 0.0000000000000000e+00,	 4.6195894777341900e-02,	 1.7194717024764807e+02,	 4.9641842323355190e-01,	 7.8378386188665309e+02,	 1.0416687559758026e+04,	 5.3723971756139736e+02,	 3.2005803222566115e-01 
4.4400000000000001e-01,	 0.0000000000000000e+00,	 4.6367318585533973e-02,	 1.6556299270588630e+02,	 5.0542877028396649e-01,	 7.8492848396347199e+02,	 1.0470610591842271e+04,	 5.3763186144490987e+02,	 3.0795006036779871e-01 
4.5374999999999999e-01,	 0.0000000000000000e+00,	 4.6531761956176379e-02,	 1.5922257622124516e+02,	 5.1985640650550602e-01,	 7.8602599732293845e+02,	 1.0522437272448538e+04,	 5.3800759760862172e+02,	 2.9595014193783836e-01 
4.6350000000000002e-01,	 0.0000000000000000e+00,	 4.6690359302288702e-02,	 1.5286219339590855e+02,	 5.4204768150723470e-01,	 7.8708633765048342e+02,	 1.0572544637310024e+04,	 5.3837035844227046e+02,	 2.8393679563411878e-01 
4.7325000000000000e-01,	 0.0000000000000000e+00,	 4.6844388610772711e-02,	 1.4639385693835334e+02,	 5.7519954532196327e-01,	 7.8812216060879291e+02,	 1.0621382569163230e+04,	 5.3872449559298013e+02,	 2.7174369858174408e-01 
4.8299999999999998e-01,	 0.0000000000000000e+00,	 4.6995496400538628e-02,	 1.3969733776867457e+02,	 6.2385309233317310e-01,	 7.8914818529992567e+02,	 1.0669516538201502e+04,	 5.3907505346318896e+02,	 2.5914523376583315e-01 
4.9275000000000002e-01,	 0.0000000000000000e+00,	 4.7145816560649104e-02,	 1.3261178706102228e+02,	 6.9517292796280605e-01,	 7.9017957423977884e+02,	 1.0717633423397718e+04,	 5.3942721450850502e+02,	 2.4584152520944938e-01 
5.0249999999999995e-01,	 0.0000000000000000e+00,	 4.7296525939465275e-02,	 1.2492028854011754e+02,	 7.9496922564741723e-01,	 7.9123400445338882e+02,	 1.0766241632407242e+04,	 5.3978700533810604e+02,	 2.3142983583606488e-01 
5.1224999999999998e-01,	 0.0000000000000000e+00,	 4.7448969846098629e-02,	 1.1633067991464799e+02,	 9.0985153349040027e-01,	 7.9233883898956628e+02,	 1.0816024696369581e+04,	 5.4016373793638161e+02,	 2.1536847029684367e-01 
5.2200000000000002e-01,	 0.0000000000000000e+00,	 4.7598989306528318e-02,	 1.0652298925234729e+02,	 1.1081198951539084e+00,	 7.9347416945283771e+02,	 1.0865768853936384e+04,	 5.4055059567299088e+02,	 1.9707452666446199e-01 
5.3174999999999994e-01,	 0.0000000000000000e+00,	 4.7731306638068655e-02,	 9.5363400135885655e+01,	 1.4893883293842882e+00,	 7.9465799824401097e+02,	 1.0912230214352070e+04,	 5.4095368431646898e+02,	 1.7630904982585988e-01 
5.4149999999999998e-01,	 0.0000000000000000e+00,	 4.7856680961736023e-02,	 8.2858615961356520e+01,	 1.7317537902370739e+00,	 7.9581192001693694e+02,	 1.0956780282180498e+04,	 5.4134630088461984e+02,	 1.5309370502450476e-01 
5.5125000000000002e-01,	 0.0000000000000000e+00,	 4.7969620861627690e-02,	 7.0835195457305787e+01,	 2.2482815413950115e+00,	 7.9661524554338405e+02,	 1.0993724185872734e+04,	 5.4161946066067799e+02,	 1.3084992585024563e-01 
5.6100000000000005e-01,	 0.0000000000000000e+00,	 4.8057174726267082e-02,	 6.0681976804772411e+01,	 1.3409087764266960e+00,	 7.9751582307563581e+02,	 1.1026241010106545e+04,	 5.4192552594200436e+02,	 1.1200208761748370e-01 
0.0000000000000000e+00,	 7.1942450000000002e-03,	 1.1586407740522197e-02,	 1.0000000000000000e+03,	 -1.5026583532198588e-14,	 3.0000000000000017e+02,	 1.0000000000000005e+03,	 3.3237670711487294e+02,	 3.0086344156914380e+00 
1.1893000000000001e-02,	 7.1968090000000002e-03,	 1.1586407740522197e-02,	 1.0000000000000001e+03,	 -3.2579230993761074e-14,	 2.9999999999999989e+02,	 9.9999999999999955e+02,	 3.3237670711487277e+02,	 3.0086344156914397e+00 
2.3780860000000001e-02,	 7.2016620000000002e-03,	 1.1586407740522199e-02,	 1.0000000000000000e+03,	 -8.9851919456643992e-14,	 3.0000000000000000e+02,	 1.0000000000000000e+03,	 3.3237670711487283e+02,	 3.0086344156914393e+00 
3.5663519999999997e-02,	 7.2084610000000002e-03,	 1.1586407740522201e-02,	 1.0000000000000000e+03,	 -1.1553348332658092e-13,	 3.0000000000000000e+02,	 1.0000000000000002e+03,	 3.3237670711487283e+02,	 3.0086344156914393e+00 
4.7543320000000000e-02,	 7.2157790000000003e-03,	 1.1586407740522201e-02,	 1.0000000000000000e+03,	 -1.1303775198802682e-13,	 2.9999999999999994e+02,	 1.0000000000000000e+03,	 3.3237670711487277e+02,	 3.0086344156914397e+00 
5.9420819999999999e-02,	 7.2232470000000003e-03,	 1.1586407740522201e-02,	 1.0000000000000000e+03,	 -8.5347025333786369e-14,	 2.9999999999999994e+02,	 1.0000000000000000e+03,	 3.3237670711487277e+02,	 3.0086344156914397e+00 
7.1297159999999998e-02,	 7.2306990000000002e-03,	 1.1586407740522199e-02,	 1.0000000000000000e+03,	 -8.3183923124080739e-14,	 3.0000000000000000e+02,	 1.0000000000000000e+03,	 3.3237670711487283e+02,	 3.0086344156914393e+00 
8.3172609999999994e-02,	 7.2383220000000002e-03,	 1.1586407740522199e-02,	 1.0000000000000000e+03,	 -7.2852606662691916e-14,	 3.0000000000000000e+02,	 1.0000000000000000e+03,	 3.3237670711487283e+02,	 3.0086344156914393e+00 
9.5047480000000004e-02,	 7.2462650000000000e-03,	 1.1586407740522199e-02,	 1.0000000000000000e+03,	 -6.8649615085671042e-14,	 3.0000000000000000e+02,	 1.0000000000000000e+03,	 3.3237670711487283e+02,	 3.0086344156914393e+00 
1.0692160000000001e-01,	 7.2545850000000000e-03,	 1.1586407740522199e-02,	 1.0000000000000000e+03,	 -6.3745531550585061e-14,	 3.0000000000000000e+02,	 1.0000000000000000e+03,	 3.3237670711487283e+02,	 3.0086344156914393e+00 
1.1879480000000001e-01,	 7.2632419999999996e-03,	 1.1586407740522199e-02,	 1.0000000000000000e+03,	 -4.0618169352769114e-14,	 3.0000000000000000e+02,	 1.0000000000000000e+03,	 3.3237670711487283e+02,	 3.0086344156914393e+00 
1.3066720000000001e-01,	 7.2724549999999997e-03,	 1.1586407740522199e-02,	 1.0000000000000000e+03,	 -4.3279687662793498e-14,	 3.0000000000000000e+02,	 1.0000000000000000e+03,	 3.3237670711487283e+02,	 3.0086344156914393e+00 
1.4253869999999999e-01,	 7.2823610000000002e-03,	 1.1586407740522199e-02,	 1.0000000000000000e+03,	 -4.7560213604549305e-14,	 3.0000000000000000e+02,	 1.0000000000000000e+03,	 3.3237670711487283e+02,	 3.0086344156914393e+00 
1.5440920000000000e-01,	 7.2930809999999999e-03,	 1.1586407740522199e-02,	 1.0000000000000000e+03,	 -3.5906291617249896e-14,	 3.0000000000000000e+02,	 1.0000000000000000e+03,	 3.3237670711487283e+02,	 3.0086344156914393e+00 
1.6627870000000000e-01,	 7.3046140000000001e-03,	 1.1586407740522199e-02,	 1.0000000000000000e+03,	 -3.3809245825633347e-14,	 3.0000000000000000e+02,	 1.0000000000000000e+03,	 3.3237670711487283e+02,	 3.0086344156914393e+00 
1.7814700000000000e-01,	 7.3169630000000001e-03,	 1.1586407740522199e-02,	 1.0000000000000000e+03,	 -3.0657059380975930e-14,	 3.0000000000000000e+02,	 1.0000000000000000e+03,	 3.3237670711487283e+02,	 3.0086344156914393e+00 
1.9001409999999999e-01,	 7.3302180000000003e-03,	 1.1586407740522199e-02,	 1.0000000000000000e+03,	 -3.9168446089308055e-14,	 3.0000000000000000e+02,	 1.0000000000000000e+03,	 3.3237670711487283e+02,	 3.0086344156914393e+00 
2.0187980000000000e-01,	 7.3445220000000000e-03,	 1.1586407740522199e-02,	 1.0000000000000000e+03,	 -2.2472771826164198e-14,	 3.0000000000000000e+02,	 1.0000000000000000e+03,	 3.3237670711487283e+02,	 3.0086344156914393e+00 
2.1374420000000000e-01,	 7.3599410000000001e-03,	 1.1586407740522199e-02,	 1.0000000000000000e+03,	 -1.6492760080953448e-14,	 3.0000000000000000e+02,	 1.0000000000000000e+03,	 3.3237670711487283e+02,	 3.0086344156914393e+00 
2.2560700000000000e-01,	 7.3765139999999998e-03,	 1.1586407740522199e-02,	 1.0000000000000000e+03,	 -1.4390375153119282e-14,	 3.0000000000000000e+02,	 1.0000000000000000e+03,	 3.3237670711487283e+02,	 3.0086344156914393e+00 
2.3746829999999999e-01,	 7.3942480000000000e-03,	 1.1586407740522197e-02,	 1.0000000000000000e+03,	 -1.0402103180583240e-14,	 3.0000000000000000e+02,	 9.9999999999999989e+02,	 3.3237670711487283e+02,	 3.0086344156914393e+00 
2.4932799999999999e-01,	 7.4132440000000003e-03,	 1.1586407740522196e-02,	 1.0000000000000001e+03,	 -9.0385821772908581e-14,	 2.9999999999999989e+02,	 9.9999999999999943e+02,	 3.3237670711487277e+02,	 3.0086344156914397e+00 
2.6118580000000002e-01,	 7.4336740000000004e-03,	 1.1586407740528021e-02,	 9.9999999999970203e+02,	 2.2242290400816256e-11,	 3.0000000000005963e+02,	 1.0000000000007013e+03,	 3.3237670711490586e+02,	 3.0086344156902438e+00 
2.7304170000000000e-01,	 7.4556529999999996e-03,	 1.1586407787053714e-02,	 9.9999999760949891e+02,	 1.4491116518659742e-07,	 3.0000000048207386e+02,	 1.0000000056229562e+03,	 3.3237670738192304e+02,	 3.0086344060819883e+00 
2.8489560000000003e-01,	 7.4794309999999999e-03,	 1.1586780883350677e-02,	 9.9998089593588384e+02,	 6.3661633266331563e-04,	 3.0000386919853020e+02,	 1.0000451029653649e+03,	 3.3237885049373961e+02,	 3.0085575374324884e+00 
2.9674719999999999e-01,	 7.5051470000000002e-03,	 1.8491621990897621e-02,	 7.8907155567362804e+02,	 3.3916228099201789e-01,	 4.3101944473460139e+02,	 2.2929881349631664e+03,	 3.9839913342603529e+02,	 1.9806057854045189e+00 
3.0859660000000000e-01,	 7.5330509999999998e-03,	 4.2263250021195665e-02,	 2.7426464832335995e+02,	 1.9524667188164349e+00,	 7.6054590177321700e+02,	 9.2473705164083640e+03,	 5.2921563793842802e+02,	 5.1826056959701328e-01 
3.2044370000000000e-01,	 7.5632670000000003e-03,	 4.3391675031815208e-02,	 2.5339784962096212e+02,	 3.9583953880113003e+00,	 7.6582563763620374e+02,	 9.5601840661170936e+03,	 5.3104937757083621e+02,	 4.7722260116243842e-01 
3.3228849999999999e-01,	 7.5961609999999997e-03,	 4.3713430984859226e-02,	 2.4389453429334878e+02,	 4.8762665893754811e+00,	 7.6826630393443259e+02,	 9.6617682854873328e+03,	 5.3189492466833838e+02,	 4.5863057634056398e-01 
3.4413040000000000e-01,	 7.6318719999999996e-03,	 4.4052609025203589e-02,	 2.3397731505852644e+02,	 4.9143807988015480e+00,	 7.7067562191546926e+02,	 9.7672700109227753e+03,	 5.3272829511431939e+02,	 4.3930258917061538e-01 
3.5596949999999999e-01,	 7.6707809999999998e-03,	 4.4381206888229274e-02,	 2.2424392466923200e+02,	 4.9179641199565118e+00,	 7.7294980322133597e+02,	 9.8691633332294350e+03,	 5.3351372821009522e+02,	 4.2041626116805775e-01 
3.6780429999999997e-01,	 7.7127239999999998e-03,	 4.4690600465595719e-02,	 2.1475342308786495e+02,	 4.8915452688629539e+00,	 7.7508198594676401e+02,	 9.9653778627985503e+03,	 5.3424907049762226e+02,	 4.0207673967655855e-01 
3.7963120000000000e-01,	 7.7581860000000002e-03,	 4.4982101367959895e-02,	 2.0550531919252197e+02,	 4.8568680010607741e+00,	 7.7707684945338428e+02,	 1.0056194118607133e+04,	 5.3493613917536197e+02,	 3.8427522316615714e-01 
3.9143309999999998e-01,	 7.8078910000000000e-03,	 4.5256675604846683e-02,	 1.9650161078265461e+02,	 4.8222511251122127e+00,	 7.7893394637122185e+02,	 1.0141757398840005e+04,	 5.3557496622837891e+02,	 3.6700888678357080e-01 
4.0312029999999999e-01,	 7.8655070000000007e-03,	 4.5526814892918738e-02,	 1.8780280130793244e+02,	 4.7585317839998567e+00,	 7.8068027887285814e+02,	 1.0225167093131295e+04,	 5.3617499678413856e+02,	 3.5037642262954216e-01 
4.1299279999999999e-01,	 7.9389800000000000e-03,	 4.5760486628865144e-02,	 1.8042853140677477e+02,	 4.7185987212840228e+00,	 7.8207473457442904e+02,	 1.0296006963717600e+04,	 5.3665364260447393e+02,	 3.3632534533233327e-01 
4.2272470000000001e-01,	 8.0122670000000000e-03,	 4.5952145425861464e-02,	 1.7349289801699862e+02,	 4.7250303972619463e+00,	 7.8334363618241582e+02,	 1.0355904808005987e+04,	 5.3708882140024912e+02,	 3.2314436944768099e-01 
4.3242049999999999e-01,	 8.0881470000000004e-03,	 4.6132728478528062e-02,	 1.6668679107397634e+02,	 4.7377187082437189e+00,	 7.8453929607256453e+02,	 1.0412470409866641e+04,	 5.3749855901189949e+02,	 3.1024103133148867e-01 
4.4210129999999997e-01,	 8.1703969999999994e-03,	 4.6304701018778399e-02,	 1.5996411685514170e+02,	 4.7744858833768626e+00,	 7.8567574840164411e+02,	 1.0466425096884956e+04,	 5.3788771761889484e+02,	 2.9752557707071747e-01 
4.5177210000000001e-01,	 8.2603099999999999e-03,	 4.6469215786436681e-02,	 1.5328443441596553e+02,	 4.8511081794411517e+00,	 7.8676053081734835e+02,	 1.0518113320817491e+04,	 5.3825892028823228e+02,	 2.8492083041213051e-01 
4.6143350000000000e-01,	 8.3585910000000003e-03,	 4.6627301255391371e-02,	 1.4659689201943883e+02,	 4.9877637604778675e+00,	 7.8780239961783388e+02,	 1.0567871319376798e+04,	 5.3861519746409397e+02,	 2.7233119149530338e-01 
4.7108410000000001e-01,	 8.4664159999999992e-03,	 4.6780057332880945e-02,	 1.3983557638326246e+02,	 5.2110309006232534e+00,	 7.8881044935745911e+02,	 1.0616059458665433e+04,	 5.3895968571056869e+02,	 2.5963470371518343e-01 
4.8072090000000001e-01,	 8.5855540000000004e-03,	 4.6928983548269680e-02,	 1.3291858859355082e+02,	 5.5525216700750715e+00,	 7.8979295472935496e+02,	 1.0663121078044252e+04,	 5.3929523273571056e+02,	 2.4668216049479949e-01 
4.9033830000000000e-01,	 8.7186290000000003e-03,	 4.7075249322869599e-02,	 1.2575158097745746e+02,	 6.0413671525273154e+00,	 7.9075793244966542e+02,	 1.0709424254627271e+04,	 5.3962459058713250e+02,	 2.3330407740433526e-01 
4.9992779999999998e-01,	 8.8699790000000001e-03,	 4.7219745315462129e-02,	 1.1819327456102033e+02,	 6.7974339966492829e+00,	 7.9171340282803158e+02,	 1.0755276378323109e+04,	 5.3995050553313479e+02,	 2.1925820273075247e-01 
5.0947399999999998e-01,	 9.0498560000000002e-03,	 4.7363561685758386e-02,	 1.1006513619349842e+02,	 7.8619176584443071e+00,	 7.9266755534338472e+02,	 1.0801034998535741e+04,	 5.4027577475283272e+02,	 2.0423933709635667e-01 
5.1893619999999996e-01,	 9.3160589999999998e-03,	 4.7506057174772590e-02,	 1.0114927307254653e+02,	 9.2917399539543908e+00,	 7.9358852407061204e+02,	 1.0846117462817900e+04,	 5.4058954604600751e+02,	 1.8789699979859248e-01 
5.2809899999999999e-01,	 1.0093440000000000e-02,	 4.7622343666871784e-02,	 9.1179354664437085e+01,	 1.1340770713455655e+01,	 7.9456572666898478e+02,	 1.0886055151505972e+04,	 5.4092227703332321e+02,	 1.6986159939702378e-01 
5.3789909999999996e-01,	 1.1641749999999999e-02,	 4.7733967097073067e-02,	 8.0291380738509702e+01,	 1.3271202458617866e+01,	 7.9554160669657267e+02,	 1.0924972815516026e+04,	 5.4125435356595949e+02,	 1.5035588176541381e-01 
5.4704310000000000e-01,	 1.2462290000000001e-02,	 4.7844462854341824e-02,	 7.0310081994968485e+01,	 1.4925829188359430e+01,	 7.9628170325798965e+02,	 1.0960449297233135e+04,	 5.4150606093131296e+02,	 1.3273516215755929e-01 
5.5569170000000001e-01,	 1.3366340000000001e-02,	 4.7917586412234300e-02,	 6.2431050475486870e+01,	 1.4982383876258591e+01,	 7.9702313971441697e+02,	 1.0987421935861828e+04,	 5.4175810673186095e+02,	 1.1850979819701943e-01 
0.0000000000000000e+00,	 1.4388490000000000e-02,	 1.1586407740522196e-02,	 1.0000000000000000e+03,	 4.2490705814768495e-15,	 3.0000000000000006e+02,	 1.0000000000000000e+03,	 3.3237670711487289e+02,	 3.0086344156914384e+00 
1.1884189999999999e-02,	 1.4387779999999999e-02,	 1.1586407740522199e-02,	 1.0000000000000002e+03,	 -3.8706102507081640e-14,	 2.9999999999999994e+02,	 9.9999999999999989e+02,	 3.3237670711487277e+02,	 3.0086344156914402e+00 
2.3754830000000001e-02,	 1.4393750000000000e-02,	 1.1586407740522203e-02,	 1.0000000000000000e+03,	 -8.0768638766569310e-14,	 3.0000000000000011e+02,	 1.0000000000000008e+03,	 3.3237670711487289e+02,	 3.0086344156914384e+00 
3.5613760000000001e-02,	 1.4401030000000000e-02,	 1.1586407740522204e-02,	 1.0000000000000000e+03,	 -8.7687141726181066e-14,	 3.0000000000000011e+02,	 1.0000000000000009e+03,	 3.3237670711487289e+02,	 3.0086344156914384e+00 
4.7466370000000001e-02,	 1.4407069999999999e-02,	 1.1586407740522203e-02,	 1.0000000000000000e+03,	 -9.0517501023186961e-14,	 3.0000000000000000e+02,	 1.0000000000000005e+03,	 3.3237670711487283e+02,	 3.0086344156914393e+00 
5.9313600000000001e-02,	 1.4411500000000001e-02,	 1.1586407740522201e-02,	 1.0000000000000000e+03,	 -6.6070620180715543e-14,	 2.9999999999999994e+02,	 1.0000000000000000e+03,	 3.3237670711487277e+02,	 3.0086344156914397e+00 
7.1158050000000000e-02,	 1.4414800000000000e-02,	 1.1586407740522199e-02,	 1.0000000000000000e+03,	 -6.9081399625303333e-14,	 3.0000000000000000e+02,	 1.0000000000000000e+03,	 3.3237670711487283e+02,	 3.0086344156914393e+00 
8.3000299999999999e-02,	 1.4417289999999999e-02,	 1.1586407740522199e-02,	 1.0000000000000000e+03,	 -5.9994444354553673e-14,	 3.0000000000000000e+02,	 1.0000000000000000e+03,	 3.3237670711487283e+02,	 3.0086344156914393e+00 
9.4840939999999999e-02,	 1.4419599999999999e-02,	 1.1586407740522199e-02,	 1.0000000000000000e+03,	 -5.8366722783432487e-14,	 3.0000000000000000e+02,	 1.0000000000000000e+03,	 3.3237670711487283e+02,	 3.0086344156914393e+00 
1.0667950000000000e-01,	 1.4422180000000000e-02,	 1.1586407740522199e-02,	 1.0000000000000000e+03,	 -6.4700031730554030e-14,	 3.0000000000000000e+02,	 1.0000000000000000e+03,	 3.3237670711487283e+02,	 3.0086344156914393e+00 
1.1851600000000000e-01,	 1.4425420000000000e-02,	 1.1586407740522199e-02,	 1.0000000000000000e+03,	 -3.9356563836452640e-14,	 3.0000000000000000e+02,	 1.0000000000000000e+03,	 3.3237670711487283e+02,	 3.0086344156914393e+00 
1.3035040000000001e-01,	 1.4429869999999999e-02,	 1.1586407740522199e-02,	 1.0000000000000000e+03,	 -1.4457299441785040e-14,	 3.0000000000000000e+02,	 1.0000000000000000e+03,	 3.3237670711487283e+02,	 3.0086344156914393e+00 
1.4218270000000000e-01,	 1.4435920000000000e-02,	 1.1586407740522199e-02,	 1.0000000000000000e+03,	 -2.2345564532873495e-14,	 3.0000000000000000e+02,	 1.0000000000000000e+03,	 3.3237670711487283e+02,	 3.0086344156914393e+00 
1.5401270000000000e-01,	 1.4443950000000001e-02,	 1.1586407740522199e-02,	 1.0000000000000000e+03,	 -2.9391114432866662e-14,	 3.0000000000000000e+02,	 1.0000000000000000e+03,	 3.3237670711487283e+02,	 3.0086344156914393e+00 
1.6584009999999999e-01,	 1.4454140000000001e-02,	 1.1586407740522199e-02,	 1.0000000000000000e+03,	 -2.2234088595924959e-14,	 3.0000000000000000e+02,	 1.0000000000000000e+03,	 3.3237670711487283e+02,	 3.0086344156914393e+00 
1.7766470000000001e-01,	 1.4466750000000000e-02,	 1.1586407740522199e-02,	 1.0000000000000000e+03,	 -2.1383049374371054e-14,	 3.0000000000000000e+02,	 1.0000000000000000e+03,	 3.3237670711487283e+02,	 3.0086344156914393e+00 
1.8948599999999999e-01,	 1.4481950000000000e-02,	 1.1586407740522199e-02,	 1.0000000000000000e+03,	 -2.4951644886242342e-14,	 3.0000000000000000e+02,	 1.0000000000000000e+03,	 3.3237670711487283e+02,	 3.0086344156914393e+00 
2.0130410000000001e-01,	 1.4500120000000000e-02,	 1.1586407740522199e-02,	 1.0000000000000000e+03,	 -9.3082860882394056e-15,	 3.0000000000000000e+02,	 1.0000000000000000e+03,	 3.3237670711487283e+02,	 3.0086344156914393e+00 
2.1311859999999999e-01,	 1.4521420000000000e-02,	 1.1586407740522199e-02,	 1.0000000000000000e+03,	 -1.2231946998546017e-14,	 3.0000000000000000e+02,	 1.0000000000000000e+03,	 3.3237670711487283e+02,	 3.0086344156914393e+00 
2.2492909999999999e-01,	 1.4546190000000001e-02,	 1.1586407740522199e-02,	 1.0000000000000000e+03,	 -2.0396641242993382e-14,	 3.0000000000000000e+02,	 1.0000000000000000e+03,	 3.3237670711487283e+02,	 3.0086344156914393e+00 
2.3673549999999999e-01,	 1.4574560000000000e-02,	 1.1586407740522192e-02,	 1.0000000000000000e+03,	 8.6065901097255562e-14,	 2.9999999999999994e+02,	 9.9999999999999932e+02,	 3.3237670711487277e+02,	 3.0086344156914397e+00 
2.4853729999999999e-01,	 1.4607040000000000e-02,	 1.1586407740522244e-02,	 1.0000000000000002e+03,	 2.0897125599970545e-13,	 2.9999999999999989e+02,	 1.0000000000000035e+03,	 3.3237670711487277e+02,	 3.0086344156914402e+00 
2.6033430000000002e-01,	 1.4643959999999999e-02,	 1.1586407740527375e-02,	 9.9999999999973329e+02,	 2.3359574803613242e-11,	 3.0000000000005281e+02,	 1.0000000000006229e+03,	 3.3237670711490210e+02,	 3.0086344156903717e+00 
2.7212579999999997e-01,	 1.4685920000000000e-02,	 1.1586407781154077e-02,	 9.9999999787221464e+02,	 1.4730913795600364e-07,	 3.0000000042097719e+02,	 1.0000000049101146e+03,	 3.3237670734807784e+02,	 3.0086344071787670e+00 
2.8391159999999999e-01,	 1.4733410000000001e-02,	 1.1586728561547814e-02,	 9.9998310371891137e+02,	 6.3603188905658487e-04,	 3.0000332668699446e+02,	 1.0000387786936548e+03,	 3.3237854996521207e+02,	 3.0085669000715463e+00 
2.9569099999999998e-01,	 1.4787130000000001e-02,	 1.7078353713640214e-02,	 8.3095608626968510e+02,	 3.5988697034828085e+00,	 4.1057597649716274e+02,	 2.0172952969188209e+03,	 3.8883622736539462e+02,	 2.1370536516450125e+00 
3.0746420000000002e-01,	 1.4847559999999999e-02,	 4.0654305306876429e-02,	 2.8649219419507483e+02,	 8.3782341222009151e+00,	 7.5644925499474698e+02,	 8.8474126034654328e+03,	 5.2778841514069734e+02,	 5.4304843978250983e-01 
3.1923030000000002e-01,	 1.4915579999999999e-02,	 4.3156569472562092e-02,	 2.4800006621186913e+02,	 8.4008481571552363e+00,	 7.6688706554405724e+02,	 9.5215634454186002e+03,	 5.3141726513339074e+02,	 4.6694439276694405e-01 
3.3098939999999999e-01,	 1.4991970000000000e-02,	 4.3553898129257675e-02,	 2.3740230489178876e+02,	 1.0017025222527836e+01,	 7.6948719234142152e+02,	 9.6418054492692718e+03,	 5.3231738661731777e+02,	 4.4637569163791946e-01 
3.4273989999999999e-01,	 1.5077820000000000e-02,	 4.3915065184161828e-02,	 2.2723066998153254e+02,	 1.0080696663246300e+01,	 7.7186647628788273e+02,	 9.7518193670738638e+03,	 5.3313972433300205e+02,	 4.2663143646367363e-01 
3.5448200000000002e-01,	 1.5174000000000000e-02,	 4.4250853407719878e-02,	 2.1732799960107960e+02,	 1.0098021567828091e+01,	 7.7406882198823064e+02,	 9.8544221632763583e+03,	 5.3389977912232030e+02,	 4.0749683935129744e-01 