TITLE = "Final State"
VARIABLES = "X", "Y", "rho", "u", "v", "T", "p", "c", "M"
ZONE I=51, J=48, DATAPACKING=POINT
1.1549980000000000e+00,	 4.6917110000000001e-01,	 1.7148593974045421e-02,	 7.3255727563997459e+02,	 -2.0585553046236893e+02,	 5.1252129749476910e+02,	 2.5285431661589987e+03,	 4.3443610571434129e+02,	 1.7515382201547225e+00 
1.1624960000000000e+00,	 4.6919600000000000e-01,	 1.7093141244081792e-02,	 7.3292289671854496e+02,	 -2.0856582647942449e+02,	 5.1168175455065398e+02,	 2.5162381928970294e+03,	 4.3408014270035085e+02,	 1.7554840912261673e+00 
1.1699930000000001e+00,	 4.6921900000000000e-01,	 1.7028666351073835e-02,	 7.3347453366307946e+02,	 -2.1148108218719517e+02,	 5.1071528406280049e+02,	 2.5020122334906891e+03,	 4.3367000111126953e+02,	 1.7602183084266894e+00 
1.1774880000000001e+00,	 4.6924030000000000e-01,	 1.6964064992158211e-02,	 7.3404198862402825e+02,	 -2.1431884925359111e+02,	 5.0974559899193451e+02,	 2.4877878932002382e+03,	 4.3325810515039376e+02,	 1.7649747525060231e+00 
1.1849810000000001e+00,	 4.6926000000000001e-01,	 1.6899764589228473e-02,	 7.3462468828376223e+02,	 -2.1706560220332801e+02,	 5.0877936573778913e+02,	 2.4736604307920115e+03,	 4.3284728555963159e+02,	 1.7697299054668689e+00 
1.1924720000000000e+00,	 4.6927809999999998e-01,	 1.6832213453246054e-02,	 7.3526423779350171e+02,	 -2.1983054442471720e+02,	 5.0774660507637043e+02,	 2.4587716423719621e+03,	 4.3240774853964297e+02,	 1.7747683600539612e+00 
1.1999610000000001e+00,	 4.6929470000000001e-01,	 1.6748960590652239e-02,	 7.3609930130626913e+02,	 -2.2297282045027032e+02,	 5.0644642360993919e+02,	 2.4403454404748168e+03,	 4.3185376264696419e+02,	 1.7809935524615526e+00 
1.2074490000000000e+00,	 4.6930980000000000e-01,	 1.6639330701745954e-02,	 7.3727026631342028e+02,	 -2.2685168419312677e+02,	 5.0465860210405185e+02,	 2.4158138743100731e+03,	 4.3109083887365142e+02,	 1.7893706960210898e+00 
1.2149360000000000e+00,	 4.6932350000000000e-01,	 1.6664417133087604e-02,	 7.3519528448030189e+02,	 -2.2700011942602222e+02,	 5.0587327440057550e+02,	 2.4252795315234707e+03,	 4.3160932740184904e+02,	 1.7827281782045259e+00 
1.2224210000000000e+00,	 4.6933589999999997e-01,	 1.8043919795490991e-02,	 7.1104279150006766e+02,	 -1.9067913182799066e+02,	 5.3083861969591351e+02,	 2.7556454346192691e+03,	 4.4213124703911262e+02,	 1.6650395262435247e+00 
1.2299050000000000e+00,	 4.6934730000000002e-01,	 2.1975321123537145e-02,	 6.5928028687469487e+02,	 -1.0250920162418763e+02,	 5.8606316470137995e+02,	 3.7051824089666216e+03,	 4.6456037812853447e+02,	 1.4362010290662663e+00 
1.2373879999999999e+00,	 4.6935769999999999e-01,	 2.5507963175978258e-02,	 6.2278493522501969e+02,	 -4.1698295209408244e+01,	 6.1985690497205064e+02,	 4.5488033508737044e+03,	 4.7776647869238161e+02,	 1.3064527289334684e+00 
1.2448690000000000e+00,	 4.6936709999999998e-01,	 2.6314235570601759e-02,	 6.1689919968879212e+02,	 -3.2764475577895887e+01,	 6.2200159630907569e+02,	 4.7088211454656530e+03,	 4.7859229576651722e+02,	 1.2908036308620223e+00 
1.2523500000000001e+00,	 4.6937570000000001e-01,	 2.6225458055527420e-02,	 6.1936869991953813e+02,	 -3.6592287503314239e+01,	 6.1784710215523228e+02,	 4.6615895755253096e+03,	 4.7699130299089359e+02,	 1.3007547310751260e+00 
1.2598300000000000e+00,	 4.6938360000000001e-01,	 2.6004120695904312e-02,	 6.2292086433394115e+02,	 -4.0534125862615575e+01,	 6.1422537307618586e+02,	 4.5951518059384634e+03,	 4.7559122168400239e+02,	 1.3125521292634594e+00 
1.2673090000000000e+00,	 4.6939059999999999e-01,	 2.5763378038171698e-02,	 6.2662613777092679e+02,	 -4.4498707934056249e+01,	 6.1141456680657893e+02,	 4.5317769393964418e+03,	 4.7450177820828924e+02,	 1.3239236960439809e+00 
1.2747869999999999e+00,	 4.6939690000000001e-01,	 2.5539913600204859e-02,	 6.2997664094736763e+02,	 -4.7760950032204619e+01,	 6.0899163823559843e+02,	 4.4746666876416466e+03,	 4.7356066129745443e+02,	 1.3341152867666155e+00 
1.2822650000000000e+00,	 4.6940260000000000e-01,	 2.5323682143968733e-02,	 6.3309463455832156e+02,	 -5.0745075209604650e+01,	 6.0675841211946283e+02,	 4.4205122389383323e+03,	 4.7269156942445966e+02,	 1.3436353222874198e+00 
1.2897419999999999e+00,	 4.6940779999999999e-01,	 2.5117656322699220e-02,	 6.3602388778280692e+02,	 -5.3553476986926043e+01,	 6.0457162525855188e+02,	 4.3687461623935578e+03,	 4.7183899883859794e+02,	 1.3527379463844968e+00 
1.2972180000000000e+00,	 4.6941230000000000e-01,	 2.4919747800222134e-02,	 6.3891432819640704e+02,	 -5.6372292936053611e+01,	 6.0235919968762323e+02,	 4.3184622526448638e+03,	 4.7097486180476909e+02,	 1.3618485009872108e+00 
1.3046940000000000e+00,	 4.6941640000000001e-01,	 2.4727899341811691e-02,	 6.4185565256681321e+02,	 -5.9127546886551102e+01,	 6.0014725825900928e+02,	 4.2694800450216144e+03,	 4.7010932596925824e+02,	 1.3711136312431729e+00 
1.3121689999999999e+00,	 4.6942000000000000e-01,	 2.4539893875875768e-02,	 6.4473225871886302e+02,	 -6.1835717719464085e+01,	 5.9791183120941525e+02,	 4.2212372789463898e+03,	 4.6923297811568654e+02,	 1.3803181069680193e+00 
1.3196440000000000e+00,	 4.6942309999999998e-01,	 2.4356697959945550e-02,	 6.4755123061638233e+02,	 -6.4407451274912745e+01,	 5.9566257045314956e+02,	 4.1739636188332115e+03,	 4.6834955205518469e+02,	 1.3894460388903620e+00 
1.3271180000000000e+00,	 4.6942560000000000e-01,	 2.4181039909650256e-02,	 6.5033737299672396e+02,	 -6.6864190535324099e+01,	 5.9347895847543555e+02,	 4.1286706233204995e+03,	 4.6749031334714630e+02,	 1.3984581635569131e+00 
1.3345910000000001e+00,	 4.6942770000000000e-01,	 2.4012855370390981e-02,	 6.5305299599659827e+02,	 -6.9215717078521919e+01,	 5.9141475217170250e+02,	 4.0856945557411841e+03,	 4.6667660546419700e+02,	 1.4072073872758077e+00 
1.3420639999999999e+00,	 4.6942940000000000e-01,	 2.3851551834849057e-02,	 6.5562559186874023e+02,	 -7.1448313028568904e+01,	 5.8946715821573810e+02,	 4.0448851199874939e+03,	 4.6590756306072063e+02,	 1.4155323416393497e+00 
1.3495370000000000e+00,	 4.6943069999999998e-01,	 2.3697945305436584e-02,	 6.5801956953260037e+02,	 -7.3535363759608416e+01,	 5.8762916083199332e+02,	 4.0063046358975998e+03,	 4.6518063074443717e+02,	 1.4233518311511284e+00 
1.3570100000000000e+00,	 4.6943170000000001e-01,	 2.3553772330206720e-02,	 6.6021986145334495e+02,	 -7.5458603576523046e+01,	 5.8591493264032181e+02,	 3.9703151132893927e+03,	 4.6450162413973970e+02,	 1.4306044073559661e+00 
1.3644820000000000e+00,	 4.6943249999999997e-01,	 2.3420363480892697e-02,	 6.6222252607485166e+02,	 -7.7212327980764385e+01,	 5.8432647021537036e+02,	 3.9371243243030694e+03,	 4.6387154620321525e+02,	 1.4372699741847994e+00 
1.3719530000000000e+00,	 4.6943289999999999e-01,	 2.3300374717942614e-02,	 6.6406242476240425e+02,	 -7.8769818442424921e+01,	 5.8287891852811003e+02,	 3.9072499204952023e+03,	 4.6329661553295523e+02,	 1.4433903606224030e+00 
1.3794249999999999e+00,	 4.6943319999999999e-01,	 2.3195890212724387e-02,	 6.6577109693157445e+02,	 -8.0110082052767652e+01,	 5.8161828796017608e+02,	 3.8813162961784155e+03,	 4.6279534332397469e+02,	 1.4489633047069934e+00 
1.3868959999999999e+00,	 4.6943319999999999e-01,	 2.3107511413442264e-02,	 6.6734747542087325e+02,	 -8.1228354219431665e+01,	 5.8052845317485765e+02,	 3.8592829799610845e+03,	 4.6236154768196093e+02,	 1.4539980435983693e+00 
1.3943669999999999e+00,	 4.6943299999999999e-01,	 2.3035919611524975e-02,	 6.6872846880536383e+02,	 -8.2112151535009303e+01,	 5.7957120122523497e+02,	 3.8409821518381304e+03,	 4.6198018903020989e+02,	 1.4583976503803593e+00 
1.4018379999999999e+00,	 4.6943249999999997e-01,	 2.2980613937177555e-02,	 6.6987685808972833e+02,	 -8.2730958280717502e+01,	 5.7875005058176907e+02,	 3.8263316167231037e+03,	 4.6165280061448300e+02,	 1.4620646353135252e+00 
1.4093089999999999e+00,	 4.6943200000000002e-01,	 2.2943996329324062e-02,	 6.7075304724122634e+02,	 -8.3024590629167875e+01,	 5.7810967726668594e+02,	 3.8160076905641931e+03,	 4.6139732594431217e+02,	 1.4648369069445708e+00 
1.4167790000000000e+00,	 4.6943119999999999e-01,	 2.2928857453567042e-02,	 6.7133098673428447e+02,	 -8.2915604779619514e+01,	 5.7769691362998651e+02,	 3.8107670299631623e+03,	 4.6123258034994046e+02,	 1.4665746932446559e+00 
1.4242490000000001e+00,	 4.6943040000000003e-01,	 2.2932154363439441e-02,	 6.7166424679279794e+02,	 -8.2442939711672309e+01,	 5.7751661706814912e+02,	 3.8101254811243880e+03,	 4.6116060044503411e+02,	 1.4673955887824461e+00 
1.4317200000000001e+00,	 4.6942929999999999e-01,	 2.2956833662382114e-02,	 6.7162777850341172e+02,	 -8.1498597674212959e+01,	 5.7762894311337209e+02,	 3.8149677514668042e+03,	 4.6120544575892109e+02,	 1.4669263652331077e+00 
1.4391900000000000e+00,	 4.6942810000000001e-01,	 2.3010992081020205e-02,	 6.7126568198497785e+02,	 -8.0032735197203465e+01,	 5.7802524721030727e+02,	 3.8265913773163588e+03,	 4.6136363231643861e+02,	 1.4652647394857310e+00 
1.4466589999999999e+00,	 4.6942679999999998e-01,	 2.3092500843066487e-02,	 6.7060609705452100e+02,	 -7.8080700086729593e+01,	 5.7868135892937767e+02,	 3.8445047185784711e+03,	 4.6162540309227813e+02,	 1.4625199926454993e+00 
1.4541290000000000e+00,	 4.6942529999999999e-01,	 2.3196420668827718e-02,	 6.6966778384544398e+02,	 -7.5698717824547117e+01,	 5.7960097766758986e+02,	 3.8679426212549533e+03,	 4.6199205638124215e+02,	 1.4587537933374721e+00 
1.4615990000000001e+00,	 4.6942380000000000e-01,	 2.3325398996923923e-02,	 6.6844600820712185e+02,	 -7.2879696351415888e+01,	 5.8077137823962721e+02,	 3.8973034688035168e+03,	 4.6245827632689304e+02,	 1.4539846922686921e+00 
1.4690680000000000e+00,	 4.6942210000000001e-01,	 2.3478212755518212e-02,	 6.6696609712130930e+02,	 -6.9675746247698015e+01,	 5.8215863506512392e+02,	 3.9322064835558908e+03,	 4.6301027128854588e+02,	 1.4483385373074091e+00 
1.4765370000000000e+00,	 4.6942030000000001e-01,	 2.3650463798006383e-02,	 6.6525219780828252e+02,	 -6.6180671649542134e+01,	 5.8371229255946093e+02,	 3.9716268558796201e+03,	 4.6362769755327412e+02,	 1.4419673200711496e+00 
1.4840059999999999e+00,	 4.6941840000000001e-01,	 2.3834643605881639e-02,	 6.6333405857838125e+02,	 -6.2515688468845312e+01,	 5.8536225124166322e+02,	 4.0138700884503769e+03,	 4.6428249508058116e+02,	 1.4350604165529726e+00 
1.4914760000000000e+00,	 4.6941650000000001e-01,	 2.4022423799439828e-02,	 6.6127168808064027e+02,	 -5.8789911445822945e+01,	 5.8703450720351998e+02,	 4.0570503049068698e+03,	 4.6494520048854076e+02,	 1.4278669451201367e+00 
1.4989450000000000e+00,	 4.6941450000000001e-01,	 2.4206887070039419e-02,	 6.5914839259033488e+02,	 -5.5097514477154718e+01,	 5.8866943389048333e+02,	 4.0995894577211229e+03,	 4.6559220060165092e+02,	 1.4206577229454975e+00 
1.5064139999999999e+00,	 4.6941240000000001e-01,	 2.4383137420083738e-02,	 6.5705799603785954e+02,	 -5.1502814932784077e+01,	 5.9022596798713869e+02,	 4.1403574511996021e+03,	 4.6620734355306047e+02,	 1.4136915940539321e+00 
1.5138819999999999e+00,	 4.6941030000000000e-01,	 2.4548233348279214e-02,	 6.5508066631965733e+02,	 -4.8052829774551299e+01,	 5.9168001574406901e+02,	 4.1786604382421810e+03,	 4.6678125150592604e+02,	 1.4071703499676298e+00 
1.5213509999999999e+00,	 4.6940809999999999e-01,	 2.4701130347275842e-02,	 6.5326920400230711e+02,	 -4.4771749408030693e+01,	 5.9302317297600484e+02,	 4.2142318892634921e+03,	 4.6731076508472620e+02,	 1.4012123614561525e+00 
1.5288200000000001e+00,	 4.6940589999999999e-01,	 2.4815416770336100e-02,	 6.5210260770027026e+02,	 -4.1938798699767908e+01,	 5.9402069681799355e+02,	 4.2408517209319862e+03,	 4.6770363149075513e+02,	 1.3971450743869733e+00 
1.1549840000000000e+00,	 4.7490729999999998e-01,	 1.7326908949862219e-02,	 7.3118322303419041e+02,	 -2.0221350047463187e+02,	 5.1460195767148502e+02,	 2.5652072858930842e+03,	 4.3531704312265981e+02,	 1.7427064551180198e+00 
1.1624829999999999e+00,	 4.7493249999999998e-01,	 1.7269034616114683e-02,	 7.3158181515174431e+02,	 -2.0494565290590324e+02,	 5.1373935219614293e+02,	 2.5523535437440291e+03,	 4.3495203833313298e+02,	 1.7467361595794433e+00 
1.1699800000000000e+00,	 4.7495589999999999e-01,	 1.7201833165677149e-02,	 7.3217664586881119e+02,	 -2.0786225946518798e+02,	 5.1274837962324250e+02,	 2.5375170285099325e+03,	 4.3453233756948197e+02,	 1.7515626422824229e+00 
1.1774739999999999e+00,	 4.7497760000000000e-01,	 1.7134699583169467e-02,	 7.3278803142947743e+02,	 -2.1069694150790741e+02,	 5.1175363130239612e+02,	 2.5227102104865226e+03,	 4.3411062959456257e+02,	 1.7564122159273854e+00 
1.1849680000000000e+00,	 4.7499760000000002e-01,	 1.7067768374641759e-02,	 7.3341688473943577e+02,	 -2.1344771318317314e+02,	 5.1075697347753226e+02,	 2.5079621784064338e+03,	 4.3368770087487400e+02,	 1.7612805210908964e+00 
1.1924589999999999e+00,	 4.7501610000000000e-01,	 1.7001098475424869e-02,	 7.3406445874897986e+02,	 -2.1610089950868706e+02,	 5.0976429663140294e+02,	 2.4933103225704290e+03,	 4.3326605110380495e+02,	 1.7661493119207552e+00 
1.1999489999999999e+00,	 4.7503309999999999e-01,	 1.6931124696331908e-02,	 7.3476787427432055e+02,	 -2.1874585394376214e+02,	 5.0871872940362960e+02,	 2.4779553294356351e+03,	 4.3282149141734794e+02,	 1.7712564074986046e+00 
1.2074370000000001e+00,	 4.7504839999999998e-01,	 1.6835400022296030e-02,	 7.3576023957162829e+02,	 -2.2210204661486944e+02,	 5.0723917948203132e+02,	 2.4567794392662877e+03,	 4.3219162734550360e+02,	 1.7782671590111516e+00 
1.2149230000000000e+00,	 4.7506240000000000e-01,	 1.6769218598193390e-02,	 7.3613123036413492e+02,	 -2.2501543934273474e+02,	 5.0606026550022017e+02,	 2.4414340797948657e+03,	 4.3168909011126874e+02,	 1.7831211464538785e+00 
1.2224090000000001e+00,	 4.7507519999999998e-01,	 1.7107467900413890e-02,	 7.2999308047815259e+02,	 -2.1614202812381097e+02,	 5.1260533949075545e+02,	 2.5228927974080398e+03,	 4.3447172314235132e+02,	 1.7522876381487156e+00 
1.2298929999999999e+00,	 4.7508689999999998e-01,	 1.9075117970955180e-02,	 7.0464209230131382e+02,	 -1.6897868500896112e+02,	 5.3963383191399384e+02,	 2.9613950056545887e+03,	 4.4577893093466548e+02,	 1.6255144406795057e+00 
1.2373760000000000e+00,	 4.7509750000000001e-01,	 2.2680339856151043e-02,	 6.6270853568242774e+02,	 -9.8219470504702031e+01,	 5.7905824712171523e+02,	 3.7783461838350263e+03,	 4.6177570415372315e+02,	 1.4508071886226961e+00 
1.2448580000000000e+00,	 4.7510720000000001e-01,	 2.5510299340239777e-02,	 6.3105937623053580e+02,	 -4.9837329094948188e+01,	 6.0780940843965789e+02,	 4.4608016273186749e+03,	 4.7310077854668356e+02,	 1.3380325597615992e+00 
1.2523390000000001e+00,	 4.7511609999999999e-01,	 2.6318043888567802e-02,	 6.2314911513904713e+02,	 -3.7384629735567600e+01,	 6.1497877211561809e+02,	 4.6563291164211796e+03,	 4.7588280859842445e+02,	 1.3118135516302190e+00 
1.2598190000000000e+00,	 4.7512420000000000e-01,	 2.6255139849012919e-02,	 6.2465087362970689e+02,	 -3.8959658592272341e+01,	 6.1361687652483783e+02,	 4.6349128126885707e+03,	 4.7535558559619767e+02,	 1.3166241777695511e+00 
1.2672980000000000e+00,	 4.7513139999999998e-01,	 2.6034590565684794e-02,	 6.2757424121991858e+02,	 -4.2261355743879747e+01,	 6.1108461893069716e+02,	 4.5770119065771187e+03,	 4.7437372926252289e+02,	 1.3259494566470567e+00 
1.2747759999999999e+00,	 4.7513800000000000e-01,	 2.5789605890673573e-02,	 6.3069047986681085e+02,	 -4.5569234576743042e+01,	 6.0865637621958092e+02,	 4.5159260221353907e+03,	 4.7343029106809070e+02,	 1.3356445587933570e+00 
1.2822540000000000e+00,	 4.7514390000000001e-01,	 2.5559913091741451e-02,	 6.3375581463383253e+02,	 -4.8582900240345815e+01,	 6.0642734653065691e+02,	 4.4593143451381111e+03,	 4.7256259447979892e+02,	 1.3450392507257505e+00 
1.2897310000000000e+00,	 4.7514930000000000e-01,	 2.5346217072685737e-02,	 6.3666952900095907e+02,	 -5.1390624591752072e+01,	 6.0422335545825740e+02,	 4.4059604641364340e+03,	 4.7170307536860713e+02,	 1.3541150492997527e+00 
1.2972079999999999e+00,	 4.7515410000000002e-01,	 2.5140704525168860e-02,	 6.3959721366094243e+02,	 -5.4197188071209268e+01,	 6.0205614991356651e+02,	 4.3545609969633724e+03,	 4.7085637205485313e+02,	 1.3632380973410549e+00 
1.3046830000000000e+00,	 4.7515829999999998e-01,	 2.4942135214315413e-02,	 6.4254687122703569e+02,	 -5.6985158351033689e+01,	 5.9993105152650151e+02,	 4.3049182402776441e+03,	 4.7002463845655171e+02,	 1.3724149182910677e+00 
1.3121590000000001e+00,	 4.7516209999999998e-01,	 2.4746265679160287e-02,	 6.4542094372749784e+02,	 -5.9715422797799548e+01,	 5.9779314981364689e+02,	 4.2558914542405728e+03,	 4.6918640604131627e+02,	 1.3814925878893689e+00 
1.3196330000000001e+00,	 4.7516540000000002e-01,	 2.4554311929603938e-02,	 6.4822261086419223e+02,	 -6.2297120176694293e+01,	 5.9563852439020366e+02,	 4.2076585060426714e+03,	 4.6834009865234577e+02,	 1.3904622936879929e+00 
1.3271080000000000e+00,	 4.7516809999999998e-01,	 2.4370856765266014e-02,	 6.5094795981770415e+02,	 -6.4757676822782457e+01,	 5.9354012784430540e+02,	 4.1615088311744230e+03,	 4.6751440463985870e+02,	 1.3992320623773808e+00 
1.3345810000000000e+00,	 4.7517039999999999e-01,	 2.4195285292113348e-02,	 6.5357295301964859e+02,	 -6.7128949491595463e+01,	 5.9150282259265225e+02,	 4.1173473447587903e+03,	 4.6671135170187438e+02,	 1.4077466458026691e+00 
1.3420540000000001e+00,	 4.7517219999999999e-01,	 2.4025715140295202e-02,	 6.5605766120103669e+02,	 -6.9393096716471078e+01,	 5.8952717833429563e+02,	 4.0748356094832880e+03,	 4.6593128203725070e+02,	 1.4159113846305351e+00 
1.3495269999999999e+00,	 4.7517379999999998e-01,	 2.3862352633889312e-02,	 6.5837005172928389e+02,	 -7.1511688185096261e+01,	 5.8765998618761523e+02,	 4.0343104705903679e+03,	 4.6519283161131148e+02,	 1.4235869362178479e+00 
1.3570000000000000e+00,	 4.7517500000000001e-01,	 2.3707002479137866e-02,	 6.6051531304627849e+02,	 -7.3486360047601750e+01,	 5.8592990838441881e+02,	 3.9962463206174002e+03,	 4.6450756033680437e+02,	 1.4307423615659276e+00 
1.3644719999999999e+00,	 4.7517589999999998e-01,	 2.3561385447699576e-02,	 6.6252049623593541e+02,	 -7.5324442532598681e+01,	 5.8434491481985049e+02,	 3.9609561136369812e+03,	 4.6387886733285620e+02,	 1.4374198822172106e+00 
1.3719440000000001e+00,	 4.7517650000000000e-01,	 2.3427846986795849e-02,	 6.6442352676777523e+02,	 -7.7004402654376207e+01,	 5.8291789528767731e+02,	 3.9288885052504611e+03,	 4.6331210545577585e+02,	 1.4436724340610021e+00 
1.3794150000000001e+00,	 4.7517690000000001e-01,	 2.3309311807936210e-02,	 6.6624047583144272e+02,	 -7.8511490462760037e+01,	 5.8161503189242251e+02,	 3.9002730423940193e+03,	 4.6279404789092689e+02,	 1.4495660158573787e+00 
1.3868870000000000e+00,	 4.7517710000000002e-01,	 2.3206822044895027e-02,	 6.6793803022525867e+02,	 -7.9850296707355881e+01,	 5.8037163454569645e+02,	 3.8748222757895683e+03,	 4.6229909441120680e+02,	 1.4551057011600008e+00 
1.3943580000000000e+00,	 4.7517700000000002e-01,	 2.3119183084793986e-02,	 6.6944345812610493e+02,	 -8.0997661713071338e+01,	 5.7922183772686867e+02,	 3.8525417060556429e+03,	 4.6184092801732771e+02,	 1.4600821848521643e+00 
1.4018290000000000e+00,	 4.7517680000000001e-01,	 2.3045800627484649e-02,	 6.7071718112833514e+02,	 -8.1893065323773698e+01,	 5.7822830597399491e+02,	 3.8337261370032102e+03,	 4.6144466312171534e+02,	 1.4643102841128173e+00 
1.4092990000000001e+00,	 4.7517640000000000e-01,	 2.2988985205672680e-02,	 6.7174015448999990e+02,	 -8.2477008479797348e+01,	 5.7742519653394857e+02,	 3.8189631614855480e+03,	 4.6112409827714083e+02,	 1.4676841367518023e+00 
1.4167700000000001e+00,	 4.7517579999999998e-01,	 2.2952725086910420e-02,	 6.7248812755007759e+02,	 -8.2667422263253798e+01,	 5.7684663879662139e+02,	 3.8091191604627670e+03,	 4.6089302611612874e+02,	 1.4700811160950520e+00 
1.4242400000000000e+00,	 4.7517510000000002e-01,	 2.2938060620057744e-02,	 6.7297498316357576e+02,	 -8.2429771773845772e+01,	 5.7650352336639776e+02,	 3.8044212560108272e+03,	 4.6075593332479576e+02,	 1.4715044825589396e+00 
1.4317100000000000e+00,	 4.7517419999999999e-01,	 2.2945629203832349e-02,	 6.7316439850434745e+02,	 -8.1778253846653527e+01,	 5.7641128616940318e+02,	 3.8050676670878502e+03,	 4.6071907272109320e+02,	 1.4718590845221236e+00 
1.4391810000000000e+00,	 4.7517320000000002e-01,	 2.2975534619899041e-02,	 6.7307573981986548e+02,	 -8.0730836931049396e+01,	 5.7657601805731406e+02,	 3.8111157373793308e+03,	 4.6078490219281554e+02,	 1.4711853705043598e+00 
1.4466500000000000e+00,	 4.7517199999999998e-01,	 2.3030150721823281e-02,	 6.7270184800679056e+02,	 -7.9175537819531769e+01,	 5.7700735506997478e+02,	 3.8230331760167587e+03,	 4.6095722675968426e+02,	 1.4694318193099170e+00 
1.4541200000000001e+00,	 4.7517070000000000e-01,	 2.3112767966608612e-02,	 6.7201268615707829e+02,	 -7.7150558332423770e+01,	 5.7770659124273266e+02,	 3.8413972346450773e+03,	 4.6123644363144643e+02,	 1.4665511394608874e+00 
1.4615899999999999e+00,	 4.7516920000000001e-01,	 2.3222080700423781e-02,	 6.7102726623020396e+02,	 -7.4667840897082996e+01,	 5.7865228229218769e+02,	 3.8658832826092016e+03,	 4.6161380544638143e+02,	 1.4626269184624345e+00 
1.4690589999999999e+00,	 4.7516770000000003e-01,	 2.3356680713214020e-02,	 6.6974313583117862e+02,	 -7.1764456482175220e+01,	 5.7982938772509601e+02,	 3.8962003813798310e+03,	 4.6208307868973498e+02,	 1.4576967942336676e+00 
1.4765280000000001e+00,	 4.7516609999999998e-01,	 2.3512957108486745e-02,	 6.6816340774821674e+02,	 -6.8511751321493378e+01,	 5.8120798040446232e+02,	 3.9315948539037595e+03,	 4.6263207307313775e+02,	 1.4518378028141339e+00 
1.4839979999999999e+00,	 4.7516439999999999e-01,	 2.3685206300927113e-02,	 6.6631583308088329e+02,	 -6.5005663672162527e+01,	 5.8274049391641086e+02,	 3.9708392590748704e+03,	 4.6324159942233092e+02,	 1.4452054722732419e+00 
1.4914670000000001e+00,	 4.7516259999999999e-01,	 2.3866963599340776e-02,	 6.6426789226251981e+02,	 -6.1336388920524463e+01,	 5.8437052591703377e+02,	 4.0125033812423831e+03,	 4.6388903283295542e+02,	 1.4380458220214773e+00 
1.4989360000000000e+00,	 4.7516069999999999e-01,	 2.4051957644004099e-02,	 6.6211397964988350e+02,	 -5.7594616097613468e+01,	 5.8604029527669468e+02,	 4.0551586178511379e+03,	 4.6455131397566981e+02,	 1.4306583585609332e+00 
1.5064050000000000e+00,	 4.7515879999999999e-01,	 2.4234477010265980e-02,	 6.5995789163177574e+02,	 -5.3864819335719872e+01,	 5.8769356834624102e+02,	 4.0974581567551650e+03,	 4.6520612327371134e+02,	 1.4233527775286914e+00 
1.5138739999999999e+00,	 4.7515679999999999e-01,	 2.4409782930066268e-02,	 6.5789110285035895e+02,	 -5.0225349197220957e+01,	 5.8928076072403587e+02,	 4.1382442186490671e+03,	 4.6583389409858518e+02,	 1.4163964915396499e+00 
1.5213429999999999e+00,	 4.7515469999999999e-01,	 2.4574334703916387e-02,	 6.5597540602756442e+02,	 -4.6737730701876593e+01,	 5.9076292383792907e+02,	 4.1766197502509167e+03,	 4.6641936053082719e+02,	 1.4099721563349936e+00 
1.5288120000000001e+00,	 4.7515259999999998e-01,	 2.4696659772512994e-02,	 6.5473789133881724e+02,	 -4.3758163377564813e+01,	 5.9184338558501918e+02,	 4.2050867015165350e+03,	 4.6684568896670083e+02,	 1.4056004468089018e+00 
1.1549700000000001e+00,	 4.8064459999999998e-01,	 1.7561649957359062e-02,	 7.2946318797473396e+02,	 -1.9772675658821728e+02,	 5.1679658952941281e+02,	 2.6110482235521822e+03,	 4.3624430760092224e+02,	 1.7324832528156249e+00 
1.1624699999999999e+00,	 4.8067019999999999e-01,	 1.7499706900398697e-02,	 7.2992000773808070e+02,	 -2.0049432778124856e+02,	 5.1589203529943040e+02,	 2.5972845688878087e+03,	 4.3586235901224472e+02,	 1.7366840620147266e+00 
1.1699670000000000e+00,	 4.8069400000000001e-01,	 1.7428020698705259e-02,	 7.3058676512908892e+02,	 -2.0343759031104332e+02,	 5.1485418087817766e+02,	 2.5814412663838043e+03,	 4.3542371159566454e+02,	 1.7417113178109442e+00 
1.1774620000000000e+00,	 4.8071599999999998e-01,	 1.7357345190457257e-02,	 7.3126297289439196e+02,	 -2.0628157212545426e+02,	 5.1382372391149784e+02,	 2.5658271147568280e+03,	 4.3498775308110680e+02,	 1.7467182375281005e+00 
1.1849550000000000e+00,	 4.8073640000000001e-01,	 1.7287266117793285e-02,	 7.3195348192872189e+02,	 -2.0903639417035600e+02,	 5.1279487653418016e+02,	 2.5503508631306481e+03,	 4.3455203919525053e+02,	 1.7517292568527925e+00 
1.1924470000000000e+00,	 4.8075519999999999e-01,	 1.7217390301954162e-02,	 7.3265657232238027e+02,	 -2.1170705683766292e+02,	 5.1176280752745578e+02,	 2.5349300653407786e+03,	 4.3411452158353683e+02,	 1.7567499516273932e+00 
1.1999370000000000e+00,	 4.8077249999999999e-01,	 1.7147611555336117e-02,	 7.3337160477133227e+02,	 -2.1428750457145173e+02,	 5.1072915384768305e+02,	 2.5195572076914941e+03,	 4.3367588978248818e+02,	 1.7617703690717819e+00 
1.2074250000000000e+00,	 4.8078820000000000e-01,	 1.7075352040821928e-02,	 7.3413678374534356e+02,	 -2.1684927962312923e+02,	 5.0966608180568079e+02,	 2.5037175642920242e+03,	 4.3322431102919842e+02,	 1.7669682070618513e+00 
1.2149120000000000e+00,	 4.8080250000000002e-01,	 1.6979455353586498e-02,	 7.3509995501761330e+02,	 -2.2008188712364796e+02,	 5.0818177024805004e+02,	 2.4824057846262835e+03,	 4.3259300678648560e+02,	 1.7738110235106679e+00 
1.2223970000000000e+00,	 4.8081550000000001e-01,	 1.6883094219245911e-02,	 7.3581459064387138e+02,	 -2.2407431972195519e+02,	 5.0605115667216626e+02,	 2.4579690125392549e+03,	 4.3168520500147343e+02,	 1.7817994268788209e+00 
1.2298819999999999e+00,	 4.8082750000000002e-01,	 1.7052977525384972e-02,	 7.3283762168109320e+02,	 -2.2077274446569612e+02,	 5.0782804420220646e+02,	 2.4914193764742390e+03,	 4.3244242479030481e+02,	 1.7698777529013867e+00 
1.2373650000000000e+00,	 4.8083830000000000e-01,	 1.8505185131235023e-02,	 7.1461505176526975e+02,	 -1.8601402851808339e+02,	 5.2814698687194709e+02,	 2.8117595454507527e+03,	 4.4100890276935888e+02,	 1.6744060759459918e+00 
1.2448470000000000e+00,	 4.8084830000000001e-01,	 2.1850078780316275e-02,	 6.7571800596216474e+02,	 -1.1629109753470661e+02,	 5.6730615038536678e+02,	 3.5661568152614041e+03,	 4.5706577175223191e+02,	 1.5001163516739859e+00 
1.2523280000000001e+00,	 4.8085739999999999e-01,	 2.4970634865229071e-02,	 6.4112465946145812e+02,	 -6.0144299863307431e+01,	 5.9941065145239304e+02,	 4.3060986766988526e+03,	 4.6982073675584491e+02,	 1.3706069496048590e+00 
1.2598080000000000e+00,	 4.8086570000000001e-01,	 2.6211670748518785e-02,	 6.2836312123396601e+02,	 -4.0770005330798625e+01,	 6.1113782598862440e+02,	 4.6085447234161229e+03,	 4.7439438064231751e+02,	 1.3273436520495572e+00 
1.2672870000000001e+00,	 4.8087320000000000e-01,	 2.6285748657096437e-02,	 6.2821857847782678e+02,	 -3.9584146872845089e+01,	 6.1101492555584218e+02,	 4.6206397238849140e+03,	 4.7434667764986841e+02,	 1.3270134993435532e+00 
1.2747660000000001e+00,	 4.8087999999999997e-01,	 2.6080905840197954e-02,	 6.3071670671161428e+02,	 -4.2632611894592351e+01,	 6.0859414667338797e+02,	 4.5664675913804485e+03,	 4.7340608849140278e+02,	 1.3353354184158046e+00 
1.2822439999999999e+00,	 4.8088609999999998e-01,	 2.5835601927012862e-02,	 6.3360789549371793e+02,	 -4.5858223757822401e+01,	 6.0604102567626376e+02,	 4.5045410223942436e+03,	 4.7241204893599013e+02,	 1.3447270335860837e+00 
1.2897209999999999e+00,	 4.8089169999999998e-01,	 2.5605283077694788e-02,	 6.3660826222585570e+02,	 -4.8810320337296361e+01,	 6.0374239245643378e+02,	 4.4474511890875774e+03,	 4.7151529969706621e+02,	 1.3540954540945229e+00 
1.2971969999999999e+00,	 4.8089670000000001e-01,	 2.5391955374294090e-02,	 6.3961285342633505e+02,	 -5.1703629304680938e+01,	 6.0163068222076072e+02,	 4.3949714691199451e+03,	 4.7068996765852438e+02,	 1.3633160836631166e+00 
1.3046730000000000e+00,	 4.8090119999999997e-01,	 2.5186803861857482e-02,	 6.4257368316539976e+02,	 -5.4537902383359807e+01,	 5.9956065821817936e+02,	 4.3444632250751583e+03,	 4.6987952106365060e+02,	 1.3724453407578152e+00 
1.3121490000000000e+00,	 4.8090519999999998e-01,	 2.4983176520254998e-02,	 6.4547189530202911e+02,	 -5.7252509429531365e+01,	 5.9747483002098522e+02,	 4.2943477331686108e+03,	 4.6906147051227003e+02,	 1.3814949056795556e+00 
1.3196239999999999e+00,	 4.8090860000000002e-01,	 2.4785206882647515e-02,	 6.4826388767042886e+02,	 -5.9825428142317122e+01,	 5.9540965998830734e+02,	 4.2455930354567627e+03,	 4.6825011398017796e+02,	 1.3903222415046577e+00 
1.3270980000000001e+00,	 4.8091149999999999e-01,	 2.4595958212598478e-02,	 6.5095829571595857e+02,	 -6.2294714213439534e+01,	 5.9340152177552909e+02,	 4.1989658226388447e+03,	 4.6745981345533812e+02,	 1.3989057248129408e+00 
1.3345720000000001e+00,	 4.8091400000000001e-01,	 2.4412171141432321e-02,	 6.5355374379905913e+02,	 -6.4674064195068325e+01,	 5.9144241679789150e+02,	 4.1538308860176348e+03,	 4.6668752020957618e+02,	 1.4072498454542779e+00 
1.3420449999999999e+00,	 4.8091600000000001e-01,	 2.4232497232689304e-02,	 6.5599983391896831e+02,	 -6.6946024433118254e+01,	 5.8955260050915456e+02,	 4.1100837234759665e+03,	 4.6594132810405176e+02,	 1.4152145997399759e+00 
1.3495180000000000e+00,	 4.8091770000000000e-01,	 2.4058107316873991e-02,	 6.5829213228168589e+02,	 -6.9099136965365261e+01,	 5.8775964291612468e+02,	 4.0680956751157105e+03,	 4.6523227417294493e+02,	 1.4227490406854804e+00 
1.3569899999999999e+00,	 4.8091909999999999e-01,	 2.3891037408849083e-02,	 6.6046181354979967e+02,	 -7.1155986263866879e+01,	 5.8606837289306384e+02,	 4.0282204615677379e+03,	 4.6456244233787942e+02,	 1.4299128608922418e+00 
1.3644630000000000e+00,	 4.8092020000000002e-01,	 2.3733575831240465e-02,	 6.6256123729039962e+02,	 -7.3113774430289070e+01,	 5.8446812100303055e+02,	 3.9907446672057322e+03,	 4.6392776801717639e+02,	 1.4368251631542839e+00 
1.3719349999999999e+00,	 4.8092099999999999e-01,	 2.3588194956497159e-02,	 6.6461779745608828e+02,	 -7.4942090851444547e+01,	 5.8295330574530658e+02,	 3.9560194250609720e+03,	 4.6332617763014611e+02,	 1.4435395773645334e+00 