TITLE = "Final State"
VARIABLES = "X", "Y", "rho", "u", "v", "T", "p", "c", "M"
ZONE I=51, J=46, DATAPACKING=POINT
1.5286560000000000e+00,	 7.3998799999999998e-01,	 1.9195483961695309e-02,	 7.7721077695044016e+02,	 -1.1638602462886588e+02,	 4.9280598759022661e+02,	 2.7214789498363439e+03,	 4.2599837404948181e+02,	 1.8447881927559695e+00 
1.5361250000000000e+00,	 7.3998929999999996e-01,	 1.9050861081676869e-02,	 7.7772039641418792e+02,	 -1.1693347177991011e+02,	 4.9226670143005197e+02,	 2.6980190219729984e+03,	 4.2576522153273072e+02,	 1.8471729111147919e+00 
1.5435939999999999e+00,	 7.3999070000000000e-01,	 1.8887776120502842e-02,	 7.7848414952598648e+02,	 -1.1753259945648446e+02,	 4.9164488972222080e+02,	 2.6715437651382858e+03,	 4.2549623171917938e+02,	 1.8503253722865376e+00 
1.5510640000000000e+00,	 7.3999199999999998e-01,	 1.8725641331817672e-02,	 7.7926470356224911e+02,	 -1.1812483919011163e+02,	 4.9106604815262256e+02,	 2.6454925731003364e+03,	 4.2524567745863050e+02,	 1.8534387867487887e+00 
1.5585329999999999e+00,	 7.3999320000000002e-01,	 1.8565868642514367e-02,	 7.8008306232666382e+02,	 -1.1869856899602715e+02,	 4.9053161608028665e+02,	 2.6200659005222824e+03,	 4.2501421491214330e+02,	 1.8565545156803014e+00 
1.5660019999999999e+00,	 7.3999450000000000e-01,	 1.8409643443422191e-02,	 7.8095308406509253e+02,	 -1.1924649970202819e+02,	 4.9003861274794815e+02,	 2.5954078653292686e+03,	 4.2480058332229936e+02,	 1.8597072236257313e+00 
1.5734710000000001e+00,	 7.3999559999999998e-01,	 1.8257799450618829e-02,	 7.8187266828895258e+02,	 -1.1976798980371532e+02,	 4.8957933568774763e+02,	 2.5715883433804843e+03,	 4.2460146952501754e+02,	 1.8629058625882837e+00 
1.5809400000000000e+00,	 7.3999680000000001e-01,	 1.8110490124019260e-02,	 7.8282674805964086e+02,	 -1.2025834386575197e+02,	 4.8913971667402086e+02,	 2.5485494746597442e+03,	 4.2441079072377306e+02,	 1.8661400313768925e+00 
1.5884090000000000e+00,	 7.3999789999999999e-01,	 1.7966996344522201e-02,	 7.8379379741248408e+02,	 -1.2070967536868686e+02,	 4.8869715977498208e+02,	 2.5260691320074193e+03,	 4.2421875108672617e+02,	 1.8693996605625534e+00 
1.5958779999999999e+00,	 7.3999899999999996e-01,	 1.7826144010963992e-02,	 7.8475073091700244e+02,	 -1.2111151721482382e+02,	 4.8822569937337607e+02,	 2.5038481359052544e+03,	 4.2401407361003152e+02,	 1.8726769392327935e+00 
1.6033470000000001e+00,	 7.4000010000000005e-01,	 1.7687067472073575e-02,	 7.8567367962638946e+02,	 -1.2146056986153437e+02,	 4.8770440165755508e+02,	 2.4816609403378011e+03,	 4.2378764492912410e+02,	 1.8759555699547030e+00 
1.6108160000000000e+00,	 7.4000120000000003e-01,	 1.7549554787473241e-02,	 7.8654634293086247e+02,	 -1.2175831962061002e+02,	 4.8712293247212460e+02,	 2.4594308500973702e+03,	 4.2353493760422816e+02,	 1.8792185652490041e+00 
1.6182850000000000e+00,	 7.4000220000000005e-01,	 1.7413974226469661e-02,	 7.8736666194602685e+02,	 -1.2201238465685074e+02,	 4.8648071765909333e+02,	 2.4372128873506235e+03,	 4.2325565479697008e+02,	 1.8824657123260782e+00 
1.6257539999999999e+00,	 7.4000319999999997e-01,	 1.7280931577881763e-02,	 7.8814853268312015e+02,	 -1.2222778878613056e+02,	 4.8578380688283858e+02,	 2.4151278280513047e+03,	 4.2295237746991370e+02,	 1.8857203323917848e+00 
1.6332230000000001e+00,	 7.4000420000000000e-01,	 1.7150934654629350e-02,	 7.8890998505691459e+02,	 -1.2240997711670408e+02,	 4.8504111985649376e+02,	 2.3932952984707222e+03,	 4.2262893997424868e+02,	 1.8890099633213187e+00 
1.6406920000000000e+00,	 7.4000520000000003e-01,	 1.7024126493600383e-02,	 7.8966373149384344e+02,	 -1.2256186338033103e+02,	 4.8426084807995323e+02,	 2.3717785294166770e+03,	 4.2228886760910223e+02,	 1.8923501482745719e+00 
1.6481610000000000e+00,	 7.4000619999999995e-01,	 1.6900168909077386e-02,	 7.9040913394280301e+02,	 -1.2268890222482584e+02,	 4.8344820830647569e+02,	 2.3505578151415407e+03,	 4.2193439664561907e+02,	 1.8957318367583613e+00 
1.6556299999999999e+00,	 7.4000719999999998e-01,	 1.6778289777882427e-02,	 7.9113574150888257e+02,	 -1.2279438270184421e+02,	 4.8260558791148560e+02,	 2.3295389401510547e+03,	 4.2156653347646710e+02,	 1.8991276431634545e+00 
1.6630990000000001e+00,	 7.4000809999999995e-01,	 1.6657585399131203e-02,	 7.9182988731011244e+02,	 -1.2288467313253977e+02,	 4.8173512323417810e+02,	 2.3086085393460212e+03,	 4.2118617692454575e+02,	 1.9025041234129720e+00 
1.6705680000000001e+00,	 7.4000909999999998e-01,	 1.6537374739158079e-02,	 7.9248777244891926e+02,	 -1.2296634353417357e+02,	 4.8084170053831929e+02,	 2.2876976684227025e+03,	 4.2079543115673380e+02,	 1.9058454699913676e+00 
1.6780370000000000e+00,	 7.4000999999999995e-01,	 1.6417284327554883e-02,	 7.9311929274400677e+02,	 -1.2305195713266079e+02,	 4.7993340681589450e+02,	 2.2667949590714393e+03,	 4.2039780911992415e+02,	 1.9091637222397280e+00 
1.6855059999999999e+00,	 7.4001090000000003e-01,	 1.6297008175631979e-02,	 7.9374868361284484e+02,	 -1.2315861413667633e+02,	 4.7901788003946166e+02,	 2.2458955016098789e+03,	 4.1999663973490772e+02,	 1.9125070823632939e+00 
1.6929740000000000e+00,	 7.4001189999999994e-01,	 1.6175856827313685e-02,	 7.9440689840019763e+02,	 -1.2331777327346089e+02,	 4.7809620983948201e+02,	 2.2249104333397204e+03,	 4.1959239097427900e+02,	 1.9159579687311414e+00 
1.7004429999999999e+00,	 7.4001280000000003e-01,	 1.6050606496328258e-02,	 7.9514963302202750e+02,	 -1.2362828069763947e+02,	 4.7712987879793940e+02,	 2.2032206771165484e+03,	 4.1916813510973248e+02,	 1.9197618222729014e+00 
1.7079120000000001e+00,	 7.4001370000000000e-01,	 1.5925747881247163e-02,	 7.9589918211578924e+02,	 -1.2394493588339355e+02,	 4.7621063130037953e+02,	 2.1818699468962363e+03,	 4.1876415178544590e+02,	 1.9234987108827919e+00 
1.7153810000000000e+00,	 7.4001459999999997e-01,	 1.5823415596559504e-02,	 7.9644585338207094e+02,	 -1.2368561429236392e+02,	 4.7566180437355416e+02,	 2.1653517301106449e+03,	 4.1852277193758647e+02,	 1.9258035394665400e+00 
1.7228500000000000e+00,	 7.4001550000000005e-01,	 1.5765026293807882e-02,	 7.9655997107263067e+02,	 -1.2217490485722894e+02,	 4.7579877928557858e+02,	 2.1579827081247331e+03,	 4.1858302797754328e+02,	 1.9252452518921552e+00 
1.7303180000000000e+00,	 7.4001640000000002e-01,	 1.5810573301557003e-02,	 7.9553133075030473e+02,	 -1.1831569493073371e+02,	 4.7743954753289643e+02,	 2.1716805681225615e+03,	 4.1930413813257223e+02,	 1.9181338999502138e+00 
1.7377870000000000e+00,	 7.4001720000000004e-01,	 1.6049661810461399e-02,	 7.9235976328530978e+02,	 -1.0879888943208300e+02,	 4.8094506623955380e+02,	 2.2207071813289217e+03,	 4.2084065755605133e+02,	 1.9004686328367359e+00 
1.7452559999999999e+00,	 7.4001810000000001e-01,	 1.6638412811781668e-02,	 7.8478639901023234e+02,	 -9.0461504389093477e+01,	 4.8928702815135114e+02,	 2.3421005429088259e+03,	 4.2447469462679965e+02,	 1.8610836073881685e+00 
1.7527250000000001e+00,	 7.4001899999999998e-01,	 1.7513460651440188e-02,	 7.7391687327167642e+02,	 -6.5503755937632874e+01,	 5.0207301852355187e+02,	 2.5296986638660924e+03,	 4.2998508863917044e+02,	 1.8063045480276612e+00 
1.7601940000000000e+00,	 7.4001989999999995e-01,	 1.8402314010085043e-02,	 7.6344809331982265e+02,	 -4.2691325979801512e+01,	 5.1376240166456819e+02,	 2.7199736259183046e+03,	 4.3496179551912962e+02,	 1.7579493180601584e+00 
1.7676620000000001e+00,	 7.4002069999999998e-01,	 1.9021008719918818e-02,	 7.5626232165636009e+02,	 -2.7456500091702480e+01,	 5.2084632957945360e+02,	 2.8501852626331470e+03,	 4.3795022880071940e+02,	 1.7279602088906270e+00 
1.7751310000000000e+00,	 7.4002159999999995e-01,	 1.9341366857623249e-02,	 7.5231625534458863e+02,	 -1.8884057311225931e+01,	 5.2411797041831392e+02,	 2.9163936943918447e+03,	 4.3932354449057738e+02,	 1.7129817737250828e+00 
1.7826000000000000e+00,	 7.4002250000000003e-01,	 1.9467774085057260e-02,	 7.5042130905004024e+02,	 -1.4380762807341949e+01,	 5.2479498149110873e+02,	 2.9392458155686741e+03,	 4.3960719333990318e+02,	 1.7073403285029161e+00 
1.7900689999999999e+00,	 7.4002330000000005e-01,	 1.9480882546938680e-02,	 7.4988281139555318e+02,	 -1.2035346182856728e+01,	 5.2476497974441327e+02,	 2.9410567865638354e+03,	 4.3959462731638041e+02,	 1.7060704113196217e+00 
1.7975369999999999e+00,	 7.4002420000000002e-01,	 1.9448715946480684e-02,	 7.5001080636173128e+02,	 -1.0264139051674043e+01,	 5.2497710339425907e+02,	 2.9373874373539570e+03,	 4.3968346612893777e+02,	 1.7059568868920387e+00 
1.8050060000000001e+00,	 7.4002509999999999e-01,	 1.9406948012881960e-02,	 7.5031660148424589e+02,	 -8.7114469445058695e+00,	 5.2486519570733594e+02,	 2.9304543147970558e+03,	 4.3963660067347621e+02,	 1.7067895852040009e+00 
1.8124750000000001e+00,	 7.4002590000000001e-01,	 1.9379417078474619e-02,	 7.5050890661708127e+02,	 -6.9559792621696994e+00,	 5.2484325090800019e+02,	 2.9261747868571110e+03,	 4.3962740989658028e+02,	 1.7072209881698968e+00 
1.8199440000000000e+00,	 7.4002679999999998e-01,	 1.9379501670385525e-02,	 7.5040351224789856e+02,	 -4.7195428894614908e+00,	 5.2506467824099559e+02,	 2.9274220957614380e+03,	 4.3972013782968202e+02,	 1.7065817299387271e+00 
1.8274120000000000e+00,	 7.4002760000000001e-01,	 1.9422378966186121e-02,	 7.4979258413245861e+02,	 -1.5983276378573001e+00,	 5.2572147777491091e+02,	 2.9375690322309556e+03,	 4.3999507321673531e+02,	 1.7040970077706781e+00 
1.8348810000000000e+00,	 7.4002849999999998e-01,	 1.9526649450672499e-02,	 7.4847140136392443e+02,	 2.6473248312434450e+00,	 5.2694155303223647e+02,	 2.9601935927812401e+03,	 4.4050533960640507e+02,	 1.6991305571443722e+00 
1.8423499999999999e+00,	 7.4002939999999995e-01,	 1.9695477232154850e-02,	 7.4639850250178233e+02,	 7.9514598915213508e+00,	 5.2870680304843063e+02,	 2.9957898470713940e+03,	 4.4124256738979966e+02,	 1.6916791586432023e+00 
1.8498190000000001e+00,	 7.4003019999999997e-01,	 1.9917244612093828e-02,	 7.4367351983140907e+02,	 1.4039311536320811e+01,	 5.3085954251960061e+02,	 3.0418572059650801e+03,	 4.4213996017963620e+02,	 1.6822863671445194e+00 
1.8572869999999999e+00,	 7.4003110000000005e-01,	 2.0169270200913317e-02,	 7.4053660777909749e+02,	 2.0512925292773630e+01,	 5.3324942499864778e+02,	 3.0942152155478029e+03,	 4.4313407997857229e+02,	 1.6717754098297022e+00 
1.8647560000000001e+00,	 7.4003189999999996e-01,	 2.0425485648506124e-02,	 7.3729646809349106e+02,	 2.7000537871588019e+01,	 5.3570294879029689e+02,	 3.1479394181598359e+03,	 4.4415235792340297e+02,	 1.6611207454056327e+00 
1.8722250000000000e+00,	 7.4003280000000005e-01,	 2.0661037488453708e-02,	 7.3430483443029573e+02,	 3.3013469356327768e+01,	 5.3788790064819909e+02,	 3.1972296990177761e+03,	 4.4505721013532747e+02,	 1.6515777436168175e+00 
1.8796930000000001e+00,	 7.4003359999999996e-01,	 2.0859081093556220e-02,	 7.3182602495057608e+02,	 3.8253476828058396e+01,	 5.3962092105958368e+02,	 3.2382762066954060e+03,	 4.4577359822481560e+02,	 1.6439401633834050e+00 
1.8871620000000000e+00,	 7.4003450000000004e-01,	 2.1013911428944192e-02,	 7.2999044967994121e+02,	 4.2651615089787569e+01,	 5.4087155111259381e+02,	 3.2698736669304230e+03,	 4.4628986362090660e+02,	 1.6384763898404617e+00 
1.8946310000000000e+00,	 7.4003540000000001e-01,	 2.1127461795675706e-02,	 7.2880589510044456e+02,	 4.6293776299979619e+01,	 5.4167408331571505e+02,	 3.2924206700510495e+03,	 4.4662083797811209e+02,	 1.6351111369235418e+00 
1.9020999999999999e+00,	 7.4003620000000003e-01,	 2.1200284927381505e-02,	 7.2828364539884569e+02,	 4.9161510198992545e+01,	 5.4210617019705285e+02,	 3.3064045176758450e+03,	 4.4679893449597290e+02,	 1.6337125805210448e+00 
1.5286550000000001e+00,	 7.4574759999999995e-01,	 1.9133434916216566e-02,	 7.7332847607878409e+02,	 -1.1305403954654770e+02,	 4.9644453152636271e+02,	 2.7327104155704374e+03,	 4.2756812288731533e+02,	 1.8278924823699141e+00 
1.5361240000000000e+00,	 7.4574910000000005e-01,	 1.8985573551432218e-02,	 7.7379061562139259e+02,	 -1.1361210956691907e+02,	 4.9597817791438450e+02,	 2.7090450545098470e+03,	 4.2736724970231427e+02,	 1.8300108737295107e+00 
1.5435930000000000e+00,	 7.4575049999999998e-01,	 1.8818673973111030e-02,	 7.7449119562266276e+02,	 -1.1420723908211657e+02,	 4.9544681208028999e+02,	 2.6823533909616431e+03,	 4.2713825856867811e+02,	 1.8328174813479832e+00 
1.5510630000000001e+00,	 7.4575179999999996e-01,	 1.8653171362294343e-02,	 7.7521101307987635e+02,	 -1.1478803819989803e+02,	 4.9494542970100173e+02,	 2.6560725642076345e+03,	 4.2692207612497771e+02,	 1.8356123925863914e+00 
1.5585320000000000e+00,	 7.4575309999999995e-01,	 1.8490514728614987e-02,	 7.7597293909250811e+02,	 -1.1535130769014545e+02,	 4.9447127872693818e+02,	 2.6303891786927747e+03,	 4.2671753436183474e+02,	 1.8384522091894413e+00 
1.5660010000000000e+00,	 7.4575440000000004e-01,	 1.8332187742009943e-02,	 7.7678903866412656e+02,	 -1.1589286415192910e+02,	 4.9402206813382566e+02,	 2.6054970342680585e+03,	 4.2652366102699926e+02,	 1.8413673945003595e+00 
1.5734699999999999e+00,	 7.4575559999999996e-01,	 1.8179171096849779e-02,	 7.7765689601502595e+02,	 -1.1641093748044058e+02,	 4.9359095766405630e+02,	 2.5814945328425551e+03,	 4.2633751656007325e+02,	 1.8443642191540761e+00 
1.5809390000000001e+00,	 7.4575680000000000e-01,	 1.8031425703632847e-02,	 7.7856459898342882e+02,	 -1.1689800745148013e+02,	 4.9316162366465147e+02,	 2.5582870826281155e+03,	 4.2615205832926358e+02,	 1.8474427870306960e+00 
1.5884080000000000e+00,	 7.4575800000000003e-01,	 1.7887987327463849e-02,	 7.7949333422379937e+02,	 -1.1734332689829786e+02,	 4.9270978269705182e+02,	 2.5356108486146727e+03,	 4.2595679061760131e+02,	 1.8506012434430517e+00 
1.5958779999999999e+00,	 7.4575919999999996e-01,	 1.7747669214965303e-02,	 7.8041882847101635e+02,	 -1.1773838808542109e+02,	 4.9221119381044610e+02,	 2.5131751063501647e+03,	 4.2574121637440601e+02,	 1.8538261464074970e+00 
1.6033470000000001e+00,	 7.4576030000000004e-01,	 1.7609663380481509e-02,	 7.8131474966981000e+02,	 -1.1808264430449888e+02,	 4.9164909684994245e+02,	 2.4907849757337108e+03,	 4.2549805225387803e+02,	 1.8570883530407594e+00 
1.6108160000000000e+00,	 7.4576149999999997e-01,	 1.7473703221892373e-02,	 7.8216359638040899e+02,	 -1.1837891051503563e+02,	 4.9101686010154765e+02,	 2.4683759000219670e+03,	 4.2522437937663153e+02,	 1.8603615434891758e+00 
1.6182850000000000e+00,	 7.4576260000000005e-01,	 1.7339995445273829e-02,	 7.8296460360850301e+02,	 -1.1863253587631061e+02,	 4.9031663204785355e+02,	 2.4459948694068071e+03,	 4.2492106976081669e+02,	 1.8636426650803375e+00 
1.6257539999999999e+00,	 7.4576359999999997e-01,	 1.7208965071611043e-02,	 7.8373284140337273e+02,	 -1.1884741476314720e+02,	 4.8955722615147914e+02,	 2.4237518634099929e+03,	 4.2459188185771171e+02,	 1.8669523219046726e+00 
1.6332220000000000e+00,	 7.4576469999999995e-01,	 1.7080968024523573e-02,	 7.8448790851418494e+02,	 -1.1902854098475424e+02,	 4.8875010089236110e+02,	 2.4017581728193841e+03,	 4.2424172851358202e+02,	 1.8703169385894931e+00 
1.6406909999999999e+00,	 7.4576580000000003e-01,	 1.6956038570920626e-02,	 7.8524296703998812e+02,	 -1.1918017548676451e+02,	 4.8790580269613696e+02,	 2.3800732130166475e+03,	 4.2387513897444177e+02,	 1.8737493192677106e+00 
1.6481600000000001e+00,	 7.4576679999999995e-01,	 1.6833772926972083e-02,	 7.8599776356761413e+02,	 -1.1930833174892844e+02,	 4.8703199436078802e+02,	 2.3586792918182891e+03,	 4.2349540213744206e+02,	 1.8772369904702160e+00 
1.6556290000000000e+00,	 7.4576779999999998e-01,	 1.6713364292235647e-02,	 7.8674194599837097e+02,	 -1.1941781191017054e+02,	 4.8613294082037271e+02,	 2.3374851856141486e+03,	 4.2310433859358182e+02,	 1.8807498437830512e+00 
1.6630980000000000e+00,	 7.4576889999999996e-01,	 1.6593888845812737e-02,	 7.8746178804803742e+02,	 -1.1951433877227248e+02,	 4.8521216988777684e+02,	 2.3163799612063058e+03,	 4.2270345357549752e+02,	 1.8842514485853554e+00 
1.6705669999999999e+00,	 7.4576989999999999e-01,	 1.6474713029255978e-02,	 7.8815214235768997e+02,	 -1.1960296561169295e+02,	 4.8427627394579628e+02,	 2.2953080939922011e+03,	 4.2229559344660186e+02,	 1.8877190386507925e+00 
1.6780360000000001e+00,	 7.4577090000000001e-01,	 1.6355658266906336e-02,	 7.8882132028191666e+02,	 -1.1969023697994999e+02,	 4.8333670570915535e+02,	 2.2742999566015419e+03,	 4.2188573632032552e+02,	 1.8911521774650475e+00 
1.6855050000000000e+00,	 7.4577190000000004e-01,	 1.6236807127553807e-02,	 7.8949013089576056e+02,	 -1.1978357258806764e+02,	 4.8240673639792453e+02,	 2.2534292800495932e+03,	 4.2147967395565774e+02,	 1.8945762326561113e+00 
1.6929740000000000e+00,	 7.4577289999999996e-01,	 1.6118082065489404e-02,	 7.9018383908107148e+02,	 -1.1989605700416175e+02,	 4.8149621197265623e+02,	 2.2327298309653584e+03,	 4.2108172263502934e+02,	 1.8980356120157458e+00 
1.7004420000000000e+00,	 7.4577380000000004e-01,	 1.5998718568908651e-02,	 7.9093198193587659e+02,	 -1.2005384759947054e+02,	 4.8060496760890283e+02,	 2.2120930524199871e+03,	 4.2069183323768851e+02,	 1.9016091845195009e+00 
1.7079110000000000e+00,	 7.4577479999999996e-01,	 1.5875045669901021e-02,	 7.9175441787562681e+02,	 -1.2036543112151035e+02,	 4.7968472411510777e+02,	 2.1907902987188791e+03,	 4.2028887816464061e+02,	 1.9054783462601683e+00 
1.7153799999999999e+00,	 7.4577579999999999e-01,	 1.5753673067192948e-02,	 7.9257315527076139e+02,	 -1.2068707781448778e+02,	 4.7881806625651734e+02,	 2.1701127284658396e+03,	 4.1990903353659809e+02,	 1.9092448505689112e+00 
1.7228490000000001e+00,	 7.4577669999999996e-01,	 1.5642562066723646e-02,	 7.9328542336457258e+02,	 -1.2079448961602466e+02,	 4.7809542890047794e+02,	 2.1515548183344954e+03,	 4.1959204828572490e+02,	 1.9124039267915169e+00 
1.7303180000000000e+00,	 7.4577769999999999e-01,	 1.5575147521209008e-02,	 7.9342359491439765e+02,	 -1.1944707072994574e+02,	 4.7797291235677341e+02,	 2.1417333102195621e+03,	 4.1953828259563619e+02,	 1.9124938453494509e+00 
1.7377860000000001e+00,	 7.4577859999999996e-01,	 1.5606649473908002e-02,	 7.9210864251829935e+02,	 -1.1518318709579532e+02,	 4.7960520617359060e+02,	 2.1533940188768283e+03,	 4.2025404081219989e+02,	 1.9046560988666785e+00 
1.7452550000000000e+00,	 7.4577959999999999e-01,	 1.5824014607532057e-02,	 7.8843579621606614e+02,	 -1.0657702963158283e+02,	 4.8399909073716231e+02,	 2.2033889057408887e+03,	 4.2217472235710414e+02,	 1.8845431428514858e+00 
1.7527239999999999e+00,	 7.4578049999999996e-01,	 1.6339162659932543e-02,	 7.8168601050890356e+02,	 -9.0972957933385061e+01,	 4.9126015866845682e+02,	 2.3092517314506372e+03,	 4.2532971554534606e+02,	 1.8502397391995986e+00 
1.7601929999999999e+00,	 7.4578149999999999e-01,	 1.7149010995820106e-02,	 7.7189386409705048e+02,	 -6.9088068691928527e+01,	 5.0122710416690609e+02,	 2.4728829715124862e+03,	 4.2962270719001094e+02,	 1.8038607696636093e+00 
1.7676620000000001e+00,	 7.4578239999999996e-01,	 1.8008889664373820e-02,	 7.6180758374575896e+02,	 -4.6679048911234652e+01,	 5.1150792184245910e+02,	 2.6501425731512140e+03,	 4.3400640180970748e+02,	 1.7585831644953369e+00 
1.7751300000000001e+00,	 7.4578330000000004e-01,	 1.8667516070262534e-02,	 7.5427328269873215e+02,	 -2.9751962990132427e+01,	 5.1921287889238351e+02,	 2.7884440048697984e+03,	 4.3726295136478200e+02,	 1.7263292683185871e+00 
1.7825990000000000e+00,	 7.4578429999999996e-01,	 1.9045658621246648e-02,	 7.5010803570746748e+02,	 -1.9299294925103748e+01,	 5.2376749200551433e+02,	 2.8698848607911914e+03,	 4.3917663179492496e+02,	 1.7085523524494468e+00 
1.7900680000000000e+00,	 7.4578520000000004e-01,	 1.9206739207078456e-02,	 7.4835543960165683e+02,	 -1.3637945332041614e+01,	 5.2573478594440053e+02,	 2.9050277853902562e+03,	 4.4000064222256839e+02,	 1.7010877386350007e+00 
1.7975369999999999e+00,	 7.4578610000000001e-01,	 1.9247751368881783e-02,	 7.4780197782319988e+02,	 -1.0460942006406373e+01,	 5.2631243826825903e+02,	 2.9144296147135874e+03,	 4.4024230172641660e+02,	 1.6987807394957779e+00 
1.8050050000000000e+00,	 7.4578710000000004e-01,	 1.9230975462280784e-02,	 7.4789811500909047e+02,	 -8.3851909556212583e+00,	 5.2647213117731746e+02,	 2.9127729845135905e+03,	 4.4030908548136921e+02,	 1.6986820036525285e+00 
1.8124739999999999e+00,	 7.4578800000000001e-01,	 1.9202915832965226e-02,	 7.4813959714488283e+02,	 -6.6593293315217954e+00,	 5.2641729058609326e+02,	 2.9082200311859406e+03,	 4.4028615222622409e+02,	 1.6992795043353015e+00 
1.8199430000000001e+00,	 7.4578889999999998e-01,	 1.9185482089761986e-02,	 7.4823431296783110e+02,	 -4.6723007193966133e+00,	 5.2641803864772533e+02,	 2.9055838756308030e+03,	 4.4028646505890117e+02,	 1.6994592388053154e+00 
1.8274120000000000e+00,	 7.4578990000000001e-01,	 1.9196924603367665e-02,	 7.4791922312712450e+02,	 -2.1909691556462163e+00,	 5.2671774235811608e+02,	 2.9089720224332077e+03,	 4.4041178058898760e+02,	 1.6982343915820861e+00 
1.8348800000000001e+00,	 7.4579079999999998e-01,	 1.9255120161815659e-02,	 7.4695535712910851e+02,	 1.0619957382737453e+00,	 5.2750907903103007e+02,	 2.9221742495353183e+03,	 4.4074249205188630e+02,	 1.6947676376878902e+00 
1.8423490000000000e+00,	 7.4579169999999995e-01,	 1.9371157515306908e-02,	 7.4522829422161612e+02,	 5.3270899382811532e+00,	 5.2888415055824544e+02,	 2.9474473933170134e+03,	 4.4131656559537521e+02,	 1.6886910481151769e+00 
1.8498180000000000e+00,	 7.4579260000000003e-01,	 1.9545729307740921e-02,	 7.4273116756583329e+02,	 1.0640058974862274e+01,	 5.3086833371639113e+02,	 2.9851670397611374e+03,	 4.4214362115113192e+02,	 1.6800137798220531e+00 
1.8572860000000000e+00,	 7.4579359999999995e-01,	 1.9767399344776775e-02,	 7.3964211189739376e+02,	 1.6755982525847063e+01,	 5.3324654095653068e+02,	 3.0325468601865750e+03,	 4.4313288164715522e+02,	 1.6695486042249335e+00 
1.8647549999999999e+00,	 7.4579450000000003e-01,	 2.0015017335519608e-02,	 7.3625067185950320e+02,	 2.3260383297456546e+01,	 5.3579806768660944e+02,	 3.0852264864283889e+03,	 4.4419178780426847e+02,	 1.6583332545514360e+00 
1.8722240000000001e+00,	 7.4579540000000000e-01,	 2.0262182218736425e-02,	 7.3288667744228417e+02,	 2.9661697008679322e+01,	 5.3834411805753734e+02,	 3.1381675438876946e+03,	 4.4524591098915459e+02,	 1.6473743027403074e+00 
1.8796930000000001e+00,	 7.4579629999999997e-01,	 2.0485488630675838e-02,	 7.2990325720945953e+02,	 3.5503205008070523e+01,	 5.4058184701925904e+02,	 3.1859409545699477e+03,	 4.4617032570319759e+02,	 1.6378637489318355e+00 
1.8871610000000001e+00,	 7.4579730000000000e-01,	 2.0670794535570594e-02,	 7.2754605989746517e+02,	 4.0542202557898634e+01,	 5.4234019132180299e+02,	 3.2252166832771286e+03,	 4.4689536312285929e+02,	 1.6305266135753003e+00 
1.8946300000000000e+00,	 7.4579819999999997e-01,	 2.0812453629629128e-02,	 7.2590535691125342e+02,	 4.4769631271990370e+01,	 5.4358275108291514e+02,	 3.2547593853478279e+03,	 4.4740701292188140e+02,	 1.6255547882559911e+00 
1.9020990000000000e+00,	 7.4579910000000005e-01,	 2.0902112521187392e-02,	 7.2510173573877751e+02,	 4.8001123553553654e+01,	 5.4427211179764276e+02,	 3.2729261095455167e+03,	 4.4769061932311894e+02,	 1.6231941980734386e+00 
1.5286540000000000e+00,	 7.5150689999999998e-01,	 1.9029763744040754e-02,	 7.6742923049326396e+02,	 -1.0927805910301930e+02,	 5.0165196863546873e+02,	 2.7464130553247905e+03,	 4.2980475317017937e+02,	 1.8035410341050222e+00 
1.5361229999999999e+00,	 7.5150839999999997e-01,	 1.8877738868852866e-02,	 7.6785067958247475e+02,	 -1.0985795216886061e+02,	 5.0126856259093870e+02,	 2.7223902465938022e+03,	 4.2964047469691735e+02,	 1.8053924500347567e+00 
1.5435930000000000e+00,	 7.5150980000000001e-01,	 1.8706835109738081e-02,	 7.6851297055864518e+02,	 -1.1046509488646338e+02,	 5.0080784140508945e+02,	 2.6952644053956014e+03,	 4.2944298577791295e+02,	 1.8079499841228273e+00 
1.5510619999999999e+00,	 7.5151120000000005e-01,	 1.8538665371864306e-02,	 7.6919112435431384e+02,	 -1.1104351071373560e+02,	 5.0035675406242240e+02,	 2.6686288042133610e+03,	 4.2924953839158525e+02,	 1.8105206074547462e+00 
1.5585310000000001e+00,	 7.5151259999999998e-01,	 1.8374680326216360e-02,	 7.6990975929855836e+02,	 -1.1159856579672149e+02,	 4.9990964454008167e+02,	 2.6426597199436651e+03,	 4.2905771081249327e+02,	 1.8131729436729414e+00 
1.5660000000000001e+00,	 7.5151389999999996e-01,	 1.8216383152346013e-02,	 7.7068176717808558e+02,	 -1.1213549154160961e+02,	 4.9946382170063055e+02,	 2.6175568679534072e+03,	 4.2886634983849183e+02,	 1.8159433405715599e+00 
1.5734699999999999e+00,	 7.5151520000000005e-01,	 1.8064503134022695e-02,	 7.7150996182240544e+02,	 -1.1265076053779427e+02,	 4.9901117096202813e+02,	 2.5933804113789442e+03,	 4.2867197072185002e+02,	 1.8188519405589512e+00 
1.5809390000000001e+00,	 7.5151650000000003e-01,	 1.7918575987216783e-02,	 7.7238815959453495e+02,	 -1.1313164476887923e+02,	 4.9853393988859233e+02,	 2.5699706311497075e+03,	 4.2846694072283134e+02,	 1.8219127585027621e+00 
1.5884080000000000e+00,	 7.5151780000000001e-01,	 1.7777447071002404e-02,	 7.7329831874649676e+02,	 -1.1356748012269051e+02,	 4.9801042487350901e+02,	 2.5470517314388953e+03,	 4.2824191311977438e+02,	 1.8251206446029309e+00 
1.5958770000000000e+00,	 7.5151900000000005e-01,	 1.7639985646157263e-02,	 7.7421245972574275e+02,	 -1.1395578096606445e+02,	 4.9742303449874112e+02,	 2.5243760865120721e+03,	 4.2798928849406497e+02,	 1.8284430906902258e+00 
1.6033459999999999e+00,	 7.5152019999999997e-01,	 1.7505367124620246e-02,	 7.7510280515850582e+02,	 -1.1429921461417337e+02,	 4.9676158335275829e+02,	 2.5017802712582443e+03,	 4.2770463322098942e+02,	 1.8318364836766652e+00 
1.6108150000000001e+00,	 7.5152140000000001e-01,	 1.7373121557518096e-02,	 7.7595293647680523e+02,	 -1.1460051120871489e+02,	 4.9602381542743660e+02,	 2.4791929284248217e+03,	 4.2738691138367449e+02,	 1.8352690285886595e+00 
1.6182840000000001e+00,	 7.5152249999999998e-01,	 1.7243161371598793e-02,	 7.7676397050243747e+02,	 -1.1486168227985034e+02,	 4.9521536376119582e+02,	 2.4566367253371668e+03,	 4.2703847794850554e+02,	 1.8387346902134607e+00 
1.6257530000000000e+00,	 7.5152370000000002e-01,	 1.7115701762747702e-02,	 7.7755200685141835e+02,	 -1.1508515618563240e+02,	 4.9434865954660575e+02,	 2.4342098123654391e+03,	 4.2666462229113756e+02,	 1.8422495774118330e+00 
1.6332220000000000e+00,	 7.5152479999999999e-01,	 1.6991001030786827e-02,	 7.7833770047126029e+02,	 -1.1527476886605081e+02,	 4.9343896683792235e+02,	 2.4120280078559413e+03,	 4.2627187072568950e+02,	 1.8458354069268346e+00 
1.6406909999999999e+00,	 7.5152589999999997e-01,	 1.6869015696113356e-02,	 7.7913364142206342e+02,	 -1.1543527185891364e+02,	 4.9250004874198044e+02,	 2.3901544058125878e+03,	 4.2586612151102918e+02,	 1.8494980946365769e+00 
1.6481600000000001e+00,	 7.5152710000000000e-01,	 1.6749275466321781e-02,	 7.7993950171375036e+02,	 -1.1557273677783385e+02,	 4.9154143231202033e+02,	 2.3685692860351933e+03,	 4.2545146052844638e+02,	 1.8532217160562552e+00 
1.6556280000000001e+00,	 7.5152810000000003e-01,	 1.6630954727218608e-02,	 7.8074475696573154e+02,	 -1.1569387479889102e+02,	 4.9056852001511112e+02,	 2.3471821550683781e+03,	 4.2503020205892824e+02,	 1.8569743889146122e+00 
1.6630970000000000e+00,	 7.5152920000000001e-01,	 1.6513120165527903e-02,	 7.8153573468917557e+02,	 -1.1580460875539528e+02,	 4.8958508592164691e+02,	 2.3258797538543176e+03,	 4.2460396304385773e+02,	 1.8607194800829820e+00 
1.6705660000000000e+00,	 7.5153029999999998e-01,	 1.6395163839648112e-02,	 7.8230611120648518e+02,	 -1.1590993555259571e+02,	 4.8859741234914742e+02,	 2.3046069171425352e+03,	 4.2417545547206123e+02,	 1.8644321579343537e+00 
1.6780349999999999e+00,	 7.5153139999999996e-01,	 1.6277012457883551e-02,	 7.8306328555040113e+02,	 -1.1601441729304045e+02,	 4.8761708441273129e+02,	 2.2834081495636960e+03,	 4.2374970634804902e+02,	 1.8681090723766554e+00 
1.6855039999999999e+00,	 7.5153239999999999e-01,	 1.6159016816064655e-02,	 7.8382584644356928e+02,	 -1.1612146836904689e+02,	 4.8665919588483587e+02,	 2.2624021485947173e+03,	 4.2333328890269962e+02,	 1.8717655985713404e+00 
1.6929730000000001e+00,	 7.5153349999999997e-01,	 1.6041527181035891e-02,	 7.8461472021164195e+02,	 -1.1623412527221977e+02,	 4.8573704889955440e+02,	 2.2416968362871194e+03,	 4.2293202183452485e+02,	 1.8754256295236302e+00 
1.7004420000000000e+00,	 7.5153449999999999e-01,	 1.5924556826249631e-02,	 7.8544611667280037e+02,	 -1.1635789445441758e+02,	 4.8485764152919899e+02,	 2.2213220980100805e+03,	 4.2254899769479067e+02,	 1.8791148862944027e+00 
1.7079100000000000e+00,	 7.5153559999999997e-01,	 1.5807030162562838e-02,	 7.8633498488962982e+02,	 -1.1652234017207829e+02,	 4.8401098080434167e+02,	 2.2010780056324375e+03,	 4.2217990796083558e+02,	 1.8828974758495729e+00 
1.7153790000000000e+00,	 7.5153660000000000e-01,	 1.5687202040021421e-02,	 7.8728877883296991e+02,	 -1.1677713190921379e+02,	 4.8317453349224178e+02,	 2.1806173513057806e+03,	 4.2181495348475636e+02,	 1.8868518624075801e+00 
1.7228479999999999e+00,	 7.5153760000000003e-01,	 1.5565720236972440e-02,	 7.8828482801730775e+02,	 -1.1710901426894672e+02,	 4.8235161276118527e+02,	 2.1600454682872751e+03,	 4.2145559245509401e+02,	 1.8909140843821284e+00 
1.7303170000000001e+00,	 7.5153870000000000e-01,	 1.5446815498561674e-02,	 7.8920905368611170e+02,	 -1.1750116613913877e+02,	 4.8158168688477775e+02,	 2.1401236205358418e+03,	 4.2111909606099715e+02,	 1.8947328242034205e+00 
1.7377860000000001e+00,	 7.5153970000000003e-01,	 1.5360565505266044e-02,	 7.8963637207436977e+02,	 -1.1702090526248716e+02,	 4.8139557891937545e+02,	 2.1273514303819552e+03,	 4.2103771714475243e+02,	 1.8959353488055715e+00 
1.7452540000000001e+00,	 7.5154069999999995e-01,	 1.5347967378738551e-02,	 7.8915625599191571e+02,	 -1.1457215854038319e+02,	 4.8207095998655751e+02,	 2.1285888125141478e+03,	 4.2133296418065510e+02,	 1.8926358110960249e+00 