TITLE = "Final State"
VARIABLES = "X", "Y", "rho", "u", "v", "T", "p", "c", "M"
ZONE I=51, J=46, DATAPACKING=POINT
1.1549020000000001e+00,	 7.3964070000000004e-01,	 2.7760097489646026e-02,	 6.9542313187848708e+02,	 -5.3803618139365248e+01,	 5.5796043934982254e+02,	 4.4560938813231378e+03,	 4.5328532315818290e+02,	 1.5387689270775631e+00 
1.1623930000000000e+00,	 7.3966330000000002e-01,	 2.7603793432553897e-02,	 6.9709067164052010e+02,	 -5.5704554544874227e+01,	 5.5656917397020527e+02,	 4.4199550753103022e+03,	 4.5271984060210247e+02,	 1.5446922007293586e+00 
1.1698820000000001e+00,	 7.3968460000000003e-01,	 2.7413265797541362e-02,	 6.9931691403336220e+02,	 -5.7786498932114640e+01,	 5.5486601685282483e+02,	 4.3760153974246405e+03,	 4.5202662596336648e+02,	 1.5523430289726574e+00 
1.1773700000000000e+00,	 7.3970449999999999e-01,	 2.7223668274101408e-02,	 7.0155340500863713e+02,	 -5.9831134767402361e+01,	 5.5315555417224073e+02,	 4.3323532332041304e+03,	 4.5132936623806364e+02,	 1.5600582376685865e+00 
1.1848570000000000e+00,	 7.3972320000000003e-01,	 2.7034768088721003e-02,	 7.0379299381150247e+02,	 -6.1838387431212595e+01,	 5.5143823285660369e+02,	 4.2889349527473441e+03,	 4.5062822526123023e+02,	 1.5678211640962001e+00 
1.1923420000000000e+00,	 7.3974070000000003e-01,	 2.6846619842551465e-02,	 7.0602546649236592e+02,	 -6.3808720352792825e+01,	 5.4971676550603820e+02,	 4.2457902268255784e+03,	 4.4992429497413355e+02,	 1.5756051457580937e+00 
1.1998270000000000e+00,	 7.3975709999999995e-01,	 2.6659517317231950e-02,	 7.0824126012708257e+02,	 -6.5747297815653056e+01,	 5.4799689533781009e+02,	 4.2030089763292617e+03,	 4.4921991626862945e+02,	 1.5833813399696102e+00 
1.2073100000000001e+00,	 7.3977219999999999e-01,	 2.6473806501456025e-02,	 7.1043862309270230e+02,	 -6.7652781992622351e+01,	 5.4628656983081237e+02,	 4.1607042976356988e+03,	 4.4851834960819974e+02,	 1.5911334115704001e+00 
1.2147930000000000e+00,	 7.3978630000000001e-01,	 2.6289649488578672e-02,	 7.1261660890905523e+02,	 -6.9527048344305882e+01,	 5.4459398960803014e+02,	 4.1189600265573754e+03,	 4.4782297993312676e+02,	 1.5988467331168639e+00 
1.2222740000000001e+00,	 7.3979940000000000e-01,	 2.6106910362603625e-02,	 7.1477515855304500e+02,	 -7.1365000596183179e+01,	 5.4292983543705100e+02,	 4.0778300644370379e+03,	 4.4713823433254868e+02,	 1.6065030944237904e+00 
1.2297540000000000e+00,	 7.3981169999999996e-01,	 2.5925343983107314e-02,	 7.1691225860441295e+02,	 -7.3164422445067288e+01,	 5.4129354304197318e+02,	 4.0372655078468647e+03,	 4.4646392897921322e+02,	 1.6140967628235583e+00 
1.2372339999999999e+00,	 7.3982320000000001e-01,	 2.5744783073391175e-02,	 7.1902750200331616e+02,	 -7.4922621469117644e+01,	 5.3967747348318835e+02,	 3.9971777838234170e+03,	 4.4579695621179934e+02,	 1.6216360828454162e+00 
1.2447130000000000e+00,	 7.3983399999999999e-01,	 2.5565083335672915e-02,	 7.2111913837854786e+02,	 -7.6641754786694008e+01,	 5.3807882082506717e+02,	 3.9575193633839422e+03,	 4.4513618835976200e+02,	 1.6291205427509565e+00 
1.2521910000000001e+00,	 7.3984410000000000e-01,	 2.5386073740446019e-02,	 7.2318988831868660e+02,	 -7.8318287974385868e+01,	 5.3649620814855780e+02,	 3.9182499029721225e+03,	 4.4448108271522477e+02,	 1.6365562414355093e+00 
1.2596689999999999e+00,	 7.3985360000000000e-01,	 2.5207611163687447e-02,	 7.2524102117261623e+02,	 -7.9952063928701818e+01,	 5.3492897067343745e+02,	 3.8793391345296704e+03,	 4.4383138856632979e+02,	 1.6439458109335077e+00 
1.2671460000000001e+00,	 7.3986240000000003e-01,	 2.5029843871124061e-02,	 7.2727279088254261e+02,	 -8.1540843114813924e+01,	 5.3337922110348541e+02,	 3.8408219145814096e+03,	 4.4318800744218629e+02,	 1.6512848437902197e+00 
1.2746230000000001e+00,	 7.3987069999999999e-01,	 2.4853062842350369e-02,	 7.2928079496393934e+02,	 -8.3091998133725795e+01,	 5.3185059310685915e+02,	 3.8027651334350926e+03,	 4.4255247866529697e+02,	 1.6585584521027632e+00 
1.2820990000000001e+00,	 7.3987860000000005e-01,	 2.4677302044149706e-02,	 7.3126381712500665e+02,	 -8.4607189683454592e+01,	 5.3034502645606585e+02,	 3.7651832211683850e+03,	 4.4192564429994962e+02,	 1.6657600191231936e+00 
1.2895740000000000e+00,	 7.3988589999999999e-01,	 2.4502126695528335e-02,	 7.3322470293052697e+02,	 -8.6085704805022715e+01,	 5.2886075741946593e+02,	 3.7279927689939918e+03,	 4.4130680552427611e+02,	 1.6728972438766010e+00 
1.2970500000000000e+00,	 7.3989289999999996e-01,	 2.4327205081197033e-02,	 7.3516741595797430e+02,	 -8.7521635382076568e+01,	 5.2739684431543515e+02,	 3.6911328855235229e+03,	 4.4069560258432500e+02,	 1.6799777549719730e+00 
1.3045240000000000e+00,	 7.3989939999999998e-01,	 2.4152547248153765e-02,	 7.3709000034120641e+02,	 -8.8916562421784505e+01,	 5.2595553077886052e+02,	 3.6546172872132697e+03,	 4.4009300597534389e+02,	 1.6869927642751481e+00 
1.3119989999999999e+00,	 7.3990549999999999e-01,	 2.3977853729735280e-02,	 7.3899424511764914e+02,	 -9.0262695754121083e+01,	 5.2453515033786414e+02,	 3.6183855521553733e+03,	 4.3949835294521341e+02,	 1.6939455937636512e+00 
1.3194729999999999e+00,	 7.3991119999999999e-01,	 2.3803302846861198e-02,	 7.4086915359864827e+02,	 -9.1565897227924353e+01,	 5.2313898545111465e+02,	 3.5824838841526234e+03,	 4.3891305277248489e+02,	 1.7008064234357205e+00 
1.3269460000000000e+00,	 7.3991649999999998e-01,	 2.3629054904025094e-02,	 7.4270412878209925e+02,	 -9.2829548316876114e+01,	 5.2177095747365320e+02,	 3.5469591834322441e+03,	 4.3833879008759556e+02,	 1.7075444411832330e+00 
1.3344190000000000e+00,	 7.3992139999999995e-01,	 2.3454783460300187e-02,	 7.4449534082488731e+02,	 -9.4053105744901956e+01,	 5.2043018110677599e+02,	 3.5117520107556911e+03,	 4.3777523597918503e+02,	 1.7141507579459763e+00 
1.3418920000000001e+00,	 7.3992599999999997e-01,	 2.3281482616574662e-02,	 7.4624162742731369e+02,	 -9.5229293676386945e+01,	 5.1911130923784265e+02,	 3.4769709452510160e+03,	 4.3722018006522597e+02,	 1.7206279996201599e+00 
1.3493640000000000e+00,	 7.3993039999999999e-01,	 2.3109101338406653e-02,	 7.4795026281572723e+02,	 -9.6351064769121763e+01,	 5.1781305563061005e+02,	 3.4425954517571795e+03,	 4.3667311240901893e+02,	 1.7269913938551198e+00 
1.3568370000000001e+00,	 7.3993439999999999e-01,	 2.2936693574957801e-02,	 7.4962993381965907e+02,	 -9.7431681338646740e+01,	 5.1654043030206674e+02,	 3.4085139053292619e+03,	 4.3613617815702929e+02,	 1.7332548881745580e+00 
1.3643090000000000e+00,	 7.3993830000000005e-01,	 2.2764705343883286e-02,	 7.5127886212299086e+02,	 -9.8478360707761539e+01,	 5.1529941341922404e+02,	 3.3748278077417385e+03,	 4.3561194247592442e+02,	 1.7394052330860525e+00 
1.3717800000000000e+00,	 7.3994190000000004e-01,	 2.2594404126255463e-02,	 7.5288796555379713e+02,	 -9.9497715638394936e+01,	 5.1409519167528788e+02,	 3.3417531933996711e+03,	 4.3510264614101112e+02,	 1.7454135521048095e+00 
1.3792519999999999e+00,	 7.3994539999999998e-01,	 2.2423471014403867e-02,	 7.5446421723085905e+02,	 -1.0049354192766964e+02,	 5.1292597901233330e+02,	 3.3089291868241603e+03,	 4.3460758500017971e+02,	 1.7512984482448699e+00 
1.3867229999999999e+00,	 7.3994859999999996e-01,	 2.2251362830789927e-02,	 7.5600269958463002e+02,	 -1.0147725148404980e+02,	 5.1178884860939854e+02,	 3.2762525475811503e+03,	 4.3412556641510230e+02,	 1.7570558704229233e+00 
1.3941939999999999e+00,	 7.3995160000000004e-01,	 2.2081509884565947e-02,	 7.5748713223145478e+02,	 -1.0243622078021647e+02,	 5.1066762872224552e+02,	 3.2441209112986317e+03,	 4.3364976755417212e+02,	 1.7626714412398099e+00 
1.4016649999999999e+00,	 7.3995460000000002e-01,	 2.1914703676134156e-02,	 7.5891811816703353e+02,	 -1.0334733218588187e+02,	 5.0954883169661025e+02,	 3.2125607594772628e+03,	 4.3317447593001572e+02,	 1.7681618174653633e+00 
1.4091359999999999e+00,	 7.3995730000000004e-01,	 2.1749475876633097e-02,	 7.6029738051400625e+02,	 -1.0422305474757997e+02,	 5.0843082115400290e+02,	 3.1813437858314010e+03,	 4.3269899689642864e+02,	 1.7735370049937975e+00 
1.4166069999999999e+00,	 7.3995999999999995e-01,	 2.1585530007044152e-02,	 7.6162379828377163e+02,	 -1.0507031588653855e+02,	 5.0731540479807558e+02,	 3.1504363096670677e+03,	 4.3222409990199145e+02,	 1.7787929039416293e+00 
1.4240780000000000e+00,	 7.3996249999999997e-01,	 2.1422865752428369e-02,	 7.6289708833086161e+02,	 -1.0589848665101391e+02,	 5.0620466751969099e+02,	 3.1198495335760335e+03,	 4.3175067598789224e+02,	 1.7839276198898675e+00 
1.4315480000000000e+00,	 7.3996490000000004e-01,	 2.1261591335184949e-02,	 7.6412131919616468e+02,	 -1.0671045723491227e+02,	 5.0510082159307876e+02,	 3.0896108302889129e+03,	 4.3127967447998651e+02,	 1.7889469585832627e+00 
1.4390179999999999e+00,	 7.3996720000000005e-01,	 2.1101793932399929e-02,	 7.6530092245725632e+02,	 -1.0751204481839676e+02,	 5.0400685789669740e+02,	 3.0597487141926827e+03,	 4.3081238158917745e+02,	 1.7938571067353373e+00 
1.4464889999999999e+00,	 7.3996940000000000e-01,	 2.0943499933697041e-02,	 7.6644342036271632e+02,	 -1.0830367859965631e+02,	 5.0292660961848640e+02,	 3.0302873421705090e+03,	 4.3035044941434700e+02,	 1.7986680944654920e+00 
1.4539590000000000e+00,	 7.3997139999999995e-01,	 2.0786656125377008e-02,	 7.6755372838107724e+02,	 -1.0908933564664244e+02,	 5.0186414468651753e+02,	 3.0012400825984050e+03,	 4.2989563752848744e+02,	 1.8033846309301984e+00 
1.4614290000000001e+00,	 7.3997340000000000e-01,	 2.0631046126826182e-02,	 7.6863653042815804e+02,	 -1.0986801304705266e+02,	 5.0082322317780233e+02,	 2.9725943393223270e+03,	 4.2944958066634535e+02,	 1.8080097523968077e+00 
1.4688990000000000e+00,	 7.3997520000000006e-01,	 2.0476317405989420e-02,	 7.6969155924213032e+02,	 -1.1064175217306874e+02,	 4.9980746278117863e+02,	 2.9443167312898318e+03,	 4.2901385877583601e+02,	 1.8125362537167371e+00 
1.4763679999999999e+00,	 7.3997700000000000e-01,	 2.0321971046558938e-02,	 7.7071793427913803e+02,	 -1.1140734839113247e+02,	 4.9882005304507459e+02,	 2.9163501758392072e+03,	 4.2858987362189185e+02,	 1.8169544505677435e+00 
1.4838380000000000e+00,	 7.3997880000000005e-01,	 2.0167513491290052e-02,	 7.7171141078955577e+02,	 -1.1216287624018432e+02,	 4.9786482529224793e+02,	 2.8886421071372956e+03,	 4.2817930760178115e+02,	 1.8212460178821317e+00 
1.4913080000000001e+00,	 7.3998039999999998e-01,	 2.0012519729209567e-02,	 7.7266985282249516e+02,	 -1.1290010569849277e+02,	 4.9694597298847953e+02,	 2.8611517079624095e+03,	 4.2778400427869315e+02,	 1.8253945650268619e+00 
1.4987779999999999e+00,	 7.3998209999999998e-01,	 1.9856280361800198e-02,	 7.7359194396332327e+02,	 -1.1362402788493210e+02,	 4.9606277355503391e+02,	 2.8337691685381174e+03,	 4.2740369471785328e+02,	 1.8293989777831439e+00 
1.5062469999999999e+00,	 7.3998359999999996e-01,	 1.9697986917369983e-02,	 7.7448390847235896e+02,	 -1.1433924600032813e+02,	 4.9521274827942676e+02,	 2.8063614007549559e+03,	 4.2703735024436889e+02,	 1.8332788134570797e+00 
1.5137170000000000e+00,	 7.3998509999999995e-01,	 1.9537933813988065e-02,	 7.7534094068696197e+02,	 -1.1503442847274360e+02,	 4.9440473617257442e+02,	 2.7790169392130138e+03,	 4.2668882103579227e+02,	 1.8370017298577037e+00 
1.5211859999999999e+00,	 7.3998660000000005e-01,	 1.9376444106407320e-02,	 7.7616219467768190e+02,	 -1.1570294373430784e+02,	 4.9364353835637934e+02,	 2.7518038502991685e+03,	 4.2636022415272805e+02,	 1.8405534028282926e+00 
1.5286560000000000e+00,	 7.3998799999999998e-01,	 1.9232369774661646e-02,	 7.7668659280501379e+02,	 -1.1629037049635897e+02,	 4.9305732652358171e+02,	 2.7280991762566287e+03,	 4.2610699319298925e+02,	 1.8430680869710978e+00 
1.1549080000000000e+00,	 7.4540370000000000e-01,	 2.7925130079269021e-02,	 6.9536925944310065e+02,	 -5.1690464682021343e+01,	 5.5826706259889318e+02,	 4.4850485416983629e+03,	 4.5340985593778663e+02,	 1.5378753153007869e+00 
1.1623990000000000e+00,	 7.4542600000000003e-01,	 2.7765864855493295e-02,	 6.9701019191537694e+02,	 -5.3562965024876881e+01,	 5.5689485975110347e+02,	 4.4485077574961788e+03,	 4.5285227953164195e+02,	 1.5436937469156755e+00 
1.1698869999999999e+00,	 7.4544690000000002e-01,	 2.7571075995212874e-02,	 6.9920692291999637e+02,	 -5.5595419327756744e+01,	 5.5522123723033303e+02,	 4.4040244594233764e+03,	 4.5217129456203372e+02,	 1.5512123470924590e+00 
1.1773750000000001e+00,	 7.4546650000000003e-01,	 2.7376811368188377e-02,	 7.0141222358592677e+02,	 -5.7591221301487380e+01,	 5.5354490953182562e+02,	 4.3597909180752649e+03,	 4.5148817924685312e+02,	 1.5587840850280545e+00 
1.1848609999999999e+00,	 7.4548479999999995e-01,	 2.7183193455055592e-02,	 7.0361731458291524e+02,	 -5.9554968811005168e+01,	 5.5186856932047021e+02,	 4.3158473323694088e+03,	 4.5080402367940945e+02,	 1.5663862334480430e+00 
1.1923459999999999e+00,	 7.4550209999999995e-01,	 2.6990431858846333e-02,	 7.0581122360873189e+02,	 -6.1490060378809439e+01,	 5.5019679392706610e+02,	 4.2722614889248680e+03,	 4.5012069549692791e+02,	 1.5739881886849731e+00 
1.1998310000000001e+00,	 7.4551809999999996e-01,	 2.6798708542970638e-02,	 7.0798602325535819e+02,	 -6.3398687786066702e+01,	 5.4853805197518659e+02,	 4.2291253995834759e+03,	 4.4944166784700030e+02,	 1.5815600044940232e+00 
1.2073140000000000e+00,	 7.4553300000000000e-01,	 2.6608278410419250e-02,	 7.1014011396583851e+02,	 -6.5277287619808831e+01,	 5.4690002301817321e+02,	 4.1865343141797603e+03,	 4.4877011107011293e+02,	 1.5890853358176398e+00 
1.2147960000000000e+00,	 7.4554690000000001e-01,	 2.6419368815316167e-02,	 7.1227347857174061e+02,	 -6.7125839856631586e+01,	 5.4528376656081173e+02,	 4.1445267191231469e+03,	 4.4810649409831257e+02,	 1.5965613563543566e+00 
1.2222770000000001e+00,	 7.4555979999999999e-01,	 2.6232009001680358e-02,	 7.1438653514994962e+02,	 -6.8940549829252518e+01,	 5.4368576705184830e+02,	 4.1030749865953967e+03,	 4.4744940562418168e+02,	 1.6039921100738519e+00 
1.2297570000000000e+00,	 7.4557189999999995e-01,	 2.6045973634982667e-02,	 7.1647666022164003e+02,	 -7.0718790844954796e+01,	 5.4210386407868782e+02,	 4.0621226950938058e+03,	 4.4679798415415729e+02,	 1.6113732029697267e+00 
1.2372360000000000e+00,	 7.4558320000000000e-01,	 2.5860982128235017e-02,	 7.1854087991234337e+02,	 -7.2456549758254042e+01,	 5.4054022631682255e+02,	 4.0216379529730561e+03,	 4.4615314950692499e+02,	 1.6186926932391439e+00 
1.2447150000000000e+00,	 7.4559379999999997e-01,	 2.5676779232850794e-02,	 7.2057818766024195e+02,	 -7.4153638643853711e+01,	 5.3899520387447308e+02,	 3.9815794412987170e+03,	 4.4551507497741318e+02,	 1.6259464618238924e+00 
1.2521929999999999e+00,	 7.4560380000000004e-01,	 2.5493076957759524e-02,	 7.2259173059838918e+02,	 -7.5805646797804926e+01,	 5.3746773974690177e+02,	 3.9418908657255374e+03,	 4.4488335219057291e+02,	 1.6331408117845603e+00 
1.2596710000000000e+00,	 7.4561319999999998e-01,	 2.5309811125081925e-02,	 7.2458199261758170e+02,	 -7.7413745542355883e+01,	 5.3595839281690428e+02,	 3.9025629562060562e+03,	 4.4425823987266921e+02,	 1.6402749653067725e+00 
1.2671479999999999e+00,	 7.4562189999999995e-01,	 2.5127299443293425e-02,	 7.2654668190913685e+02,	 -7.8981784172212016e+01,	 5.3447152436887552e+02,	 3.8636726577933441e+03,	 4.4364157602719922e+02,	 1.6473367407942010e+00 
1.2746240000000000e+00,	 7.4563009999999996e-01,	 2.4945771509393831e-02,	 7.2848263494851108e+02,	 -8.0515580478727671e+01,	 5.3301124271591482e+02,	 3.8252801531190266e+03,	 4.4303510333618379e+02,	 1.6543127567194569e+00 
1.2821000000000000e+00,	 7.4563789999999996e-01,	 2.4764999542966994e-02,	 7.3039144388405953e+02,	 -8.2012256560140386e+01,	 5.3157730499192212e+02,	 3.7873434717633641e+03,	 4.4243876263786478e+02,	 1.6612048288527279e+00 
1.2895749999999999e+00,	 7.4564520000000001e-01,	 2.4584465083438860e-02,	 7.3227748577364071e+02,	 -8.3467945394674260e+01,	 5.3016692209237294e+02,	 3.7497587622980136e+03,	 4.4185143271031473e+02,	 1.6680247847042999e+00 
1.2970500000000000e+00,	 7.4565199999999998e-01,	 2.4404026667172934e-02,	 7.3414226424658398e+02,	 -8.4880651093594906e+01,	 5.2878077024897561e+02,	 3.7125052927643205e+03,	 4.4127343169478854e+02,	 1.6747731022861336e+00 
1.3045249999999999e+00,	 7.4565850000000000e-01,	 2.4223700695120604e-02,	 7.3598524485486382e+02,	 -8.6250826863188649e+01,	 5.2741921660106061e+02,	 3.6755842218798757e+03,	 4.4070494968551100e+02,	 1.6814467830077660e+00 
1.3119989999999999e+00,	 7.4566460000000001e-01,	 2.4043055748299447e-02,	 7.3780710344751026e+02,	 -8.7570464207951403e+01,	 5.2608392788706999e+02,	 3.6389378225878245e+03,	 4.4014672080273903e+02,	 1.6880412167270984e+00 
1.3194729999999999e+00,	 7.4567019999999995e-01,	 2.3862716801705985e-02,	 7.3959204921031198e+02,	 -8.8852336614089495e+01,	 5.2478359574957926e+02,	 3.6027163920577300e+03,	 4.3960242454332291e+02,	 1.6945087470821820e+00 
1.3269460000000000e+00,	 7.4567550000000005e-01,	 2.3682553155122146e-02,	 7.4133496533291202e+02,	 -9.0093819123311249e+01,	 5.2351544981311781e+02,	 3.5668755854228375e+03,	 4.3907095097048227e+02,	 1.7008399465936719e+00 
1.3344190000000000e+00,	 7.4568040000000002e-01,	 2.3502538556688227e-02,	 7.4303333571471478e+02,	 -9.1287978152223630e+01,	 5.2227125729629233e+02,	 3.5313505953263730e+03,	 4.3854889020131776e+02,	 1.7070390612700144e+00 
1.3418920000000001e+00,	 7.4568500000000004e-01,	 2.3322141113983605e-02,	 7.4468933718379208e+02,	 -9.2430870011597136e+01,	 5.2104978036713055e+02,	 3.4960495025080409e+03,	 4.3803575558141955e+02,	 1.7131105506812809e+00 
1.3493640000000000e+00,	 7.4568930000000000e-01,	 2.3140991893062499e-02,	 7.4630564567109741e+02,	 -9.3525885736777354e+01,	 5.1985581993036465e+02,	 3.4609459589723642e+03,	 4.3753359884771027e+02,	 1.7190521569943549e+00 
1.3568370000000001e+00,	 7.4569330000000000e-01,	 2.2959318403204580e-02,	 7.4788377868657267e+02,	 -9.4581669025593669e+01,	 5.1869673224861708e+02,	 3.4261189769651646e+03,	 4.3704555698609153e+02,	 1.7248561685699311e+00 
1.3643080000000001e+00,	 7.4569719999999995e-01,	 2.2778640746286907e-02,	 7.4942155797629255e+02,	 -9.5611903904263016e+01,	 5.1756858860351008e+02,	 3.3917642135475685e+03,	 4.3657002039614787e+02,	 1.7305266784673985e+00 
1.3717800000000000e+00,	 7.4570080000000005e-01,	 2.2600564219766139e-02,	 7.5091892845541850e+02,	 -9.6606855801563057e+01,	 5.1646166323922512e+02,	 3.3580511603156792e+03,	 4.3610292376544407e+02,	 1.7360758052320315e+00 
1.3792519999999999e+00,	 7.4570429999999999e-01,	 2.2425503051750527e-02,	 7.5237724258619812e+02,	 -9.7563721902819964e+01,	 5.1536726961309728e+02,	 3.3249794461200736e+03,	 4.3564062288445268e+02,	 1.7415194263226399e+00 
1.3867229999999999e+00,	 7.4570749999999997e-01,	 2.2253925949996849e-02,	 7.5379224001485784e+02,	 -9.8487325151041617e+01,	 5.1427939841498130e+02,	 3.2925752042798695e+03,	 4.3518059052064962e+02,	 1.7468586603643026e+00 
1.3941939999999999e+00,	 7.4571060000000000e-01,	 2.2083665561299131e-02,	 7.5516608191265675e+02,	 -9.9385149986506391e+01,	 5.1319552103238163e+02,	 3.2604981365072586e+03,	 4.3472176289848505e+02,	 1.7521043627307735e+00 
1.4016649999999999e+00,	 7.4571350000000003e-01,	 2.1913761696509847e-02,	 7.5649532213929876e+02,	 -1.0025457128023024e+02,	 5.1211516532318785e+02,	 3.2286019806961876e+03,	 4.3426394365288729e+02,	 1.7572481874079837e+00 
1.4091359999999999e+00,	 7.4571630000000000e-01,	 2.1745089444690471e-02,	 7.5777015009818729e+02,	 -1.0109643938694302e+02,	 5.1103728538873486e+02,	 3.1970080025997222e+03,	 4.3380669205813115e+02,	 1.7622692617257663e+00 
1.4166069999999999e+00,	 7.4571900000000002e-01,	 2.1577865896988745e-02,	 7.5898896770528427e+02,	 -1.0191257280492295e+02,	 5.0996100014160294e+02,	 3.1657410764353162e+03,	 4.3334963555036347e+02,	 1.7671654712505263e+00 
1.4240770000000000e+00,	 7.4572159999999998e-01,	 2.1412146231201905e-02,	 7.6015374931300698e+02,	 -1.0270942744629633e+02,	 5.0888692407864971e+02,	 3.1348114899063303e+03,	 4.3289303611352489e+02,	 1.7719417455945841e+00 
1.4315480000000000e+00,	 7.4572400000000005e-01,	 2.1247973142601500e-02,	 7.6126980926553642e+02,	 -1.0349111066359094e+02,	 5.0781741301702380e+02,	 3.1042381713629065e+03,	 4.3243789825852633e+02,	 1.7766069452656517e+00 
1.4390179999999999e+00,	 7.4572629999999995e-01,	 2.1085370182541127e-02,	 7.6234312171899978e+02,	 -1.0426340158421590e+02,	 5.0675668808517077e+02,	 3.0740480857825037e+03,	 4.3198602576470688e+02,	 1.7811686956635655e+00 
1.4464880000000000e+00,	 7.4572850000000002e-01,	 2.0924277684057184e-02,	 7.6338171717629257e+02,	 -1.0502875763067674e+02,	 5.0571037732117793e+02,	 3.0442637613985062e+03,	 4.3153983019441142e+02,	 1.7856357760557586e+00 
1.4539580000000001e+00,	 7.4573060000000002e-01,	 2.0764566332409987e-02,	 7.6439190626615948e+02,	 -1.0579074577245117e+02,	 5.0468493815811490e+02,	 3.0149016301521642e+03,	 4.3110208715464336e+02,	 1.7900118086100281e+00 
1.4614279999999999e+00,	 7.4573259999999997e-01,	 2.0605991169662052e-02,	 7.6537876615275491e+02,	 -1.0654969604573657e+02,	 5.0368669437517480e+02,	 2.9859595855788348e+03,	 4.3067552599028107e+02,	 1.7942966669684830e+00 
1.4688980000000000e+00,	 7.4573449999999997e-01,	 2.0448137507339557e-02,	 7.6634313147498892e+02,	 -1.0730705980874035e+02,	 5.0272136904645856e+02,	 2.9574066188458041e+03,	 4.3026262906065097e+02,	 1.7984817548326593e+00 
1.4763679999999999e+00,	 7.4573639999999997e-01,	 2.0290469849596614e-02,	 7.6728431624468215e+02,	 -1.0806110493797526e+02,	 5.0179376385660180e+02,	 2.9291883686085134e+03,	 4.2986549244547848e+02,	 1.8025554577458407e+00 
1.4838380000000000e+00,	 7.4573809999999996e-01,	 2.0132392533083892e-02,	 7.6819998084713723e+02,	 -1.0881141935228064e+02,	 5.0090744565155643e+02,	 2.9012343729086979e+03,	 4.2948568900144221e+02,	 1.8065048693203483e+00 
1.4913069999999999e+00,	 7.4573979999999995e-01,	 1.9973418187579077e-02,	 7.6908814039973799e+02,	 -1.0955094322140349e+02,	 5.0006638311806762e+02,	 2.8734920017919603e+03,	 4.2912496759154146e+02,	 1.8103148987086521e+00 
1.4987770000000000e+00,	 7.4574149999999995e-01,	 1.9813189365153812e-02,	 7.6994525874519729e+02,	 -1.1027303177520423e+02,	 4.9927383845633233e+02,	 2.8459229492403733e+03,	 4.2878477719356022e+02,	 1.8139681532864831e+00 
1.5062460000000000e+00,	 7.4574309999999999e-01,	 1.9651035223333613e-02,	 7.7077396548091110e+02,	 -1.1098037181639508e+02,	 4.9852668085691795e+02,	 2.8184074491090882e+03,	 4.2846382130992157e+02,	 1.8174761295542785e+00 
1.5137160000000001e+00,	 7.4574470000000004e-01,	 1.9486710286344164e-02,	 7.7157374946772620e+02,	 -1.1167370950412324e+02,	 4.9782319112023924e+02,	 2.7908955954931789e+03,	 4.2816140388299175e+02,	 1.8208399973075671e+00 
1.5211850000000000e+00,	 7.4574620000000003e-01,	 1.9320477542312559e-02,	 7.7234269006650447e+02,	 -1.1234879860708119e+02,	 4.9716322115202274e+02,	 2.7634193054037160e+03,	 4.2787750049311376e+02,	 1.8240531938443303e+00 
1.5286550000000001e+00,	 7.4574759999999995e-01,	 1.9172681714599925e-02,	 7.7282963964828809e+02,	 -1.1294528537714159e+02,	 4.9665113015955171e+02,	 2.7394553615448326e+03,	 4.2765708126613788e+02,	 1.8263213004192782e+00 
1.1549149999999999e+00,	 7.5116649999999996e-01,	 2.8106391217005651e-02,	 6.9474027711575991e+02,	 -4.9302677831021079e+01,	 5.5899636597175697e+02,	 4.5200580147425271e+03,	 4.5370591980615580e+02,	 1.5351077589333093e+00 
1.1624040000000000e+00,	 7.5118830000000003e-01,	 2.7941653644909040e-02,	 6.9633827950319528e+02,	 -5.1129399227876867e+01,	 5.5764782291429105e+02,	 4.4827245489309380e+03,	 4.5315832105708137e+02,	 1.5407702778469017e+00 
1.1698930000000001e+00,	 7.5120880000000001e-01,	 2.7740509999640141e-02,	 6.9848742180531667e+02,	 -5.3103368085483474e+01,	 5.5600667688352360e+02,	 4.4373571531322950e+03,	 4.5249101193413719e+02,	 1.5481039829824181e+00 
1.1773800000000001e+00,	 7.5122800000000001e-01,	 2.7540293417182626e-02,	 7.0063671682898507e+02,	 -5.5042613811621813e+01,	 5.5437099725932910e+02,	 4.3923708620235275e+03,	 4.5182494487368007e+02,	 1.5554596890310510e+00 
1.1848660000000000e+00,	 7.5124610000000003e-01,	 2.7341041348084238e-02,	 7.0277837638928622e+02,	 -5.6957226162811153e+01,	 5.5274505321974880e+02,	 4.3478029582817153e+03,	 4.5116186767561504e+02,	 1.5628153015567525e+00 
1.1923509999999999e+00,	 7.5126300000000001e-01,	 2.7142832912028670e-02,	 7.0490256799707493e+02,	 -5.8851402564877411e+01,	 5.5113357737622118e+02,	 4.3036999151493637e+03,	 4.5050372779506137e+02,	 1.5701424247072693e+00 
1.1998340000000001e+00,	 7.5127880000000002e-01,	 2.6945733283120950e-02,	 7.0700527554447876e+02,	 -6.0723041149783171e+01,	 5.4953741548263883e+02,	 4.2600746663128184e+03,	 4.4985089306905348e+02,	 1.5774297119526293e+00 
1.2073170000000000e+00,	 7.5129340000000000e-01,	 2.6750097444707924e-02,	 7.0908353816073509e+02,	 -6.2570121547477484e+01,	 5.4796029937985327e+02,	 4.2170077595830026e+03,	 4.4920491626791477e+02,	 1.5846638786634006e+00 
1.2147990000000000e+00,	 7.5130699999999995e-01,	 2.6556007531726121e-02,	 7.1113687936573888e+02,	 -6.4388396061752019e+01,	 5.4640832656507519e+02,	 4.1745534827305673e+03,	 4.4856832986579167e+02,	 1.5918330342515439e+00 
1.2222789999999999e+00,	 7.5131979999999998e-01,	 2.6363191025858254e-02,	 7.1316500890511929e+02,	 -6.6172533587363901e+01,	 5.4488309896990233e+02,	 4.1326749833674048e+03,	 4.4794183236267514e+02,	 1.5989317305112345e+00 
1.2297590000000000e+00,	 7.5133170000000005e-01,	 2.6171248580936324e-02,	 7.1516580878443665e+02,	 -6.7920245606385762e+01,	 5.4338344545474229e+02,	 4.0912948874352819e+03,	 4.4732498409486789e+02,	 1.6059550266689651e+00 
1.2372390000000000e+00,	 7.5134279999999998e-01,	 2.5979947417782909e-02,	 7.1713595610072207e+02,	 -6.9628676941262427e+01,	 5.4190851851973900e+02,	 4.0503652013881015e+03,	 4.4671747572032496e+02,	 1.6128946927410566e+00 
1.2447170000000001e+00,	 7.5135330000000000e-01,	 2.5789103218492357e-02,	 7.1907531768824458e+02,	 -7.1295217470315947e+01,	 5.4045615005353363e+02,	 4.0098362814252191e+03,	 4.4611845056448351e+02,	 1.6197516128187142e+00 
1.2521949999999999e+00,	 7.5136309999999995e-01,	 2.5598307623175224e-02,	 7.2098673862115663e+02,	 -7.2913526070196383e+01,	 5.3902528667379283e+02,	 3.9696327553099104e+03,	 4.4552750751252483e+02,	 1.6265308582842970e+00 
1.2596719999999999e+00,	 7.5137240000000005e-01,	 2.5407954861293915e-02,	 7.2286600022967434e+02,	 -7.4490985485519005e+01,	 5.3762273100326183e+02,	 3.9298617217835476e+03,	 4.4494749376992473e+02,	 1.6332129169739060e+00 
1.2671490000000001e+00,	 7.5138099999999997e-01,	 2.5218565731070029e-02,	 7.2471055234591131e+02,	 -7.6034010360709416e+01,	 5.3625236063372984e+02,	 3.8906264731176243e+03,	 4.4438005877099135e+02,	 1.6397860987843638e+00 
1.2746249999999999e+00,	 7.5138910000000003e-01,	 2.5030261460157334e-02,	 7.2652213162246505e+02,	 -7.7539494953912055e+01,	 5.3491135089642569e+02,	 3.8519189239638195e+03,	 4.4382407892811267e+02,	 1.6462563142936408e+00 
1.2821009999999999e+00,	 7.5139679999999998e-01,	 2.4842415594571569e-02,	 7.2830643765329557e+02,	 -7.9001050015634362e+01,	 5.3359630356475179e+02,	 3.8136125909332955e+03,	 4.4327818582988465e+02,	 1.6526385516549669e+00 
1.2895760000000001e+00,	 7.5140399999999996e-01,	 2.4654594293364147e-02,	 7.3006577569330102e+02,	 -8.0419411377212469e+01,	 5.3230872732564023e+02,	 3.7756470066591928e+03,	 4.4274304420551556e+02,	 1.6589344004568338e+00 
1.2970510000000000e+00,	 7.5141080000000005e-01,	 2.4466767485078558e-02,	 7.3179947521133397e+02,	 -8.1796724883308499e+01,	 5.3105203269454523e+02,	 3.7380371027261913e+03,	 4.4222011309942309e+02,	 1.6651361369861788e+00 
1.3045260000000001e+00,	 7.5141720000000001e-01,	 2.4277025117740155e-02,	 7.3351321195927335e+02,	 -8.3135830614487304e+01,	 5.2983593981752665e+02,	 3.7005546232260795e+03,	 4.4171348764198075e+02,	 1.6712404646348438e+00 
1.3120000000000001e+00,	 7.5142319999999996e-01,	 2.4086324908637269e-02,	 7.3519718237160032e+02,	 -8.4446901675267000e+01,	 5.2866177043393111e+02,	 3.6633497498719921e+03,	 4.4122377556656710e+02,	 1.6772242123776990e+00 
1.3194729999999999e+00,	 7.5142880000000001e-01,	 2.3897277052417575e-02,	 7.3683754302136697e+02,	 -8.5714308778026520e+01,	 5.2751898106234967e+02,	 3.6267402066207123e+03,	 4.4074662868730474e+02,	 1.6830673188278360e+00 
1.3269470000000001e+00,	 7.5143400000000005e-01,	 2.3708601593668190e-02,	 7.3843909982300409e+02,	 -8.6928580619885508e+01,	 5.2639758735091243e+02,	 3.5904573007337917e+03,	 4.4027791242964497e+02,	 1.6887926079267217e+00 
1.3344199999999999e+00,	 7.5143890000000002e-01,	 2.3519323338887576e-02,	 7.3999942387320948e+02,	 -8.8091942394052381e+01,	 5.2529686610009526e+02,	 3.5543449184580627e+03,	 4.3981735098934206e+02,	 1.6943950761034074e+00 
1.3418920000000001e+00,	 7.5144350000000004e-01,	 2.3329642075532002e-02,	 7.4151361736615524e+02,	 -8.9204520190994515e+01,	 5.2421781401388705e+02,	 3.5184370757093670e+03,	 4.3936538769763081e+02,	 1.6998608494025165e+00 
1.3493640000000000e+00,	 7.5144780000000000e-01,	 2.3140747765771942e-02,	 7.4297854104222756e+02,	 -9.0270189048475771e+01,	 5.2315741951850089e+02,	 3.4828896519639015e+03,	 4.3892078578583477e+02,	 1.7051875559159251e+00 
1.3568370000000001e+00,	 7.5145180000000000e-01,	 2.2954566215019984e-02,	 7.4439302764479362e+02,	 -9.1290145005311672e+01,	 5.2210947507275614e+02,	 3.4479471651745253e+03,	 4.3848096102764907e+02,	 1.7103819310489989e+00 
1.3643080000000001e+00,	 7.5145569999999995e-01,	 2.2770556545389804e-02,	 7.4576751730137937e+02,	 -9.2275459187016651e+01,	 5.2107078375811886e+02,	 3.4135031355801602e+03,	 4.3804458405028669e+02,	 1.7154750536633665e+00 
1.3717800000000000e+00,	 7.5145930000000005e-01,	 2.2587251179003946e-02,	 7.4711406720339983e+02,	 -9.3228436853150569e+01,	 5.2004077574245343e+02,	 3.3793308757632972e+03,	 4.3761142541268373e+02,	 1.7204951650662739e+00 