TITLE = "Final State"
VARIABLES = "X", "Y", "rho", "u", "v", "T", "p", "c", "M"
ZONE I=51, J=48, DATAPACKING=POINT
1.9027240000000001e+00,	 2.0000000000000001e-01,	 1.9283701484691322e-02,	 3.2680339447509425e+02,	 -1.7385428853395113e-01,	 7.5546127672837724e+02,	 4.1911436428863981e+03,	 5.2744363731713383e+02,	 6.1959879235868920e-01 
1.9101889999999999e+00,	 2.0000000000000001e-01,	 1.9246272905135701e-02,	 3.2938273559982031e+02,	 -1.8008612644061017e-01,	 7.5454682233009339e+02,	 4.1779455109507489e+03,	 5.2712431638350097e+02,	 6.2486736921876773e-01 
1.9176530000000001e+00,	 2.0000000000000001e-01,	 1.9186378004963860e-02,	 3.3243015344956240e+02,	 -1.7672424430650657e-01,	 7.5351903757715763e+02,	 4.1592704752739655e+03,	 5.2676519026017274e+02,	 6.3107852715141755e-01 
1.9251180000000001e+00,	 2.0000000000000001e-01,	 1.9126144120706567e-02,	 3.3540761337736524e+02,	 -1.7551522193697727e-01,	 7.5249268659226925e+02,	 4.1405653635584213e+03,	 5.2640632062933980e+02,	 6.3716495443859689e-01 
1.9325820000000000e+00,	 2.0000000000000001e-01,	 1.9065538360592833e-02,	 3.3833683614851361e+02,	 -1.7285934697656991e-01,	 7.5146432870696049e+02,	 4.1218044184285363e+03,	 5.2604650373419452e+02,	 6.4316914551183824e-01 
1.9400470000000001e+00,	 2.0000000000000001e-01,	 1.9005111329760412e-02,	 3.4123033587945781e+02,	 -1.6765631870915265e-01,	 7.5044040572159543e+02,	 4.1031421692531994e+03,	 5.2568799389429989e+02,	 6.4911198473226328e-01 
1.9475110000000000e+00,	 2.0000000000000001e-01,	 1.8945296014182166e-02,	 3.4410324594949441e+02,	 -1.6191327843103487e-01,	 7.4942477590248745e+02,	 4.0846926093059142e+03,	 5.2533214607208402e+02,	 6.5502042206144129e-01 
1.9549749999999999e+00,	 2.0000000000000001e-01,	 1.8886526907902663e-02,	 3.4696092441528157e+02,	 -1.5369791426671126e-01,	 7.4842710224296513e+02,	 4.0666008313859861e+03,	 5.2498235473317447e+02,	 6.6090022898852241e-01 
1.9624400000000000e+00,	 2.0000000000000001e-01,	 1.8828950553359571e-02,	 3.4981106828312460e+02,	 -1.4649598122588492e-01,	 7.4744826209950440e+02,	 4.0489012883159057e+03,	 5.2463893990293775e+02,	 6.6676541208144913e-01 
1.9699040000000001e+00,	 2.0000000000000001e-01,	 1.8772649118880651e-02,	 3.5265045741912576e+02,	 -1.3779354856611242e-01,	 7.4649108796635096e+02,	 4.0316249806379260e+03,	 5.2430290882250063e+02,	 6.7260829265973932e-01 
1.9773689999999999e+00,	 2.0000000000000001e-01,	 1.8717548122312723e-02,	 3.5547872760140956e+02,	 -1.2999538411227757e-01,	 7.4555194439141201e+02,	 4.0147342499218048e+03,	 5.2397299820363560e+02,	 6.7842952325632944e-01 
1.9848330000000001e+00,	 2.0000000000000001e-01,	 1.8663792869544765e-02,	 3.5829413196850635e+02,	 -1.2124822908804311e-01,	 7.4463302539373808e+02,	 3.9982701745614058e+03,	 5.2364999106751611e+02,	 6.8422449841646782e-01 
1.9922979999999999e+00,	 2.0000000000000001e-01,	 1.8611385292170005e-02,	 3.6110023838651847e+02,	 -1.1304807563275543e-01,	 7.4373393728720634e+02,	 3.9822290542806168e+03,	 5.2333376168682196e+02,	 6.8999992455740833e-01 
1.9997620000000000e+00,	 2.0000000000000001e-01,	 1.8560640000268878e-02,	 3.6390042010291324e+02,	 -1.0405758442303958e-01,	 7.4286082059811247e+02,	 3.9667089720437275e+03,	 5.2302648404195918e+02,	 6.9575909840808303e-01 
2.0072269999999999e+00,	 2.0000000000000001e-01,	 1.8511730634656037e-02,	 3.6670666173032896e+02,	 -9.5526512509761075e-02,	 7.4201465073062786e+02,	 3.9517497999699790e+03,	 5.2272851749190340e+02,	 7.0152414092897153e-01 
2.0146910000000000e+00,	 2.0000000000000001e-01,	 1.8464691321534367e-02,	 3.6951821969867171e+02,	 -8.7248311871025996e-02,	 7.4119907190041044e+02,	 3.9373756954261448e+03,	 5.2244116229950896e+02,	 7.0729157015980293e-01 
2.0221559999999998e+00,	 2.0000000000000001e-01,	 1.8418688040034402e-02,	 3.7232744521992748e+02,	 -8.7760239155342923e-02,	 7.4040003138764450e+02,	 3.9233319789780035e+03,	 5.2215948073926450e+02,	 7.1305313663107339e-01 
2.0296200000000000e+00,	 2.0000000000000001e-01,	 1.8372584181480710e-02,	 3.7511089689308830e+02,	 -8.7016079311736994e-02,	 7.3960091965326615e+02,	 3.9092876358063090e+03,	 5.2187762201472867e+02,	 7.1877177936410475e-01 
2.0370849999999998e+00,	 2.0000000000000001e-01,	 1.8325668337320376e-02,	 3.7785999311973995e+02,	 -8.3142438663892398e-02,	 7.3878872187374509e+02,	 3.8950229129432446e+03,	 5.2159099157201683e+02,	 7.2443736255497260e-01 
2.0445489999999999e+00,	 2.0000000000000001e-01,	 1.8277637504941487e-02,	 3.8056419996840947e+02,	 -8.4818065550751942e-02,	 7.3795869124816090e+02,	 3.8804496194512517e+03,	 5.2129790496022429e+02,	 7.3003210985346279e-01 
2.0520130000000001e+00,	 2.0000000000000001e-01,	 1.8227644506662144e-02,	 3.8321098398418724e+02,	 -8.7923779318066331e-02,	 7.3709611261281270e+02,	 3.8653124732697693e+03,	 5.2099315083480076e+02,	 7.3553940864051104e-01 
2.0594779999999999e+00,	 2.0000000000000001e-01,	 1.8175891485022546e-02,	 3.8579980022995892e+02,	 -8.9599479845075158e-02,	 7.3620435081628125e+02,	 3.8496747484666921e+03,	 5.2067789859855395e+02,	 7.4095676362068807e-01 
2.0669420000000001e+00,	 2.0000000000000001e-01,	 1.8122768660947301e-02,	 3.8834384796556094e+02,	 -9.0135649560722259e-02,	 7.3528753550918077e+02,	 3.8336431802201764e+03,	 5.2035359042335961e+02,	 7.4630763690890911e-01 
2.0744069999999999e+00,	 2.0000000000000001e-01,	 1.8068838751287886e-02,	 3.9085104297627652e+02,	 -8.9897168013808065e-02,	 7.3435543415922609e+02,	 3.8173896583863402e+03,	 5.2002366772637868e+02,	 7.5160243191136711e-01 
2.0818710000000000e+00,	 2.0000000000000001e-01,	 1.8014267516314901e-02,	 3.9333039363727028e+02,	 -8.9290402997605489e-02,	 7.3340913148336926e+02,	 3.8009561402546574e+03,	 5.1968850412602410e+02,	 7.5685800368762512e-01 
2.0893359999999999e+00,	 2.0000000000000001e-01,	 1.7959288049322279e-02,	 3.9578146090704377e+02,	 -9.0026370607833223e-02,	 7.3245314036119066e+02,	 3.7844162530696626e+03,	 5.1934968941834927e+02,	 7.6207125797883957e-01 
2.0968000000000000e+00,	 2.0000000000000001e-01,	 1.7904001454845830e-02,	 3.9820401353922148e+02,	 -9.1202093415515773e-02,	 7.3148794027425515e+02,	 3.7677945399961050e+03,	 5.1900738655446628e+02,	 7.6724153509056814e-01 
2.1042649999999998e+00,	 2.0000000000000001e-01,	 1.7848721355161735e-02,	 4.0059706872886932e+02,	 -9.1317558937693916e-02,	 7.3051949087079549e+02,	 3.7511882109544408e+03,	 5.1866370428659877e+02,	 7.7236381845527313e-01 
2.1117290000000000e+00,	 2.0000000000000001e-01,	 1.7793635074458081e-02,	 4.0296874075587448e+02,	 -9.2701862387172790e-02,	 7.2954913669051473e+02,	 3.7346436151376943e+03,	 5.1831911749522760e+02,	 7.7745299723097760e-01 
2.1191939999999998e+00,	 2.0000000000000001e-01,	 1.7739119181205562e-02,	 4.0532676386573382e+02,	 -9.0433012451711092e-02,	 7.2858417466051424e+02,	 3.7182768514297800e+03,	 5.1797621820319523e+02,	 7.8252004572736256e-01 
2.1266579999999999e+00,	 2.0000000000000001e-01,	 1.7685272367051256e-02,	 4.0767790492511460e+02,	 -8.7420780734433157e-02,	 7.2762591991792760e+02,	 3.7021145418147821e+03,	 5.1763547756073228e+02,	 7.8757722754882131e-01 
2.1341230000000002e+00,	 2.0000000000000001e-01,	 1.7632324485952561e-02,	 4.1002297898694349e+02,	 -8.3148669172527057e-02,	 7.2667974599782167e+02,	 3.6862311327064504e+03,	 5.1729881245627382e+02,	 7.9262309818751453e-01 
2.1415869999999999e+00,	 2.0000000000000001e-01,	 1.7580125037157602e-02,	 4.1236494300435015e+02,	 -8.2129277946079937e-02,	 7.2574333086872321e+02,	 3.6705821704436703e+03,	 5.1696540383185584e+02,	 7.9766450158272617e-01 
2.1490510000000000e+00,	 2.0000000000000001e-01,	 1.7528566480910793e-02,	 4.1470154921317237e+02,	 -8.2285914199587723e-02,	 7.2481585197441927e+02,	 3.6551400377292412e+03,	 5.1663496484101472e+02,	 8.0269742777563946e-01 
2.1565159999999999e+00,	 2.0000000000000001e-01,	 1.7477238545963447e-02,	 4.1703131878882243e+02,	 -8.2310426875486786e-02,	 7.2388989014729896e+02,	 3.6397810763693506e+03,	 5.1630485538085497e+02,	 8.0772303914146959e-01 
2.1639800000000000e+00,	 2.0000000000000001e-01,	 1.7425990006404962e-02,	 4.1934746202217855e+02,	 -8.2717610006180081e-02,	 7.2296412900339897e+02,	 3.6244669815249945e+03,	 5.1597460633690662e+02,	 8.1272889213954747e-01 
2.1714449999999998e+00,	 2.0000000000000001e-01,	 1.7374654323754291e-02,	 4.2165128233405812e+02,	 -8.3052900820668352e-02,	 7.2203431593786331e+02,	 3.6091418295921749e+03,	 5.1564269893876121e+02,	 8.1771988894896308e-01 
2.1789090000000000e+00,	 2.0000000000000001e-01,	 1.7323518253834203e-02,	 4.2394421032207811e+02,	 -8.3313877458915192e-02,	 7.2110692697644981e+02,	 3.5938976348274673e+03,	 5.1531144390908139e+02,	 8.2269513615407586e-01 
2.1863739999999998e+00,	 2.0000000000000001e-01,	 1.7272873037987475e-02,	 4.2623765940394941e+02,	 -8.3602377077841170e-02,	 7.2018482887544099e+02,	 3.5788087189853991e+03,	 5.1498186747208888e+02,	 8.2767509795079874e-01 
2.1938380000000000e+00,	 2.0000000000000001e-01,	 1.7223115401796461e-02,	 4.2853487299140738e+02,	 -8.0467536408575555e-02,	 7.1927654101801318e+02,	 3.5639987674039553e+03,	 5.1465702075776812e+02,	 8.3266109906609809e-01 
2.2013029999999998e+00,	 2.0000000000000001e-01,	 1.7174043248394860e-02,	 4.3083598025457650e+02,	 -7.8646429523666572e-02,	 7.1837917854184320e+02,	 3.5494104693827330e+03,	 5.1433587999549911e+02,	 8.3765493365260657e-01 
2.2087669999999999e+00,	 2.0000000000000001e-01,	 1.7125269097249884e-02,	 4.3312694143885074e+02,	 -7.7043693865707238e-02,	 7.1748764670360549e+02,	 3.5349377474373882e+03,	 5.1401662716741305e+02,	 8.4263217452295913e-01 
2.2162320000000002e+00,	 2.0000000000000001e-01,	 1.7076023689392192e-02,	 4.3539818158109756e+02,	 -7.6434352134119130e-02,	 7.1658806847297683e+02,	 3.5203533619785098e+03,	 5.1369429186415732e+02,	 8.4758229784900596e-01 
2.2236959999999999e+00,	 2.0000000000000001e-01,	 1.7025978791432320e-02,	 4.3763850931786993e+02,	 -7.6824510846247820e-02,	 7.1567702194086837e+02,	 3.5055736773543140e+03,	 5.1336764098329309e+02,	 8.5248558951366904e-01 
2.2311600000000000e+00,	 2.0000000000000001e-01,	 1.6975057518069298e-02,	 4.3985390634953887e+02,	 -7.7357318695997962e-02,	 7.1475093025779938e+02,	 3.4905665396721865e+03,	 5.1303538258406797e+02,	 8.5735590191948818e-01 
2.2386249999999999e+00,	 2.0000000000000001e-01,	 1.6923544612328499e-02,	 4.4204224530379338e+02,	 -7.7823858878176028e-02,	 7.1381667063308407e+02,	 3.4754252687060880e+03,	 5.1269997555376051e+02,	 8.6218504628754633e-01 
2.2460890000000000e+00,	 2.0000000000000001e-01,	 1.6871706357981228e-02,	 4.4421304266354662e+02,	 -7.8266669341400641e-02,	 7.1287629122730482e+02,	 3.4602152581163809e+03,	 5.1236214974164147e+02,	 8.6699036957064712e-01 
2.2535539999999998e+00,	 2.0000000000000001e-01,	 1.6819975574107547e-02,	 4.4637200523797787e+02,	 -7.8073358714020769e-02,	 7.1193939008705729e+02,	 3.4450721396096906e+03,	 5.1202535181942608e+02,	 8.7177716978194952e-01 
2.2610180000000000e+00,	 2.0000000000000001e-01,	 1.6768375122219084e-02,	 4.4852197614630859e+02,	 -7.9866773105690889e-02,	 7.1100460681833420e+02,	 3.4299937846017192e+03,	 5.1168909429927425e+02,	 8.7655177382924754e-01 
2.2684829999999998e+00,	 2.0000000000000001e-01,	 1.6716880704656212e-02,	 4.5063627341545646e+02,	 -6.9041195280268711e-02,	 7.1008062817823873e+02,	 3.4150168075614338e+03,	 5.1135650609160405e+02,	 8.8125656628209614e-01 
2.2759469999999999e+00,	 2.0000000000000001e-01,	 1.6689867765109379e-02,	 4.5202601251308346e+02,	 -1.1154205245292365e-01,	 7.0944976923862919e+02,	 3.4064693445834801e+03,	 5.1112930266358990e+02,	 8.8436727051171582e-01 
1.9027240000000001e+00,	 2.0617220000000000e-01,	 1.9623910154392580e-02,	 3.6044146647301272e+02,	 -2.0566820178722010e+00,	 7.4249424515664168e+02,	 4.1918774376025249e+03,	 5.2289742061740401e+02,	 6.8932704567952185e-01 
1.9101889999999999e+00,	 2.0616870000000001e-01,	 1.9588630338211958e-02,	 3.6274390952459902e+02,	 -2.0568726211915087e+00,	 7.4158324464388375e+02,	 4.1792073291579527e+03,	 5.2257653865226507e+02,	 6.9415619379355864e-01 
1.9176530000000001e+00,	 2.0616530000000000e-01,	 1.9529746184051767e-02,	 3.6556272130804484e+02,	 -2.0120079972538121e+00,	 7.4052099806069918e+02,	 4.1606761589289445e+03,	 5.2220213424601104e+02,	 7.0005125257578782e-01 
1.9251180000000001e+00,	 2.0616190000000001e-01,	 1.9470481518181149e-02,	 3.6831767182465296e+02,	 -1.9763763981367961e+00,	 7.3946144944974822e+02,	 4.1421151425460039e+03,	 5.2182841317252405e+02,	 7.0583158192086626e-01 
1.9325820000000000e+00,	 2.0615839999999999e-01,	 1.9410790052574914e-02,	 3.7102928208222869e+02,	 -1.9305000168913296e+00,	 7.3840472014086640e+02,	 4.1235153343679076e+03,	 5.2145541974208857e+02,	 7.1153600151997787e-01 
1.9400470000000001e+00,	 2.0615490000000000e-01,	 1.9351127565768022e-02,	 3.7371039687545584e+02,	 -1.8716843436587156e+00,	 7.3735543857298421e+02,	 4.1049994305642476e+03,	 5.2108479096522865e+02,	 7.1718670431485709e-01 
1.9475110000000000e+00,	 2.0615149999999999e-01,	 1.9291868353247831e-02,	 3.7637210262780201e+02,	 -1.8007855311811145e+00,	 7.3631762051016267e+02,	 4.0866685974286102e+03,	 5.2071795185129361e+02,	 7.2280283265374823e-01 
1.9549749999999999e+00,	 2.0614800000000000e-01,	 1.9233455689558324e-02,	 3.7902022066788288e+02,	 -1.7195772627299761e+00,	 7.3529809892443882e+02,	 4.0686534661985675e+03,	 5.2035732820691328e+02,	 7.2839201233099338e-01 
1.9624400000000000e+00,	 2.0614460000000001e-01,	 1.9176051924456369e-02,	 3.8166267430831124e+02,	 -1.6342548247788367e+00,	 7.3429865909755858e+02,	 4.0509965154160432e+03,	 5.2000356509956794e+02,	 7.3396837790100888e-01 
1.9699040000000001e+00,	 2.0614109999999999e-01,	 1.9119733932311714e-02,	 3.8429883111433912e+02,	 -1.5451668422394005e+00,	 7.3332231171829892e+02,	 4.0337286588102606e+03,	 5.1965774328104328e+02,	 7.3952893501548689e-01 
1.9773689999999999e+00,	 2.0613760000000000e-01,	 1.9064510736972448e-02,	 3.8692966898149695e+02,	 -1.4554488223918445e+00,	 7.3236685290800722e+02,	 4.0168376725992180e+03,	 5.1931909723473939e+02,	 7.4507640560828114e-01 
1.9848330000000001e+00,	 2.0613419999999999e-01,	 1.9010466594418948e-02,	 3.8955331998449896e+02,	 -1.3647279726515218e+00,	 7.3143311772501465e+02,	 4.0003439553090225e+03,	 5.1898793726516237e+02,	 7.5060648339133029e-01 
1.9922979999999999e+00,	 2.0613070000000000e-01,	 1.8957649233640340e-02,	 3.9217152310380914e+02,	 -1.2752504140421310e+00,	 7.3052170772341140e+02,	 3.9842588553554538e+03,	 5.1866449126089003e+02,	 7.5612193067920075e-01 
1.9997620000000000e+00,	 2.0612720000000001e-01,	 1.8906368552467228e-02,	 3.9479094718734410e+02,	 -1.1880452729789670e+00,	 7.2963660939593501e+02,	 3.9686671243139454e+03,	 5.1835018971110287e+02,	 7.6163324064175264e-01 
2.0072269999999999e+00,	 2.0612380000000000e-01,	 1.8856703090614910e-02,	 3.9741975804283049e+02,	 -1.1064011423474027e+00,	 7.2877886453062661e+02,	 3.9535885424053286e+03,	 5.1804541953243177e+02,	 7.6715531716776564e-01 
2.0146910000000000e+00,	 2.0612030000000001e-01,	 1.8808526647725678e-02,	 4.0005591263521342e+02,	 -1.0392149436767448e+00,	 7.2794779437559475e+02,	 3.9389906389425428e+03,	 5.1774995617688285e+02,	 7.7268429988473541e-01 
2.0221559999999998e+00,	 2.0611679999999999e-01,	 1.8761316411674327e-02,	 4.0269343972787931e+02,	 -1.0025506315961115e+00,	 7.2713434759762140e+02,	 3.9247130127496894e+03,	 5.1746059493437019e+02,	 7.7821324299742012e-01 
2.0296200000000000e+00,	 2.0611330000000000e-01,	 1.8714298388462714e-02,	 4.0531770548114872e+02,	 -9.8955170754042554e-01,	 7.2632874547363622e+02,	 3.9105398829734818e+03,	 5.1717386464648916e+02,	 7.8371886350682585e-01 
2.0370849999999998e+00,	 2.0610980000000001e-01,	 1.8666537523625897e-02,	 4.0791415061911448e+02,	 -9.7998135608140513e-01,	 7.2551653097142344e+02,	 3.8961979855137251e+03,	 5.1688461985691345e+02,	 7.8918062583102766e-01 
2.0445489999999999e+00,	 2.0610640000000000e-01,	 1.8617493195742147e-02,	 4.1046773816956267e+02,	 -9.8769992129239359e-01,	 7.2468959637543458e+02,	 3.8815319731235058e+03,	 5.1658996658557555e+02,	 7.9457394269902681e-01 
2.0520139999999998e+00,	 2.0610290000000001e-01,	 1.8566611557689745e-02,	 4.1296773403509417e+02,	 -1.0034970452796244e+00,	 7.2383971359590714e+02,	 3.8663840980272917e+03,	 5.1628696119114147e+02,	 7.9988259302879738e-01 
2.0594779999999999e+00,	 2.0609939999999999e-01,	 1.8513940234292609e-02,	 4.1541287562389510e+02,	 -1.0149211853986446e+00,	 7.2296699404013236e+02,	 3.8507672147058793e+03,	 5.1597562871455773e+02,	 8.0510414118915175e-01 
2.0669420000000001e+00,	 2.0609590000000000e-01,	 1.8459777244474007e-02,	 4.1781188305492606e+02,	 -1.0190977423002567e+00,	 7.2207442351976420e+02,	 3.8347614752899758e+03,	 5.1565702020724598e+02,	 8.1025392758425219e-01 
2.0744069999999999e+00,	 2.0609240000000001e-01,	 1.8404655409620638e-02,	 4.2017359494904844e+02,	 -1.0169531016889124e+00,	 7.2116996290732664e+02,	 3.8185216552373918e+03,	 5.1533396652361444e+02,	 8.1534471413927001e-01 
2.0818710000000000e+00,	 2.0608889999999999e-01,	 1.8348813595099218e-02,	 4.2250546928870938e+02,	 -1.0124236673172373e+00,	 7.2025576521300150e+02,	 3.8021099299161137e+03,	 5.1500722903666076e+02,	 8.2038980905437309e-01 
2.0893359999999999e+00,	 2.0608540000000000e-01,	 1.8292500128481208e-02,	 4.2481047437246633e+02,	 -1.0024798998522031e+00,	 7.1933578893458252e+02,	 3.7855995594696524e+03,	 5.1467821686704542e+02,	 8.2539272751253856e-01 
2.0968000000000000e+00,	 2.0608190000000001e-01,	 1.8235917646487326e-02,	 4.2708755298551978e+02,	 -9.8545127823784706e-01,	 7.1841252130308987e+02,	 3.7690461294773468e+03,	 5.1434781601756924e+02,	 8.3034996278159756e-01 
2.1042649999999998e+00,	 2.0607839999999999e-01,	 1.8179281110752538e-02,	 4.2933532362300741e+02,	 -9.6428102035381025e-01,	 7.1748918074221081e+02,	 3.7525112191066737e+03,	 5.1401717666880995e+02,	 8.3525692523498607e-01 
2.1117290000000000e+00,	 2.0607490000000001e-01,	 1.8122722050540777e-02,	 4.3156206978671332e+02,	 -9.3143925834342944e-01,	 7.1656605528943533e+02,	 3.7360234916888307e+03,	 5.1368640160329892e+02,	 8.4012945174330356e-01 
2.1191939999999998e+00,	 2.0607139999999999e-01,	 1.8066571617531797e-02,	 4.3377443972030414e+02,	 -8.8891842718082947e-01,	 7.1564838600640257e+02,	 3.7196782955534036e+03,	 5.1335737035231762e+02,	 8.4497735025407184e-01 
2.1266579999999999e+00,	 2.0606790000000000e-01,	 1.8010963415309347e-02,	 4.3597816705691116e+02,	 -8.4242747151423858e-01,	 7.1473802911965913e+02,	 3.7035121331529854e+03,	 5.1303075246053231e+02,	 8.4981061829874893e-01 
2.1341230000000002e+00,	 2.0606440000000001e-01,	 1.7956091828920124e-02,	 4.3817561896106588e+02,	 -7.9710984615141611e-01,	 7.1383792016521090e+02,	 3.6875793120425737e+03,	 5.1270760675233794e+02,	 8.5463203241636687e-01 
2.1415869999999999e+00,	 2.0606079999999999e-01,	 1.7901897284310901e-02,	 4.4037021349727257e+02,	 -7.6018450944985028e-01,	 7.1294621361839893e+02,	 3.6718570504521549e+03,	 5.1238727661751932e+02,	 8.5944926762070128e-01 
2.1490520000000002e+00,	 2.0605730000000000e-01,	 1.7848328043502990e-02,	 4.4256163792229529e+02,	 -7.3133940094532646e-01,	 7.1206262951221447e+02,	 3.6563323978908343e+03,	 5.1206966667287588e+02,	 8.6426178115913344e-01 
2.1565159999999999e+00,	 2.0605380000000001e-01,	 1.7795106956952585e-02,	 4.4474793457291491e+02,	 -7.0991080499304515e-01,	 7.1118306965536044e+02,	 3.6409268152571258e+03,	 5.1175330749641336e+02,	 8.6906815186299124e-01 
2.1639800000000000e+00,	 2.0605029999999999e-01,	 1.7742075912125288e-02,	 4.4692345705964357e+02,	 -6.9254513685795382e-01,	 7.1030602792754507e+02,	 3.6255998553245877e+03,	 5.1143765918780718e+02,	 8.7385820267373526e-01 
2.1714449999999998e+00,	 2.0604680000000000e-01,	 1.7689097134957997e-02,	 4.4908883426385984e+02,	 -6.7449156835650959e-01,	 7.0942822250682752e+02,	 3.6103064381535619e+03,	 5.1112154083879295e+02,	 8.7863512862286230e-01 
2.1789090000000000e+00,	 2.0604320000000001e-01,	 1.7636379054656637e-02,	 4.5124557051323802e+02,	 -6.5045232337629233e-01,	 7.0855306513628022e+02,	 3.5951063570744104e+03,	 5.1080618136571110e+02,	 8.8339972336854777e-01 
2.1863739999999998e+00,	 2.0603969999999999e-01,	 1.7584110931706341e-02,	 4.5340152968802005e+02,	 -6.1919942957246810e-01,	 7.0768284250428405e+02,	 3.5800493951601457e+03,	 5.1049240693566691e+02,	 8.8816590871987955e-01 
2.1938380000000000e+00,	 2.0603620000000000e-01,	 1.7532548960994078e-02,	 4.5555917215076249e+02,	 -5.8392287401746046e-01,	 7.0682218033567733e+02,	 3.5652104203994131e+03,	 5.1018188989229498e+02,	 8.9293554985791912e-01 
2.2013029999999998e+00,	 2.0603260000000001e-01,	 1.7481529118359405e-02,	 4.5771855537520349e+02,	 -5.5356839906374611e-01,	 7.0596766034152597e+02,	 3.5505379772765309e+03,	 5.0987340178723343e+02,	 8.9771086021674573e-01 
2.2087669999999999e+00,	 2.0602909999999999e-01,	 1.7430817467541528e-02,	 4.5987058572670946e+02,	 -5.3238624884213825e-01,	 7.0511502567158300e+02,	 3.5359625926497556e+03,	 5.0956540815893652e+02,	 9.0247667234020390e-01 
2.2162320000000002e+00,	 2.0602560000000000e-01,	 1.7379786323321531e-02,	 4.6200640292170561e+02,	 -5.2123372322961292e-01,	 7.0425522101617503e+02,	 3.5213115035178430e+03,	 5.0925463591846784e+02,	 9.0722138663544927e-01 
2.2236959999999999e+00,	 2.0602200000000001e-01,	 1.7328141170135591e-02,	 4.6411644459458336e+02,	 -5.1488613725885590e-01,	 7.0338416156639050e+02,	 3.5065053009865705e+03,	 5.0893960217875809e+02,	 9.1192889728444404e-01 
2.2311610000000002e+00,	 2.0601849999999999e-01,	 1.7275769088106147e-02,	 4.6620124718703289e+02,	 -5.1045798563937894e-01,	 7.0249949738869122e+02,	 3.4915104471804357e+03,	 5.0861944832959125e+02,	 9.1660184874186212e-01 
2.2386249999999999e+00,	 2.0601490000000000e-01,	 1.7222889471008834e-02,	 4.6826020152717604e+02,	 -5.0546500669313676e-01,	 7.0160565946085489e+02,	 3.4763943509621263e+03,	 5.0829576976499777e+02,	 9.2123622149465623e-01 
2.2460900000000001e+00,	 2.0601140000000001e-01,	 1.7169695410908809e-02,	 4.7030242170687893e+02,	 -4.9591728195478435e-01,	 7.0070442519804465e+02,	 3.4612055272459943e+03,	 5.0796920400787604e+02,	 9.2584881024231858e-01 
2.2535539999999998e+00,	 2.0600779999999999e-01,	 1.7116561398115418e-02,	 4.7233363087371731e+02,	 -4.8070659479602795e-01,	 6.9980251786362874e+02,	 3.4460530625829979e+03,	 5.0764218404581550e+02,	 9.3044646471897097e-01 
2.2610180000000000e+00,	 2.0600430000000000e-01,	 1.7063480379089425e-02,	 4.7435499409774172e+02,	 -4.6056820046672220e-01,	 6.9889959558069347e+02,	 3.4309338445587996e+03,	 5.0731458492031857e+02,	 9.3503169786307017e-01 
2.2684829999999998e+00,	 2.0600070000000001e-01,	 1.7011237653713825e-02,	 4.7632999241056262e+02,	 -4.4833703797313662e-01,	 6.9801209708924512e+02,	 3.4160860250136379e+03,	 5.0699237558064686e+02,	 9.3952143335404659e-01 
2.2759469999999999e+00,	 2.0599709999999999e-01,	 1.6986259423759951e-02,	 4.7744573011447858e+02,	 -4.7989513353645485e-01,	 6.9750790731319489e+02,	 3.4086061671236184e+03,	 5.0680923652752119e+02,	 9.4206248995038289e-01 
1.9027200000000000e+00,	 2.1216030000000000e-01,	 2.0279176353383638e-02,	 4.2107635350037776e+02,	 -3.5310211767744275e+00,	 7.1813145056211806e+02,	 4.1897122493303050e+03,	 5.1424718980323985e+02,	 8.1884970231611831e-01 
1.9101850000000000e+00,	 2.1215460000000000e-01,	 2.0247652244243942e-02,	 4.2285261322364232e+02,	 -3.5360664665275516e+00,	 7.1728292715463556e+02,	 4.1782565672380579e+03,	 5.1394329018394524e+02,	 8.2278999659809338e-01 
1.9176489999999999e+00,	 2.1214890000000000e-01,	 2.0189535840121259e-02,	 4.2524772765155154e+02,	 -3.4588763904733595e+00,	 7.1619397313670754e+02,	 4.1599387296292707e+03,	 5.1355301657965731e+02,	 8.2807768736527676e-01 
1.9251140000000000e+00,	 2.1214320000000000e-01,	 2.0131562760389458e-02,	 4.2759578947985403e+02,	 -3.3967207170846243e+00,	 7.1511411776311365e+02,	 4.1417394890620972e+03,	 5.1316571076488867e+02,	 8.3327718838857512e-01 
1.9325779999999999e+00,	 2.1213750000000001e-01,	 2.0073204916009432e-02,	 4.2991678092956130e+02,	 -3.3120196132850563e+00,	 7.1404148284423445e+02,	 4.1235389272941184e+03,	 5.1278070506466088e+02,	 8.3842768295527248e-01 
1.9400430000000000e+00,	 2.1213180000000001e-01,	 2.0014746379416481e-02,	 4.3221699010110956e+02,	 -3.2073015830634555e+00,	 7.1297776634180354e+02,	 4.1054050824243104e+03,	 5.1239861480463151e+02,	 8.4354031699357557e-01 
1.9475070000000001e+00,	 2.1212600000000001e-01,	 1.9956409463561049e-02,	 4.3450482959905395e+02,	 -3.0816447817920287e+00,	 7.1192469884280399e+02,	 4.0873930659400553e+03,	 5.1202006883577656e+02,	 8.4863032506945424e-01 
1.9549719999999999e+00,	 2.1212030000000001e-01,	 1.9898609663612683e-02,	 4.3678214318740947e+02,	 -2.9392261238552604e+00,	 7.1088673102548341e+02,	 4.0696126854011359e+03,	 5.1164667667130493e+02,	 8.5369856273497313e-01 
1.9624360000000001e+00,	 2.1211459999999999e-01,	 1.9841483431862927e-02,	 4.3905479706970453e+02,	 -2.7891360115306960e+00,	 7.0986637502619703e+02,	 4.0521049130292049e+03,	 5.1127935428339259e+02,	 8.5875491044878738e-01 
1.9699009999999999e+00,	 2.1210879999999999e-01,	 1.9785148901153585e-02,	 4.4132741467421386e+02,	 -2.6333018199730782e+00,	 7.0886616309908936e+02,	 4.0349067925093868e+03,	 5.1091902733214215e+02,	 8.6380668394723126e-01 
1.9773650000000000e+00,	 2.1210309999999999e-01,	 1.9729682837279376e-02,	 4.4360146903400255e+02,	 -2.4747297473454708e+00,	 7.0788692087793527e+02,	 4.0180369810204520e+03,	 5.1056600837420859e+02,	 8.6885606291894635e-01 
1.9848300000000001e+00,	 2.1209739999999999e-01,	 1.9675128928570131e-02,	 4.4587564098162409e+02,	 -2.3151247384063534e+00,	 7.0692896989836106e+02,	 4.0015044460089211e+03,	 5.1022042861160634e+02,	 8.7390003684797057e-01 
1.9922940000000000e+00,	 2.1209159999999999e-01,	 1.9621651527845230e-02,	 4.4815205789724155e+02,	 -2.1577179844626166e+00,	 7.0599290208101979e+02,	 3.9853441538276093e+03,	 5.0988251691903469e+02,	 8.7894218252112688e-01 
1.9997590000000001e+00,	 2.1208589999999999e-01,	 1.9569419970607401e-02,	 4.5043637477124611e+02,	 -2.0048527412203048e+00,	 7.0508003361923568e+02,	 3.9695959840160472e+03,	 5.0955276415050514e+02,	 8.8399252864779621e-01 
2.0072230000000002e+00,	 2.1208009999999999e-01,	 1.9518392998321664e-02,	 4.5273035079946948e+02,	 -1.8637296189812593e+00,	 7.0419021665931950e+02,	 3.9542487203229302e+03,	 5.0923113269618472e+02,	 8.8905441531374707e-01 
2.0146880000000000e+00,	 2.1207429999999999e-01,	 1.9468302255176761e-02,	 4.5503032580992425e+02,	 -1.7468977135664063e+00,	 7.0331844442134945e+02,	 3.9392180804374302e+03,	 5.0891582652333858e+02,	 8.9412365527313376e-01 
2.0221520000000002e+00,	 2.1206860000000000e-01,	 1.9418880493034852e-02,	 4.5733017352017828e+02,	 -1.6680781203800903e+00,	 7.0246168063343509e+02,	 3.9244316077504941e+03,	 5.0860575821584109e+02,	 8.9919000762082213e-01 
2.0296170000000000e+00,	 2.1206280000000000e-01,	 1.9370083575464998e-02,	 4.5962892192944838e+02,	 -1.6317782167359471e+00,	 7.0162082763671356e+02,	 3.9098842868208217e+03,	 5.0830126421750816e+02,	 9.0425078757934096e-01 
2.0370810000000001e+00,	 2.1205700000000000e-01,	 1.9321181423060364e-02,	 4.6191643840724038e+02,	 -1.6184458984643928e+00,	 7.0078633047935227e+02,	 3.8953746876573773e+03,	 5.0799889137912209e+02,	 9.0929189327607485e-01 
2.0445460000000000e+00,	 2.1205130000000000e-01,	 1.9270982028274500e-02,	 4.6416974650976999e+02,	 -1.6253504389868807e+00,	 6.9994237540404038e+02,	 3.8805749056181289e+03,	 5.0769290838485699e+02,	 9.1427826649222343e-01 
2.0520100000000001e+00,	 2.1204550000000000e-01,	 1.9219189326259351e-02,	 4.6637873745287345e+02,	 -1.6456391466702678e+00,	 6.9908576501633684e+02,	 3.8654090707083074e+03,	 5.0738214840286776e+02,	 9.1919205724754638e-01 
2.0594749999999999e+00,	 2.1203970000000000e-01,	 1.9165815386749472e-02,	 4.6854354527482968e+02,	 -1.6628041956626141e+00,	 6.9821599300114667e+02,	 3.8498785593209291e+03,	 5.0706641879936302e+02,	 9.2403377238063433e-01 
2.0669390000000001e+00,	 2.1203390000000000e-01,	 1.9110947340546965e-02,	 4.7066565656364884e+02,	 -1.6680121632133582e+00,	 6.9733358729732299e+02,	 3.8340055474442265e+03,	 5.0674590210951499e+02,	 9.2880595632817864e-01 
2.0744039999999999e+00,	 2.1202810000000000e-01,	 1.9054883995642168e-02,	 4.7275113785581436e+02,	 -1.6626518249486040e+00,	 6.9644139792960004e+02,	 3.8178672643862637e+03,	 5.0642162545152053e+02,	 9.3351870819895288e-01 
2.0818680000000001e+00,	 2.1202240000000000e-01,	 1.8997979461378541e-02,	 4.7480707884472577e+02,	 -1.6514876095872923e+00,	 6.9554379342219102e+02,	 3.8015598385770118e+03,	 5.0609517092442559e+02,	 9.3818312886598176e-01 
2.0893329999999999e+00,	 2.1201660000000000e-01,	 1.8940584110564325e-02,	 4.7684197251432619e+02,	 -1.6309706288137504e+00,	 6.9464597991107416e+02,	 3.7851825760616325e+03,	 5.0576842959597263e+02,	 9.4281242927607822e-01 
2.0967970000000000e+00,	 2.1201080000000000e-01,	 1.8883007451297888e-02,	 4.7885473033522305e+02,	 -1.5992004562258373e+00,	 6.9375147697576199e+02,	 3.7688167614039703e+03,	 5.0544268303188778e+02,	 9.4740198399747622e-01 
2.1042619999999999e+00,	 2.1200500000000000e-01,	 1.8825443519142306e-02,	 4.8084552863627471e+02,	 -1.5585400338287221e+00,	 6.9286077859088721e+02,	 3.7525037227813646e+03,	 5.0511811321856220e+02,	 9.5195171555777114e-01 
2.1117260000000000e+00,	 2.1199920000000000e-01,	 1.8767780447104906e-02,	 4.8282140837656061e+02,	 -1.4999087941699272e+00,	 6.9197241598916162e+02,	 3.7362130609062610e+03,	 5.0479418669294341e+02,	 9.5647642320291526e-01 
2.1191900000000001e+00,	 2.1199340000000000e-01,	 1.8710167288007316e-02,	 4.8478501510536722e+02,	 -1.4278543624472317e+00,	 6.9108843088382662e+02,	 3.7199853604956670e+03,	 5.0447164988626810e+02,	 9.6097990435131053e-01 