TITLE = "Final State"
VARIABLES = "X", "Y", "rho", "u", "v", "T", "p", "c", "M"
ZONE I=51, J=46, DATAPACKING=POINT
7.7575950000000005e-01,	 7.3276870000000005e-01,	 3.9936835367883540e-02,	 5.5188172360627823e+02,	 9.0651252770818516e+01,	 6.4343663484590263e+02,	 7.3928070232484497e+03,	 4.8676892540281671e+02,	 1.1489584898497469e+00 
7.8355719999999995e-01,	 7.3318910000000004e-01,	 3.9772867046271178e-02,	 5.5389243320073228e+02,	 8.7638199233591735e+01,	 6.4249744452019513e+02,	 7.3517078547991214e+03,	 4.8641354028103183e+02,	 1.1528929472474980e+00 
7.9133370000000003e-01,	 7.3358190000000001e-01,	 3.9495734628892720e-02,	 5.5723189428305204e+02,	 8.4137329629288729e+01,	 6.4088173186894005e+02,	 7.2821232652563349e+03,	 4.8580155401893455e+02,	 1.1600376883849992e+00 
7.9908990000000002e-01,	 7.3394890000000002e-01,	 3.9219594513103397e-02,	 5.6054000200726091e+02,	 8.0620186853957392e+01,	 6.3926132141199719e+02,	 7.2129258050086019e+03,	 4.8518701306825830e+02,	 1.1671952200615219e+00 
8.0682569999999998e-01,	 7.3429109999999997e-01,	 3.8946436073852092e-02,	 5.6381149403600557e+02,	 7.7130321745535269e+01,	 6.3765769823013579e+02,	 7.1447208767631264e+03,	 4.8457807140489598e+02,	 1.1743470216952896e+00 
8.1454450000000000e-01,	 7.3461120000000002e-01,	 3.8676258526451346e-02,	 5.6706357615772367e+02,	 7.3616604125317338e+01,	 6.3606077129500909e+02,	 7.0773879704757892e+03,	 4.8397091110888658e+02,	 1.1815216119815926e+00 
8.2224640000000004e-01,	 7.3491030000000002e-01,	 3.8403365326859201e-02,	 5.7032272350876065e+02,	 7.0072808741126948e+01,	 6.3443494056566249e+02,	 7.0094882855581945e+03,	 4.8335197792109091e+02,	 1.1888052178622992e+00 
8.2993360000000005e-01,	 7.3519020000000002e-01,	 3.8129822009571337e-02,	 5.7354942130584072e+02,	 6.6540112002863367e+01,	 6.3283060642822466e+02,	 6.9419613411688242e+03,	 4.8274045033428376e+02,	 1.1960802796773373e+00 
8.3760769999999996e-01,	 7.3545260000000001e-01,	 3.7855931592175956e-02,	 5.7674031902288573e+02,	 6.3025629250377932e+01,	 6.3125292124516943e+02,	 6.8749141060182046e+03,	 4.8213832416719538e+02,	 1.2033347278016353e+00 
8.4527149999999995e-01,	 7.3569949999999995e-01,	 3.7581596616506167e-02,	 5.7991682361662617e+02,	 5.9526803594445603e+01,	 6.2966417068691999e+02,	 6.8079153310711381e+03,	 4.8153121401926387e+02,	 1.2106462245964886e+00 
8.5292509999999999e-01,	 7.3593200000000003e-01,	 3.7307194317940370e-02,	 5.8308529418858166e+02,	 5.6045641743641944e+01,	 6.2805783666775949e+02,	 6.7409664497138101e+03,	 4.8091660550657662e+02,	 1.2180336953721205e+00 
8.6056949999999999e-01,	 7.3615109999999995e-01,	 3.7033849771927307e-02,	 5.8625220023744282e+02,	 5.2576625419962923e+01,	 6.2643799764760138e+02,	 6.6743179352506331e+03,	 4.8029603334305244e+02,	 1.2255047766683151e+00 
8.6820509999999995e-01,	 7.3635799999999996e-01,	 3.6761655841124313e-02,	 5.8943061045667332e+02,	 4.9127874544772972e+01,	 6.2480262654210048e+02,	 6.6079667486125200e+03,	 4.7966869627406254e+02,	 1.2330894786409525e+00 
8.7583270000000002e-01,	 7.3655360000000003e-01,	 3.6491236679162653e-02,	 5.9261901498052976e+02,	 4.5712415244900200e+01,	 6.2315329474134364e+02,	 6.5420433077162143e+03,	 4.7903517170781669e+02,	 1.2407845555752792e+00 
8.8345300000000004e-01,	 7.3673880000000003e-01,	 3.6223249885924701e-02,	 5.9580496899776608e+02,	 4.2328099274493177e+01,	 6.2149417589831478e+02,	 6.4767094168673602e+03,	 4.7839704140633768e+02,	 1.2485584024629619e+00 
8.9106620000000003e-01,	 7.3691439999999997e-01,	 3.5957954697751551e-02,	 5.9897739801046464e+02,	 3.8975541839433049e+01,	 6.1982732905743023e+02,	 6.4120313841900970e+03,	 4.7775508045754100e+02,	 1.2563846101150653e+00 
8.9867300000000006e-01,	 7.3708090000000004e-01,	 3.5695082212957752e-02,	 6.0212783174929223e+02,	 3.5657069512007794e+01,	 6.1815180363072750e+02,	 6.3479495240838896e+03,	 4.7710890655214030e+02,	 1.2642452854134745e+00 
9.0627360000000001e-01,	 7.3723859999999997e-01,	 3.5433761783380355e-02,	 6.0525973962365538e+02,	 3.2381494469554042e+01,	 6.1646157407409316e+02,	 6.2842464646321905e+03,	 4.7645617401754055e+02,	 1.2721533717949618e+00 
9.1386840000000003e-01,	 7.3738840000000005e-01,	 3.5173885627379414e-02,	 6.0837082932036446e+02,	 2.9147635824847061e+01,	 6.1475515781317097e+02,	 6.2208891930432210e+03,	 4.7579628213420011e+02,	 1.2801038967433884e+00 
9.2145790000000005e-01,	 7.3753089999999999e-01,	 3.4916376463231188e-02,	 6.1145706420993531e+02,	 2.5953788142358054e+01,	 6.1303339155488493e+02,	 6.1580503533177216e+03,	 4.7512952531553572e+02,	 1.2880858765117253e+00 
9.2904240000000005e-01,	 7.3766659999999995e-01,	 3.4661329058732884e-02,	 6.1451811202509793e+02,	 2.2798402274078065e+01,	 6.1130086511004151e+02,	 6.0957922748747396e+03,	 4.7445765580048737e+02,	 1.2960922126010748e+00 
9.3662190000000001e-01,	 7.3779560000000000e-01,	 3.4407900292067389e-02,	 6.1755704313621277e+02,	 1.9689639679368035e+01,	 6.0956396613225161e+02,	 6.0340290214835150e+03,	 4.7378313424405928e+02,	 1.3041216586927986e+00 
9.4419670000000000e-01,	 7.3791830000000003e-01,	 3.4155751461305131e-02,	 6.2056961121302413e+02,	 1.6625101955344626e+01,	 6.0782415526622503e+02,	 5.9727142482775080e+03,	 4.7310651775762352e+02,	 1.3121617263205005e+00 
9.5176689999999997e-01,	 7.3803500000000000e-01,	 3.3905287064399464e-02,	 6.2355288361128464e+02,	 1.3602872062740191e+01,	 6.0608502673149110e+02,	 5.9119522567510548e+03,	 4.7242919814742118e+02,	 1.3202004500450144e+00 
9.5933259999999998e-01,	 7.3814559999999996e-01,	 3.3657074154230304e-02,	 6.2650865937499611e+02,	 1.0617104421651300e+01,	 6.0434858933861244e+02,	 5.8518584137270627e+03,	 4.7175195642008168e+02,	 1.3282374467376914e+00 
9.6689369999999997e-01,	 7.3825010000000002e-01,	 3.3411264778197877e-02,	 6.2944398554069198e+02,	 7.6695949016425509e+00,	 6.0261470546404848e+02,	 5.7924538057578629e+03,	 4.7107473912011670e+02,	 1.3362862778254998e+00 
9.7445059999999994e-01,	 7.3834920000000004e-01,	 3.3167655012366667e-02,	 6.3235669866694570e+02,	 4.7565819430254148e+00,	 6.0088206125039119e+02,	 5.7336865049122107e+03,	 4.7039703208048854e+02,	 1.3443422147081916e+00 
9.8200339999999997e-01,	 7.3844310000000002e-01,	 3.2925774633689689e-02,	 6.3524044555448506e+02,	 1.8795504734755508e+00,	 5.9914665122632800e+02,	 5.6754339661330459e+03,	 4.6971726308512063e+02,	 1.3523948896078712e+00 
9.8955260000000000e-01,	 7.3853250000000004e-01,	 3.2685057554276975e-02,	 6.3808804657726955e+02,	 -9.6212974382080385e-01,	 5.9740363417942274e+02,	 5.6175513594830600e+03,	 4.6903352270646042e+02,	 1.3604331909157230e+00 
9.9709809999999999e-01,	 7.3861719999999997e-01,	 3.2445168215310363e-02,	 6.4090245750605959e+02,	 -3.7621665484735676e+00,	 5.9565056454826561e+02,	 5.5599581846587771e+03,	 4.6834483211071688e+02,	 1.3684649762957672e+00 
1.0046400000000000e+00,	 7.3869790000000002e-01,	 3.2206367549816942e-02,	 6.4369110743665522e+02,	 -6.5211348594526513e+00,	 5.9388877179914493e+02,	 5.5027121711986774e+03,	 4.6765169286561729e+02,	 1.3765033864155649e+00 
1.0121789999999999e+00,	 7.3877470000000001e-01,	 3.1969140097087470e-02,	 6.4646670408504724e+02,	 -9.2353599244556825e+00,	 5.9212039576304619e+02,	 5.4459156828184578e+03,	 4.6695492891264155e+02,	 1.3845718899426400e+00 
1.0197149999999999e+00,	 7.3884770000000000e-01,	 3.1733624103529465e-02,	 6.4923911234608113e+02,	 -1.1905871753799095e+01,	 5.9034558475562994e+02,	 5.3895924999238587e+03,	 4.6625458257147119e+02,	 1.3926903745845272e+00 
1.0272479999999999e+00,	 7.3891689999999999e-01,	 3.1499389767515082e-02,	 6.5201423198519456e+02,	 -1.4525742343420607e+01,	 5.8856285716439470e+02,	 5.3336551056758653e+03,	 4.6555005170133165e+02,	 1.4008719656667807e+00 
1.0347780000000000e+00,	 7.3898260000000004e-01,	 3.1265963652072987e-02,	 6.5478254185305434e+02,	 -1.7095422521723187e+01,	 5.8677412219474809e+02,	 5.2780403806996155e+03,	 4.6484207351178691e+02,	 1.4090929145690849e+00 
1.0423039999999999e+00,	 7.3904490000000000e-01,	 3.1033721064977472e-02,	 6.5752094022430470e+02,	 -1.9622249062032388e+01,	 5.8498891248496068e+02,	 5.2228965591206825e+03,	 4.6413441387467839e+02,	 1.4172912987600832e+00 
1.0498289999999999e+00,	 7.3910419999999999e-01,	 3.0804396057228255e-02,	 6.6020199584003421e+02,	 -2.2131372581500287e+01,	 5.8320629177148896e+02,	 5.1685037609383817e+03,	 4.6342670226313595e+02,	 1.4254095281086154e+00 
1.0573500000000000e+00,	 7.3916020000000004e-01,	 3.0578930316271187e-02,	 6.6282267497072189e+02,	 -2.4636470765670804e+01,	 5.8142770672503741e+02,	 5.1150272302008489e+03,	 4.6271951409337856e+02,	 1.4334393806759380e+00 
1.0648679999999999e+00,	 7.3921329999999996e-01,	 3.0355544891081537e-02,	 6.6541348782159628e+02,	 -2.7116459346744438e+01,	 5.7965356552000048e+02,	 5.0621671598519715e+03,	 4.6201301443683116e+02,	 1.4414437541635450e+00 
1.0723840000000000e+00,	 7.3926329999999996e-01,	 3.0131007923149742e-02,	 6.6802275281849461e+02,	 -2.9525007666931451e+01,	 5.7786062214983690e+02,	 5.0091806924125613e+03,	 4.6129792807176830e+02,	 1.4495510626780745e+00 
1.0798970000000001e+00,	 7.3931020000000003e-01,	 2.9903401000719539e-02,	 6.7067221837696866e+02,	 -3.1836002305501573e+01,	 5.7602932823453591e+02,	 4.9555871489340161e+03,	 4.6056640007927564e+02,	 1.4578297536021663e+00 
1.0874079999999999e+00,	 7.3935390000000001e-01,	 2.9673513489056027e-02,	 6.7334801652458032e+02,	 -3.4049688133539604e+01,	 5.7416349086059472e+02,	 4.9015618048692049e+03,	 4.5981987644668698e+02,	 1.4662445216312203e+00 
1.0949160000000000e+00,	 7.3939480000000002e-01,	 2.9443855475140640e-02,	 6.7601131642054975e+02,	 -3.6198929924220735e+01,	 5.7228354580407836e+02,	 4.8477015455861720e+03,	 4.5906648053291201e+02,	 1.4746879552249608e+00 
1.1024210000000001e+00,	 7.3943300000000001e-01,	 2.9217338036913440e-02,	 6.7862308447371527e+02,	 -3.8319419807394141e+01,	 5.7041432621152921e+02,	 4.7946952334883999e+03,	 4.5831615501584054e+02,	 1.4830463564413123e+00 
1.1099239999999999e+00,	 7.3946880000000004e-01,	 2.8996468959842439e-02,	 6.8115424301249527e+02,	 -4.0447184611299114e+01,	 5.6857620590709485e+02,	 4.7431158633202058e+03,	 4.5757711326711910e+02,	 1.4912329544191893e+00 
1.1174249999999999e+00,	 7.3950229999999995e-01,	 2.8782797880062549e-02,	 6.8359543769946413e+02,	 -4.2601178586152734e+01,	 5.6678126274845329e+02,	 4.6933012351592206e+03,	 4.5685427775483470e+02,	 1.4992123795074410e+00 
1.1249240000000000e+00,	 7.3953369999999996e-01,	 2.8576650217796134e-02,	 6.8594804546980140e+02,	 -4.4790115196412174e+01,	 5.6503282815630450e+02,	 4.6453125229152038e+03,	 4.5614907024699244e+02,	 1.5069828206120026e+00 
1.1324209999999999e+00,	 7.3956310000000003e-01,	 2.8377011694419377e-02,	 6.8822805088611415e+02,	 -4.6999908795477197e+01,	 5.6332446981136195e+02,	 4.5989132051924926e+03,	 4.5545897230457564e+02,	 1.5145843331405950e+00 
1.1399170000000001e+00,	 7.3959079999999999e-01,	 2.8181760185925664e-02,	 6.9045780977330298e+02,	 -4.9218186748463566e+01,	 5.6163951986482425e+02,	 4.5536087382839805e+03,	 4.5477730451778348e+02,	 1.5220852056138374e+00 
1.1474100000000000e+00,	 7.3961650000000001e-01,	 2.7988654761717489e-02,	 6.9266264509863481e+02,	 -5.1424489822694838e+01,	 5.5995924849631342e+02,	 4.5088769639334105e+03,	 4.5409651048124113e+02,	 1.5295623904605327e+00 
1.1549020000000001e+00,	 7.3964070000000004e-01,	 2.7831679684057208e-02,	 6.9430831574654962e+02,	 -5.3393861920935962e+01,	 5.5857730713357319e+02,	 4.4725236210914927e+03,	 4.5353582467332171e+02,	 1.5353987603040065e+00 
7.7589609999999998e-01,	 7.3867989999999994e-01,	 4.0102073789437545e-02,	 5.5016299931678736e+02,	 9.0498157192679912e+01,	 6.4485232703287238e+02,	 7.4397277053987209e+03,	 4.8730412676936101e+02,	 1.1441653411511574e+00 
7.8368620000000000e-01,	 7.3909110000000000e-01,	 3.9955136152311430e-02,	 5.5233861223202621e+02,	 8.7535721046771400e+01,	 6.4376191050435420e+02,	 7.3999337154100904e+03,	 4.8689194767774075e+02,	 1.1485751946714067e+00 
7.9145569999999998e-01,	 7.3947529999999995e-01,	 3.9687736947194269e-02,	 5.5588860144943521e+02,	 8.4110848408801047e+01,	 6.4199388249873732e+02,	 7.3302225909666004e+03,	 4.8622288785138517e+02,	 1.1562926425703455e+00 
7.9920539999999995e-01,	 7.3983429999999994e-01,	 3.9418406066532852e-02,	 5.5937387556782392e+02,	 8.0651395958687715e+01,	 6.4025551169961034e+02,	 7.2607640238784224e+03,	 4.8556415211825373e+02,	 1.1639207467798711e+00 
8.0693510000000002e-01,	 7.4016910000000002e-01,	 3.9150686850755269e-02,	 5.6278892130141844e+02,	 7.7154644590512305e+01,	 6.3854217612209050e+02,	 7.1921528910475645e+03,	 4.8491402756982370e+02,	 1.1714509505148731e+00 
8.1464829999999999e-01,	 7.4048219999999998e-01,	 3.8883486639852735e-02,	 5.6615052530476703e+02,	 7.3670539532173990e+01,	 6.3685066351972876e+02,	 7.1241448949257210e+03,	 4.8427132756704833e+02,	 1.1789333274246230e+00 
8.2234490000000005e-01,	 7.4077479999999996e-01,	 3.8614818224833564e-02,	 5.6949667133833930e+02,	 7.0223631750206238e+01,	 6.3516073805442466e+02,	 7.0561463031501316e+03,	 4.8362837771630319e+02,	 1.1864686610469253e+00 
8.3002719999999997e-01,	 7.4104859999999995e-01,	 3.8345820026508465e-02,	 5.7281301722665944e+02,	 6.6770346268922765e+01,	 6.3345835588476200e+02,	 6.9882114321743065e+03,	 4.8297982319157063e+02,	 1.1940280425935947e+00 
8.3769669999999996e-01,	 7.4130529999999994e-01,	 3.8077107901243260e-02,	 5.7608779886580078e+02,	 6.3316174496100381e+01,	 6.3174497516743713e+02,	 6.9204715629530083e+03,	 4.8232619802287923e+02,	 1.2015868247368320e+00 
8.4535610000000005e-01,	 7.4154679999999995e-01,	 3.7807715214873326e-02,	 5.7933398341860743e+02,	 5.9876000098217389e+01,	 6.3002874128250664e+02,	 6.8528422156496490e+03,	 4.8167059523721286e+02,	 1.2091665073802977e+00 
8.5300549999999997e-01,	 7.4177420000000005e-01,	 3.7537438492698749e-02,	 5.8256050312396872e+02,	 5.6453846329797585e+01,	 6.2831233748055570e+02,	 6.7853172586856081e+03,	 4.8101403385099246e+02,	 1.2167825464695061e+00 
8.6064589999999996e-01,	 7.4198860000000000e-01,	 3.7267016577112407e-02,	 5.8577858686529805e+02,	 5.3043073060319031e+01,	 6.2660750773735242e+02,	 6.7181571433110239e+03,	 4.8036101145515170e+02,	 1.2244441832973660e+00 
8.6827770000000004e-01,	 7.4219100000000005e-01,	 3.6996366138582121e-02,	 5.8900785996683055e+02,	 4.9659637454487637e+01,	 6.2490539077800099e+02,	 6.6512500845681097e+03,	 4.7970814133901303e+02,	 1.2322025003866595e+00 
8.7590179999999995e-01,	 7.4238230000000005e-01,	 3.6727048736106216e-02,	 5.9224148111477132e+02,	 4.6304429170291776e+01,	 6.2320335127840167e+02,	 6.5848479147558464e+03,	 4.7905441124366160e+02,	 1.2400446928299955e+00 
8.8351860000000004e-01,	 7.4256350000000004e-01,	 3.6460109880884328e-02,	 5.9546627923098538e+02,	 4.2973719131608263e+01,	 6.2150460548349588e+02,	 6.5191693332618252e+03,	 4.7840105549203207e+02,	 1.2479381601618611e+00 
8.9112860000000005e-01,	 7.4273529999999999e-01,	 3.6195682545092499e-02,	 5.9867258855109378e+02,	 3.9668424441476944e+01,	 6.1980691273047353e+02,	 6.4542104722658287e+03,	 4.7774721206920685e+02,	 1.2558636900044613e+00 
8.9873219999999998e-01,	 7.4289819999999995e-01,	 3.5933020815204102e-02,	 6.0185681913712926e+02,	 3.6394422951563399e+01,	 6.1810335467101038e+02,	 6.3897632486678685e+03,	 4.7709020897412921e+02,	 1.2638201190042258e+00 
9.0632970000000002e-01,	 7.4305239999999995e-01,	 3.5671248255570241e-02,	 6.0502076728697443e+02,	 3.3164099616858039e+01,	 6.1638736693034025e+02,	 6.3256036094981719e+03,	 4.7642749622368865e+02,	 1.2718179204396356e+00 
9.1392169999999995e-01,	 7.4319900000000005e-01,	 3.5410798004869681e-02,	 6.0815782029861930e+02,	 2.9976012736239863e+01,	 6.1466337643205611e+02,	 6.2618547385495149e+03,	 4.7576076322118502e+02,	 1.2798367917702398e+00 
9.2150840000000001e-01,	 7.4333839999999995e-01,	 3.5152337178327553e-02,	 6.1126447199995880e+02,	 2.6826339460622506e+01,	 6.1294179578630451e+02,	 6.1987394076174860e+03,	 4.7509402848910963e+02,	 1.2878563210511744e+00 
9.2909030000000004e-01,	 7.4347120000000000e-01,	 3.4895485338890711e-02,	 6.1434681582734424e+02,	 2.3719262727657728e+01,	 6.1122075382962203e+02,	 6.1361684402813917e+03,	 4.7442656582675261e+02,	 1.2958897689900226e+00 
9.3666720000000003e-01,	 7.4359730000000002e-01,	 3.4639801843701135e-02,	 6.1740739716053452e+02,	 2.0661403274038015e+01,	 6.0949362957178187e+02,	 6.0739960783315673e+03,	 4.7375579893612905e+02,	 1.3039481869732301e+00 
9.4423959999999996e-01,	 7.4371739999999997e-01,	 3.4385509003063155e-02,	 6.2043982391231191e+02,	 1.7648773161993290e+01,	 6.0776123874593304e+02,	 6.0122688626841009e+03,	 4.7308203124627823e+02,	 1.3120151411176806e+00 
9.5180739999999997e-01,	 7.4383149999999998e-01,	 3.4133189884655718e-02,	 6.2344074754695532e+02,	 1.4677264356449570e+01,	 6.0602760785850239e+02,	 5.9511270670580989e+03,	 4.7240681927859248e+02,	 1.3200772445710462e+00 
9.5937090000000003e-01,	 7.4393980000000004e-01,	 3.3883121717997372e-02,	 6.2641434983374688e+02,	 1.1744041537670364e+01,	 6.0429538373689468e+02,	 5.8906420060840201e+03,	 4.7173118992901618e+02,	 1.3281386569723468e+00 
9.6692979999999995e-01,	 7.4404199999999998e-01,	 3.3635301942580256e-02,	 6.2936723654227035e+02,	 8.8500944204064584e+00,	 6.0256493377257175e+02,	 5.8308131221057465e+03,	 4.7105528500581488e+02,	 1.3362114342840692e+00 
9.7448460000000003e-01,	 7.4413899999999999e-01,	 3.3389616594177947e-02,	 6.3229848051409567e+02,	 5.9908982743550547e+00,	 6.0083511301995236e+02,	 5.7716059798506640e+03,	 4.7037865514674832e+02,	 1.3442932714398319e+00 
9.8203549999999995e-01,	 7.4423090000000003e-01,	 3.3145659005174348e-02,	 6.3520122726287127e+02,	 3.1660661461530353e+00,	 5.9910214826543222e+02,	 5.7129111859302475e+03,	 4.6969981810972763e+02,	 1.3523725007247838e+00 
9.8958279999999998e-01,	 7.4431829999999999e-01,	 3.2902773327406154e-02,	 6.3807023083235993e+02,	 3.7651400141855618e-01,	 5.9736050418082823e+02,	 5.6545617082754270e+03,	 4.6901659128928264e+02,	 1.3604430072835889e+00 
9.9712650000000003e-01,	 7.4440119999999999e-01,	 3.2660668975313813e-02,	 6.4090652928808049e+02,	 -2.3728459615246504e+00,	 5.9560766339581846e+02,	 5.5964843084471604e+03,	 4.6832796576655858e+02,	 1.3685087559325804e+00 
1.0046670000000000e+00,	 7.4448020000000004e-01,	 3.2419560884287421e-02,	 6.4371672741683824e+02,	 -5.0813212075439509e+00,	 5.9384511693703644e+02,	 5.5387307712998254e+03,	 4.6763450476044056e+02,	 1.3765810174849047e+00 
1.0122040000000001e+00,	 7.4455539999999998e-01,	 3.2179740341623804e-02,	 6.4651354006489964e+02,	 -7.7455413159769684e+00,	 5.9207570646192187e+02,	 5.4813775253489148e+03,	 4.6693730725720110e+02,	 1.3846825387376764e+00 
1.0197390000000000e+00,	 7.4462689999999998e-01,	 3.1941194792470456e-02,	 6.4930793086268193e+02,	 -1.0363052286817519e+01,	 5.9029992461347069e+02,	 5.4244264199669615e+03,	 4.6623655104659719e+02,	 1.3928350792666560e+00 
1.0272699999999999e+00,	 7.4469450000000004e-01,	 3.1703659727373212e-02,	 6.5210400178112172e+02,	 -1.2928448371359234e+01,	 5.8851516525595855e+02,	 5.3678082576072038e+03,	 4.6553118929779311e+02,	 1.4010493007813603e+00 
1.0347980000000001e+00,	 7.4475890000000000e-01,	 3.1467361622324684e-02,	 6.5488801334618995e+02,	 -1.5448378333146298e+01,	 5.8672042512973417e+02,	 5.3115524679809905e+03,	 4.6482080363537580e+02,	 1.4092962092789239e+00 
1.0423240000000000e+00,	 7.4481989999999998e-01,	 3.1233725623079800e-02,	 6.5762959318651178e+02,	 -1.7942574025445527e+01,	 5.8492380648831625e+02,	 5.2559717936758016e+03,	 4.6410858537283337e+02,	 1.4175008572652092e+00 
1.0498470000000000e+00,	 7.4487800000000004e-01,	 3.1004164893084982e-02,	 6.6030184112743746e+02,	 -2.0436308385554316e+01,	 5.8314488475160852e+02,	 5.2014741664825533e+03,	 4.6340230403368304e+02,	 1.4255820720601724e+00 
1.0573669999999999e+00,	 7.4493290000000001e-01,	 3.0777800723544933e-02,	 6.6291759366752638e+02,	 -2.2925054993655010e+01,	 5.8138463917422723e+02,	 5.1479115209721222e+03,	 4.6270237648108565e+02,	 1.4335648717957759e+00 
1.0648839999999999e+00,	 7.4498480000000000e-01,	 3.0551264658366242e-02,	 6.6552614902187918e+02,	 -2.5366720991790800e+01,	 5.7961346957837895e+02,	 5.0944534622557294e+03,	 4.6199703492051344e+02,	 1.4415880474776310e+00 
1.0723990000000001e+00,	 7.4503379999999997e-01,	 3.0321461414056675e-02,	 6.6816984620699532e+02,	 -2.7710642060483117e+01,	 5.7780716936144222e+02,	 5.0403766732301156e+03,	 4.6127659227743226e+02,	 1.4497683703800668e+00 
1.0799110000000001e+00,	 7.4507979999999996e-01,	 3.0087969532557705e-02,	 6.7085152634688461e+02,	 -2.9944731653828221e+01,	 5.7596376514519579e+02,	 4.9856062970917073e+03,	 4.6054018872698128e+02,	 1.4581127341192601e+00 
1.0874200000000001e+00,	 7.4512259999999997e-01,	 2.9853208478624538e-02,	 6.7354111300539307e+02,	 -3.2093307963861029e+01,	 5.7410214026598328e+02,	 4.9307174594025637e+03,	 4.5979530942274334e+02,	 1.4665336220094571e+00 
1.0949270000000000e+00,	 7.4516260000000001e-01,	 2.9620566072597939e-02,	 6.7619637470995917e+02,	 -3.4200596918402468e+01,	 5.7224762187473425e+02,	 4.8764894386680890e+03,	 4.5905207182699638e+02,	 1.4749104973800184e+00 
1.1024320000000001e+00,	 7.4520010000000003e-01,	 2.9392913760562661e-02,	 6.7878125632068350e+02,	 -3.6303901327538135e+01,	 5.7042155893482959e+02,	 4.8235691522975012e+03,	 4.5831906067868340e+02,	 1.4831401513389175e+00 
1.1099340000000000e+00,	 7.4523519999999999e-01,	 2.9172136109801697e-02,	 6.8127382069632301e+02,	 -3.8431730805267911e+01,	 5.6863754318341023e+02,	 4.7723655103423935e+03,	 4.5760179401935233e+02,	 1.4911588325672551e+00 
1.1174340000000000e+00,	 7.4526800000000004e-01,	 2.8958979552927505e-02,	 6.8367105883406100e+02,	 -4.0594838231105165e+01,	 5.6690051148052544e+02,	 4.7230227832947458e+03,	 4.5690233547276239e+02,	 1.4989531897113380e+00 
1.1249330000000000e+00,	 7.4529880000000004e-01,	 2.8752832349811699e-02,	 6.8598418138432191e+02,	 -4.2790059593745191e+01,	 5.6520577809193992e+02,	 4.6753826680854063e+03,	 4.5621887585158112e+02,	 1.5065519931310034e+00 
1.1324289999999999e+00,	 7.4532770000000004e-01,	 2.8552028352165013e-02,	 6.8823443300706515e+02,	 -4.4996731725423501e+01,	 5.6354062921331467e+02,	 4.6290528186809943e+03,	 4.5554634849863049e+02,	 1.5140145645574865e+00 
1.1399239999999999e+00,	 7.4535479999999998e-01,	 2.8354378457465728e-02,	 6.9044328862714804e+02,	 -4.7194025380635210e+01,	 5.6188806549555170e+02,	 4.5835278763965744e+03,	 4.5487792102132471e+02,	 1.5214067532809250e+00 
1.1474169999999999e+00,	 7.4538000000000004e-01,	 2.8157858186364012e-02,	 6.9263239235528101e+02,	 -4.9362880190295726e+01,	 5.6023285694709011e+02,	 4.5383515151368638e+03,	 4.5420743772247113e+02,	 1.5287930497540116e+00 
1.1549080000000000e+00,	 7.4540370000000000e-01,	 2.7997880118022553e-02,	 6.9426498422528198e+02,	 -5.1296265625624727e+01,	 5.5886645552381447e+02,	 4.5015609019799977e+03,	 4.5365319623965837e+02,	 1.5345586483340912e+00 
7.7603380000000000e-01,	 7.4459290000000000e-01,	 4.0138272783599306e-02,	 5.4497484788810732e+02,	 8.9626287712467644e+01,	 6.4848644760806292e+02,	 7.4884084044806159e+03,	 4.8867531970731329e+02,	 1.1301893132682665e+00 
7.8381639999999997e-01,	 7.4499479999999996e-01,	 4.0039826124601129e-02,	 5.4760181558602642e+02,	 8.6838771184915089e+01,	 6.4701990400470049e+02,	 7.4531482738746645e+03,	 4.8812244053222884e+02,	 1.1358718004371371e+00 
7.9157880000000003e-01,	 7.4537039999999999e-01,	 3.9816145231198710e-02,	 5.5173286231532393e+02,	 8.3620086543537695e+01,	 6.4470469911885630e+02,	 7.3849912490063170e+03,	 4.8724834360279533e+02,	 1.1452754674148722e+00 
7.9932190000000003e-01,	 7.4572130000000003e-01,	 3.9585830124745605e-02,	 5.5572581685112766e+02,	 8.0361481207266976e+01,	 6.4247492294073788e+02,	 7.3168790328896239e+03,	 4.8640501503529600e+02,	 1.1544004027793211e+00 
8.0704560000000003e-01,	 7.4604850000000000e-01,	 3.9340611521488815e-02,	 5.5961181529090663e+02,	 7.7040007804918275e+01,	 6.4037636393579419e+02,	 7.2478022884903194e+03,	 4.8560997659274670e+02,	 1.1632583364303068e+00 
8.1475310000000001e-01,	 7.4635450000000003e-01,	 3.9085340927961836e-02,	 5.6336459924326778e+02,	 7.3664334706163586e+01,	 6.3840541045525390e+02,	 7.1786106838018159e+03,	 4.8486209431909094e+02,	 1.1717976895312536e+00 
8.2244439999999996e-01,	 7.4664050000000004e-01,	 3.8827711449507932e-02,	 5.6699661375306982e+02,	 7.0280933747608074e+01,	 6.3651516239139698e+02,	 7.1101781823581186e+03,	 4.8414375057760884e+02,	 1.1800953248844681e+00 
8.3012180000000002e-01,	 7.4690820000000002e-01,	 3.8566758860672463e-02,	 5.7054981837761261e+02,	 6.6904918835934495e+01,	 6.3467102549700792e+02,	 7.0419307819893293e+03,	 4.8344190164486213e+02,	 1.1882693456420474e+00 
8.3778670000000000e-01,	 7.4715909999999996e-01,	 3.8303727450793253e-02,	 5.7403071082359077e+02,	 6.3521891625714048e+01,	 6.3286075471710024e+02,	 6.9739550013726093e+03,	 4.8275194916593614e+02,	 1.1963383361150099e+00 
8.4544169999999996e-01,	 7.4739520000000004e-01,	 3.8038490171677042e-02,	 5.7745847870731404e+02,	 6.0154925150743395e+01,	 6.3106916534059928e+02,	 6.9060571608409264e+03,	 4.8206814452181487e+02,	 1.2043592926467330e+00 
8.5308689999999998e-01,	 7.4761739999999999e-01,	 3.7771690730924297e-02,	 5.8085065660482132e+02,	 5.6795686413952211e+01,	 6.2928151283010027e+02,	 6.8381927104052957e+03,	 4.8138487433995789e+02,	 1.2123787609640204e+00 
8.6072329999999997e-01,	 7.4782700000000002e-01,	 3.7504129690593191e-02,	 5.8422609604094214e+02,	 5.3443840988108334e+01,	 6.2747939890858731e+02,	 6.7703091650914303e+03,	 4.8069509373844284e+02,	 1.2204523805811820e+00 
8.6835130000000005e-01,	 7.4802480000000005e-01,	 3.7237339704355867e-02,	 5.8758817577678121e+02,	 5.0131023116308185e+01,	 6.2567404088022556e+02,	 6.7028070955274761e+03,	 4.8000307750118833e+02,	 1.2285812948793340e+00 
8.7597170000000002e-01,	 7.4821179999999998e-01,	 3.6972342935029920e-02,	 5.9093236878083530e+02,	 4.6840262507602390e+01,	 6.2388522202375771e+02,	 6.6360799358853010e+03,	 4.7931641552018368e+02,	 1.2367318118776283e+00 
8.8358510000000001e-01,	 7.4838890000000002e-01,	 3.6709524261710452e-02,	 5.9425341745982576e+02,	 4.3568315182751931e+01,	 6.2211188386417962e+02,	 6.5701788410624949e+03,	 4.7863472365976884e+02,	 1.2448917221707758e+00 
8.9119170000000003e-01,	 7.4855680000000002e-01,	 3.6448576197865380e-02,	 5.9754800104520041e+02,	 4.0315616252784622e+01,	 6.2034697399473396e+02,	 6.5049681365529686e+03,	 4.7795530637926197e+02,	 1.2530595731993426e+00 
8.9879220000000004e-01,	 7.4871600000000005e-01,	 3.6188113627368387e-02,	 6.0082061860883653e+02,	 3.7097655042639190e+01,	 6.1857728405604860e+02,	 6.4400590600195592e+03,	 4.7727307786043468e+02,	 1.2612587089767113e+00 
9.0638669999999999e-01,	 7.4886680000000005e-01,	 3.5927766200877065e-02,	 6.0406629230869191e+02,	 3.3927201448431170e+01,	 6.1679943747912353e+02,	 6.3753513251219538e+03,	 4.7658672153378257e+02,	 1.2694820697300919e+00 
9.1397569999999995e-01,	 7.4901010000000001e-01,	 3.5669094986388643e-02,	 6.0726984613887339e+02,	 3.0793750698585185e+01,	 6.1502468929794225e+02,	 6.3112382925551892e+03,	 4.7590057408140962e+02,	 1.2776830511458981e+00 
9.2155960000000003e-01,	 7.4914630000000004e-01,	 3.5412195116844632e-02,	 6.1043644149951547e+02,	 2.7698017202560319e+01,	 6.1325465644359747e+02,	 6.2477499603097940e+03,	 4.7521526289401754e+02,	 1.2858688529403108e+00 
9.2913880000000004e-01,	 7.4927610000000000e-01,	 3.5156027282479622e-02,	 6.1357831141570807e+02,	 2.4652160509420352e+01,	 6.1148358177800606e+02,	 6.1846415113320991e+03,	 4.7452855774902508e+02,	 1.2940703676306853e+00 
9.3671309999999997e-01,	 7.4939940000000005e-01,	 3.4900542865921702e-02,	 6.1669290170732813e+02,	 2.1657104088103747e+01,	 6.0971189890386268e+02,	 6.1219078826692275e+03,	 4.7384062107419533e+02,	 1.3022797869816354e+00 
9.4428299999999998e-01,	 7.4951679999999998e-01,	 3.4646401064971633e-02,	 6.1977242721883158e+02,	 1.8705657650288089e+01,	 6.0794419969266755e+02,	 6.0597092269330797e+03,	 4.7315323439119351e+02,	 1.3104732256696661e+00 
9.5184849999999999e-01,	 7.4962830000000003e-01,	 3.4394021910122655e-02,	 6.2281662170533207e+02,	 1.5794026930550753e+01,	 6.0618284484581102e+02,	 5.9981392317856407e+03,	 4.7246732008315763e+02,	 1.3186453827768516e+00 
9.5940970000000003e-01,	 7.4973420000000002e-01,	 3.4143381359298744e-02,	 6.2583293822020721e+02,	 1.2923742032851543e+01,	 6.0442659272335686e+02,	 5.9371774586293532e+03,	 4.7178239999411915e+02,	 1.3268116077557650e+00 
9.6696649999999995e-01,	 7.4983409999999995e-01,	 3.3894583383347006e-02,	 6.2882507532440127e+02,	 1.0092855747405476e+01,	 6.0267503408609491e+02,	 5.8768342047466449e+03,	 4.7109831851371257e+02,	 1.3349783734567626e+00 
9.7451920000000003e-01,	 7.4992890000000001e-01,	 3.3647605198230394e-02,	 6.3179192465374024e+02,	 7.2972557011076642e+00,	 6.0092693988118253e+02,	 5.8170898403613573e+03,	 4.7041459824024281e+02,	 1.3431429798398931e+00 
9.8206810000000000e-01,	 7.5001879999999999e-01,	 3.3401979969714626e-02,	 6.3473083052033951e+02,	 4.5367283582504836e+00,	 5.9917858358436342e+02,	 5.7578245979758321e+03,	 4.6972978003730947e+02,	 1.3513025368738378e+00 
9.8961350000000003e-01,	 7.5010420000000000e-01,	 3.3157058882525223e-02,	 6.3763702999964028e+02,	 1.8128617392370534e+00,	 5.9742633305045138e+02,	 5.6988903280883378e+03,	 4.6904243329027832e+02,	 1.3594497252396560e+00 
9.9715549999999997e-01,	 7.5018530000000005e-01,	 3.2912625705488238e-02,	 6.4050966702720621e+02,	 -8.7312434819585927e-01,	 5.9566898562003325e+02,	 5.6402383456935067e+03,	 4.6835207406394920e+02,	 1.3675828454823242e+00 
1.0046940000000000e+00,	 7.5026260000000000e-01,	 3.2668802144161124e-02,	 6.4335548794031956e+02,	 -3.5187561313142242e+00,	 5.9390694021262539e+02,	 5.5818935302938944e+03,	 4.6765884607741680e+02,	 1.3757146175535093e+00 