TITLE = "Final State"
VARIABLES = "X", "Y", "rho", "u", "v", "T", "p", "c", "M"
ZONE I=51, J=48, DATAPACKING=POINT
1.5295010000000000e+00,	 2.0000000000000001e-01,	 2.0983075166283931e-02,	 1.0545500558266082e+02,	 -5.0956112620258853e-01,	 8.0274645567425227e+02,	 4.8459337285851134e+03,	 5.4369977330214556e+02,	 1.9396042054754772e-01 
1.5369660000000001e+00,	 2.0000000000000001e-01,	 2.0985851465580033e-02,	 1.1153944698348315e+02,	 -5.0309625694521332e-01,	 8.0210490172971163e+02,	 4.8427015242013058e+03,	 5.4348246779286671e+02,	 2.0523308145167599e-01 
1.5444300000000000e+00,	 2.0000000000000001e-01,	 2.0986768271410373e-02,	 1.1807457835125460e+02,	 -4.7815401377876410e-01,	 8.0126454805512105e+02,	 4.8378392367800716e+03,	 5.4319769383457401e+02,	 2.1737122202855683e-01 
1.5518950000000000e+00,	 2.0000000000000001e-01,	 2.0985263505005521e-02,	 1.2444227652779659e+02,	 -4.6102766201844148e-01,	 8.0044601989666239e+02,	 4.8325506418803361e+03,	 5.4292017237322909e+02,	 2.2921073272571155e-01 
1.5593589999999999e+00,	 2.0000000000000001e-01,	 2.0983033210273234e-02,	 1.3066798685154339e+02,	 -4.4343084810429012e-01,	 7.9964194586622693e+02,	 4.8271831046063080e+03,	 5.4264741338192016e+02,	 2.4079860335394768e-01 
1.5668230000000001e+00,	 2.0000000000000001e-01,	 2.0978945362833012e-02,	 1.3674475172609652e+02,	 -4.2743785558974434e-01,	 7.9880885419945162e+02,	 4.8212145595934435e+03,	 5.4236466630478640e+02,	 2.5212818655848762e-01 
1.5742879999999999e+00,	 2.0000000000000001e-01,	 2.0973166504991082e-02,	 1.4266381872862664e+02,	 -4.1340051968880831e-01,	 7.9793752075807822e+02,	 4.8146290199763262e+03,	 5.4206878237045044e+02,	 2.6318508338373708e-01 
1.5817520000000000e+00,	 2.0000000000000001e-01,	 2.0962911008411182e-02,	 1.4843690380584690e+02,	 -4.0540494652192471e-01,	 7.9704886590111755e+02,	 4.8069153728594556e+03,	 5.4176685005250033e+02,	 2.7398770781810250e-01 
1.5892170000000001e+00,	 2.0000000000000001e-01,	 2.0947952635526471e-02,	 1.5404498323913964e+02,	 -4.0299735824825345e-01,	 7.9609728817418204e+02,	 4.7977505652648533e+03,	 5.4144335217651212e+02,	 2.8450900682418195e-01 
1.5966810000000000e+00,	 2.0000000000000001e-01,	 2.0929304764522601e-02,	 1.5950611902912124e+02,	 -3.9837052952592522e-01,	 7.9510811096633893e+02,	 4.7875235499604905e+03,	 5.4110686698510472e+02,	 2.9477840003632155e-01 
1.6041460000000001e+00,	 2.0000000000000001e-01,	 2.0908042003473445e-02,	 1.6486658113152168e+02,	 -3.9165234807259341e-01,	 7.9410433813857389e+02,	 4.7766219489738869e+03,	 5.4076520281814408e+02,	 3.0487732100873199e-01 
1.6116100000000000e+00,	 2.0000000000000001e-01,	 2.0885365394383598e-02,	 1.7013892818057496e+02,	 -3.8103196414688223e-01,	 7.9310530836159796e+02,	 4.7654385300186523e+03,	 5.4042493861447463e+02,	 3.1482513609255952e-01 
1.6190750000000000e+00,	 2.0000000000000001e-01,	 2.0861829620528759e-02,	 1.7534108242602025e+02,	 -3.7130310469969408e-01,	 7.9211184085601144e+02,	 4.7541057402250908e+03,	 5.4008635630515039e+02,	 3.2465451777329402e-01 
1.6265390000000000e+00,	 2.0000000000000001e-01,	 2.0838005859151847e-02,	 1.8046876013325027e+02,	 -3.5963786277111187e-01,	 7.9113072406152764e+02,	 4.7427949002958621e+03,	 5.3975177477894692e+02,	 3.3435576668495426e-01 
1.6340040000000000e+00,	 2.0000000000000001e-01,	 2.0813746567359154e-02,	 1.8553036733741965e+02,	 -3.5035002852939390e-01,	 7.9015675739140386e+02,	 4.7314413190415789e+03,	 5.3941942633084545e+02,	 3.4394515487586425e-01 
1.6414679999999999e+00,	 2.0000000000000001e-01,	 2.0788924581514164e-02,	 1.9051769455221665e+02,	 -3.4041948106516418e-01,	 7.8919156574859824e+02,	 4.7200260593094026e+03,	 5.3908987006972234e+02,	 3.5340674952823670e-01 
1.6489330000000000e+00,	 2.0000000000000001e-01,	 2.0762976517884675e-02,	 1.9543084155336766e+02,	 -3.3339231760034560e-01,	 7.8822644382364081e+02,	 4.7083696432351944e+03,	 5.3876013604749107e+02,	 3.6274236501556900e-01 
1.6563969999999999e+00,	 2.0000000000000001e-01,	 2.0735791625888070e-02,	 2.0026214408712497e+02,	 -3.2516183685088629e-01,	 7.8726160428568323e+02,	 4.6964491920526107e+03,	 5.3843029666277391e+02,	 3.7193748068735621e-01 
1.6638610000000000e+00,	 2.0000000000000001e-01,	 2.0707295550913742e-02,	 2.0501742574623103e+02,	 -3.1827408034247839e-01,	 7.8629304924887197e+02,	 4.6842250923269448e+03,	 5.3809898374865497e+02,	 3.8100364242666918e-01 
1.6713260000000001e+00,	 2.0000000000000001e-01,	 2.0677900680858462e-02,	 2.0969887386813031e+02,	 -3.0857395930976683e-01,	 7.8532782454747326e+02,	 4.6718336179134576e+03,	 5.3776860697355687e+02,	 3.8994299440973068e-01 
1.6787900000000000e+00,	 2.0000000000000001e-01,	 2.0647753758490810e-02,	 2.1431342225963118e+02,	 -3.0047808356270400e-01,	 7.8436691376583076e+02,	 4.6593143893088245e+03,	 5.3743950503452550e+02,	 3.9876791879743451e-01 
1.6862550000000001e+00,	 2.0000000000000001e-01,	 2.0617101432438743e-02,	 2.1886222210305868e+02,	 -2.9118535785783961e-01,	 7.8341572429331859e+02,	 4.6467555815520482e+03,	 5.3711353394402533e+02,	 4.0747886987639620e-01 
1.6937190000000000e+00,	 2.0000000000000001e-01,	 2.0585697044373040e-02,	 2.2334886329995467e+02,	 -2.8554748467937952e-01,	 7.8246906349760638e+02,	 4.6340710737637837e+03,	 5.3678891828559324e+02,	 4.1608356325027251e-01 
1.7011840000000000e+00,	 2.0000000000000001e-01,	 2.0553370815275938e-02,	 2.2776904135749081e+02,	 -2.7955229931916104e-01,	 7.8152607414389308e+02,	 4.6212181156338029e+03,	 5.3646536630265689e+02,	 4.2457393751521821e-01 
1.7086479999999999e+00,	 2.0000000000000001e-01,	 2.0519633302281896e-02,	 2.3212016040596251e+02,	 -2.7656550331828100e-01,	 7.8057834353301087e+02,	 4.6080377777435597e+03,	 5.3613999079882956e+02,	 4.3294723234611743e-01 
1.7161130000000000e+00,	 2.0000000000000001e-01,	 2.0484339579692964e-02,	 2.3639697662890831e+02,	 -2.7248197198418866e-01,	 7.7962451893595596e+02,	 4.5944908747644677e+03,	 5.3581232360744048e+02,	 4.4119390923088475e-01 
1.7235769999999999e+00,	 2.0000000000000001e-01,	 2.0447158688345415e-02,	 2.4059870311106664e+02,	 -2.7032704002945396e-01,	 7.7865799134595954e+02,	 4.5804658554972029e+03,	 5.3548008803219739e+02,	 4.4931428890191466e-01 
1.7310420000000000e+00,	 2.0000000000000001e-01,	 2.0408143237439936e-02,	 2.4472230229663529e+02,	 -2.6618909939939983e-01,	 7.7768018071765846e+02,	 4.5659848092223401e+03,	 5.3514376412019465e+02,	 4.5730224936545927e-01 
1.7385060000000001e+00,	 2.0000000000000001e-01,	 2.0367184592164092e-02,	 2.4876916900370878e+02,	 -2.6348720371375367e-01,	 7.7668780610909255e+02,	 4.5510061650894058e+03,	 5.3480221458398432e+02,	 4.6516132835236651e-01 
1.7459709999999999e+00,	 2.0000000000000001e-01,	 2.0324632664067740e-02,	 2.5274281950186565e+02,	 -2.5850876614168905e-01,	 7.7568634517974363e+02,	 4.5356422172661514e+03,	 5.3445731649539107e+02,	 4.7289642017116579e-01 
1.7534350000000001e+00,	 2.0000000000000001e-01,	 2.0280804187296733e-02,	 2.5665626642175556e+02,	 -2.5423373810846384e-01,	 7.7467820875068014e+02,	 4.5199793331659585e+03,	 5.3410989445087819e+02,	 4.8053105738217511e-01 
1.7608990000000000e+00,	 2.0000000000000001e-01,	 2.0236343625453755e-02,	 2.6051670998136876e+02,	 -2.4686399629966249e-01,	 7.7367520777917002e+02,	 4.5042310811478446e+03,	 5.3376401776912860e+02,	 4.8807491376724904e-01 
1.7683640000000000e+00,	 2.0000000000000001e-01,	 2.0191539685615753e-02,	 2.6433720870204729e+02,	 -2.4126491682912088e-01,	 7.7267927868119193e+02,	 4.4884732378208419e+03,	 5.3342035786057590e+02,	 4.9555161311324475e-01 
1.7758280000000000e+00,	 2.0000000000000001e-01,	 2.0146606682349657e-02,	 2.6811621701137062e+02,	 -2.3416338504461642e-01,	 7.7169587522822815e+02,	 4.4727850152210576e+03,	 5.3308080272477594e+02,	 5.0295624583738319e-01 
1.7832930000000000e+00,	 2.0000000000000001e-01,	 2.0101318492893108e-02,	 2.7185594104414452e+02,	 -2.2965503472872584e-01,	 7.7071897880262304e+02,	 4.4570810925994610e+03,	 5.3274328009312990e+02,	 5.1029463571862621e-01 
1.7907569999999999e+00,	 2.0000000000000001e-01,	 2.0055684946010732e-02,	 2.7555135038780247e+02,	 -2.2369101624077237e-01,	 7.6975005087308682e+02,	 4.4413721241928779e+03,	 5.3240829925397873e+02,	 5.1755662255724033e-01 
1.7982220000000000e+00,	 2.0000000000000001e-01,	 2.0009535022370614e-02,	 2.7920476004341515e+02,	 -2.1893918884511548e-01,	 7.6878502008918690e+02,	 4.4255968224870967e+03,	 5.3207445612349170e+02,	 5.2474769775357677e-01 
1.8056859999999999e+00,	 2.0000000000000001e-01,	 1.9963071486272549e-02,	 2.8281338778908798e+02,	 -2.1270385074393222e-01,	 7.6782865852014629e+02,	 4.4098276597090171e+03,	 5.3174340524461468e+02,	 5.3186079034910050e-01 
1.8131510000000000e+00,	 2.0000000000000001e-01,	 1.9916185130592227e-02,	 2.8638215337890847e+02,	 -2.0863900262711133e-01,	 7.6687695325913273e+02,	 4.3940174600958890e+03,	 5.3141376144897913e+02,	 5.3890631021351321e-01 
1.8206150000000001e+00,	 2.0000000000000001e-01,	 1.9868972835373068e-02,	 2.8990758873755442e+02,	 -2.0325382140218257e-01,	 7.6593313585941792e+02,	 4.3782062024506304e+03,	 5.3108664771338294e+02,	 5.4587638615327028e-01 
1.8280799999999999e+00,	 2.0000000000000001e-01,	 1.9821352549946714e-02,	 2.9339440002223148e+02,	 -1.9950515987966655e-01,	 7.6499365838556866e+02,	 4.3623555407664408e+03,	 5.3076083791924896e+02,	 5.5278092672237567e-01 
1.8355440000000001e+00,	 2.0000000000000001e-01,	 1.9773585888377625e-02,	 2.9684277079684932e+02,	 -1.9405206239056272e-01,	 7.6406429771527939e+02,	 4.3465559971840703e+03,	 5.3043833972152152e+02,	 5.5961798383680805e-01 
1.8430089999999999e+00,	 2.0000000000000001e-01,	 1.9725661434971321e-02,	 3.0026090049788627e+02,	 -1.9055735776916533e-01,	 7.6314314432774449e+02,	 4.3307939292752935e+03,	 5.3011849593874501e+02,	 5.6640348010073227e-01 
1.8504730000000000e+00,	 2.0000000000000001e-01,	 1.9677728349865017e-02,	 3.0364926388711376e+02,	 -1.8639762073121041e-01,	 7.6223374530160459e+02,	 4.3151219126896158e+03,	 5.2980254410618329e+02,	 5.7313677421132592e-01 
1.8579369999999999e+00,	 2.0000000000000001e-01,	 1.9629377229401626e-02,	 3.0700882996050694e+02,	 -1.8599023777766110e-01,	 7.6132799102395734e+02,	 4.2994039987174983e+03,	 5.2948767116547776e+02,	 5.7982253981943255e-01 
1.8654020000000000e+00,	 2.0000000000000001e-01,	 1.9580131269733278e-02,	 3.1032464204439111e+02,	 -1.8421648891431192e-01,	 7.6042030712627263e+02,	 4.2835046510663260e+03,	 5.2917193946124860e+02,	 5.8643452832758336e-01 
1.8728659999999999e+00,	 2.0000000000000001e-01,	 1.9529320504243136e-02,	 3.1358753210881594e+02,	 -1.8288323258763539e-01,	 7.5949855019946699e+02,	 4.2672100336668245e+03,	 5.2885111964628902e+02,	 5.9296004827786353e-01 
1.8803310000000000e+00,	 2.0000000000000001e-01,	 1.9476938250498024e-02,	 3.1679067777871319e+02,	 -1.8123767885385061e-01,	 7.5856318883852964e+02,	 4.2505231759442722e+03,	 5.2852536570071675e+02,	 5.9938604687826591e-01 
1.8877949999999999e+00,	 2.0000000000000001e-01,	 1.9422594731272440e-02,	 3.1994103247305992e+02,	 -1.7777457269134189e-01,	 7.5760635223265569e+02,	 4.2333170253708913e+03,	 5.2819192479622302e+02,	 6.0572883992220528e-01 
1.8952599999999999e+00,	 2.0000000000000001e-01,	 1.9366001727354549e-02,	 3.2306468345827170e+02,	 -1.7618794875320154e-01,	 7.5662216083366957e+02,	 4.2154987124591953e+03,	 5.2784873146982738e+02,	 6.1204036732641975e-01 
1.9027240000000001e+00,	 2.0000000000000001e-01,	 1.9328945447827033e-02,	 3.2567211175918732e+02,	 -2.1077551648989090e-01,	 7.5570164858092619e+02,	 4.2023136843836937e+03,	 5.2752754136677765e+02,	 6.1735578605530128e-01 
1.5295010000000000e+00,	 2.0634110000000000e-01,	 2.1190581350112227e-02,	 1.5554110161334700e+02,	 -5.6313817292853203e+00,	 7.9489981962600621e+02,	 4.8460200579290295e+03,	 5.4103598652532230e+02,	 2.8767589307334396e-01 
1.5369649999999999e+00,	 2.0633779999999999e-01,	 2.1204209384215248e-02,	 1.6103209755657005e+02,	 -5.5191282667283730e+00,	 7.9403668327176968e+02,	 4.8438712175811306e+03,	 5.4074216669097439e+02,	 2.9797315532806068e-01 
1.5444300000000000e+00,	 2.0633440000000000e-01,	 2.1210136879207874e-02,	 1.6698859326362910e+02,	 -5.3003743344105310e+00,	 7.9303616022498863e+02,	 4.8391200808242183e+03,	 5.4040137920083123e+02,	 3.0916407311291538e-01 
1.5518940000000001e+00,	 2.0633099999999999e-01,	 2.1214578076346614e-02,	 1.7279747398815769e+02,	 -5.1136032548836070e+00,	 7.9204690777943802e+02,	 4.8340956465305289e+03,	 5.4006421916134536e+02,	 3.2009734183357824e-01 
1.5593589999999999e+00,	 2.0632760000000000e-01,	 2.1217051303770076e-02,	 1.7848983129220852e+02,	 -4.9407317002789970e+00,	 7.9106360960854374e+02,	 4.8286571545696243e+03,	 5.3972887975520462e+02,	 3.3082943393573994e-01 
1.5668230000000001e+00,	 2.0632420000000001e-01,	 2.1216450366834241e-02,	 1.8405344901284400e+02,	 -4.7935475427135632e+00,	 7.9006751258020211e+02,	 4.8224403808614697e+03,	 5.3938896291722517e+02,	 3.4134154281990253e-01 
1.5742879999999999e+00,	 2.0632090000000000e-01,	 2.1212612486109839e-02,	 1.8947775498685951e+02,	 -4.6745193990655514e+00,	 7.8905137793881079e+02,	 4.8153668467084399e+03,	 5.3904198740860727e+02,	 3.5161529549224563e-01 
1.5817520000000000e+00,	 2.0631749999999999e-01,	 2.1205681914820453e-02,	 1.9477533994974317e+02,	 -4.5878309977195730e+00,	 7.8800592428373420e+02,	 4.8074155371190800e+03,	 5.3868476719315618e+02,	 3.6167602334345617e-01 
1.5892170000000001e+00,	 2.0631410000000000e-01,	 2.1194724120367367e-02,	 1.9993237748899469e+02,	 -4.5181663383233115e+00,	 7.8691706196216501e+02,	 4.7982919317799488e+03,	 5.3831246268860843e+02,	 3.7150063701447306e-01 
1.5966810000000000e+00,	 2.0631070000000001e-01,	 2.1180572925257074e-02,	 2.0495661771098185e+02,	 -4.4408400429427770e+00,	 7.8580180385321933e+02,	 4.7882923922721475e+03,	 5.3793086580048021e+02,	 3.8109864190237291e-01 
1.6041460000000001e+00,	 2.0630730000000000e-01,	 2.1163364694989292e-02,	 2.0988490892841077e+02,	 -4.3455656052600018e+00,	 7.8468215498686448e+02,	 4.7775850771410505e+03,	 5.3754749407845156e+02,	 3.9053273029583052e-01 
1.6116100000000000e+00,	 2.0630399999999999e-01,	 2.1144309864208580e-02,	 2.1473156142184885e+02,	 -4.2374500305538039e+00,	 7.8356836248349941e+02,	 4.7665082014438940e+03,	 5.3716585612892243e+02,	 3.9982691603246978e-01 
1.6190750000000000e+00,	 2.0630060000000000e-01,	 2.1124203827517139e-02,	 2.1951479620316763e+02,	 -4.1236288070289406e+00,	 7.8245927827987043e+02,	 4.7552355171333384e+03,	 5.3678556185074467e+02,	 4.0901533122591377e-01 
1.6265390000000000e+00,	 2.0629719999999999e-01,	 2.1103727919636432e-02,	 2.2423567453091147e+02,	 -4.0092546028557212e+00,	 7.8135799649660385e+02,	 4.7439398920933018e+03,	 5.3640767617044298e+02,	 4.1809900129616295e-01 
1.6340040000000000e+00,	 2.0629380000000000e-01,	 2.1082705230670892e-02,	 2.2890186689480896e+02,	 -3.9008532139217764e+00,	 7.8025990786791442e+02,	 4.7325538709631346e+03,	 5.3603062092495327e+02,	 4.2709332998510041e-01 
1.6414679999999999e+00,	 2.0629049999999999e-01,	 2.1061067987734251e-02,	 2.3350697418185723e+02,	 -3.7994369555280407e+00,	 7.7916798561568294e+02,	 4.7210807371368637e+03,	 5.3565541987087613e+02,	 4.3598528859801228e-01 
1.6489320000000001e+00,	 2.0628710000000000e-01,	 2.1038307425440196e-02,	 2.3804841520177845e+02,	 -3.7074965115970180e+00,	 7.7808026336394460e+02,	 4.7093951662767822e+03,	 5.3528140052213269e+02,	 4.4477032923333726e-01 
1.6563969999999999e+00,	 2.0628369999999999e-01,	 2.1014256366999447e-02,	 2.4252044859078214e+02,	 -3.6182769205623244e+00,	 7.7699974182142341e+02,	 4.6974789015414217e+03,	 5.3490959824684865e+02,	 4.5343631760129044e-01 
1.6638610000000000e+00,	 2.0628030000000000e-01,	 2.0988781863285726e-02,	 2.4692363239478286e+02,	 -3.5300065845546995e+00,	 7.7592457350040604e+02,	 4.6852921631052031e+03,	 5.3453938129866879e+02,	 4.6198441524576522e-01 
1.6713260000000001e+00,	 2.0627699999999999e-01,	 2.0962157898248006e-02,	 2.5125975631072058e+02,	 -3.4369236152321738e+00,	 7.7485601870980702e+02,	 4.6729048313498915e+03,	 5.3417118739063949e+02,	 4.7041710144847843e-01 
1.6787900000000000e+00,	 2.0627360000000000e-01,	 2.0934557144369530e-02,	 2.5553284191841323e+02,	 -3.3469730945363771e+00,	 7.7379297836654496e+02,	 4.6603496344750138e+03,	 5.3380464160533575e+02,	 4.7874210977705772e-01 
1.6862550000000001e+00,	 2.0627019999999999e-01,	 2.0906203484614954e-02,	 2.5974826723994670e+02,	 -3.2618110210892839e+00,	 7.7273691854646188e+02,	 4.6476859267623640e+03,	 5.3344025337546225e+02,	 4.8696877489826684e-01 
1.6937190000000000e+00,	 2.0626680000000000e-01,	 2.0877036783186177e-02,	 2.6390804688589049e+02,	 -3.1903588199447412e+00,	 7.7168611933353088e+02,	 4.6348905427795753e+03,	 5.3307743307049861e+02,	 4.9510130006926861e-01 
1.7011840000000000e+00,	 2.0626349999999999e-01,	 2.0846934900843394e-02,	 2.6801159427205653e+02,	 -3.1294078919759132e+00,	 7.7063979141347068e+02,	 4.6219322742598633e+03,	 5.3271591108168241e+02,	 5.0313846117079741e-01 
1.7086479999999999e+00,	 2.0626010000000000e-01,	 2.0815543725911437e-02,	 2.7205395610909301e+02,	 -3.0806688318181701e+00,	 7.6959379900858062e+02,	 4.6087086792302061e+03,	 5.3235425962679506e+02,	 5.1107207837571578e-01 
1.7161130000000000e+00,	 2.0625679999999999e-01,	 2.0782605647641506e-02,	 2.7603128460178965e+02,	 -3.0363123910421796e+00,	 7.6854530524557345e+02,	 4.5951469914767404e+03,	 5.3199149659267493e+02,	 5.1889548124039586e-01 
1.7235769999999999e+00,	 2.0625340000000000e-01,	 2.0747821237216198e-02,	 2.7993925121652381e+02,	 -2.9958101326317008e+00,	 7.6748932064237704e+02,	 4.5811527848759733e+03,	 5.3162589164489282e+02,	 5.2660204328601579e-01 
1.7310420000000000e+00,	 2.0625009999999999e-01,	 2.0711143269615526e-02,	 2.8377477999434421e+02,	 -2.9515492294411745e+00,	 7.6642451163709495e+02,	 4.5667096081744858e+03,	 5.3125697672857473e+02,	 5.3418616899643590e-01 
1.7385060000000001e+00,	 2.0624670000000001e-01,	 2.0672552145415905e-02,	 2.8753729138111896e+02,	 -2.9060397323419593e+00,	 7.6534877876920802e+02,	 4.5518026791577277e+03,	 5.3088401679870049e+02,	 5.4164745419955529e-01 
1.7459709999999999e+00,	 2.0624339999999999e-01,	 2.0632320969621878e-02,	 2.9123308146669694e+02,	 -2.8529456214778239e+00,	 7.6426478057851546e+02,	 4.5365099669114188e+03,	 5.3050792602627507e+02,	 5.4899661381079445e-01 
1.7534350000000001e+00,	 2.0624020000000001e-01,	 2.0590740184959818e-02,	 2.9487019373453842e+02,	 -2.7931189172518422e+00,	 7.6317658897092792e+02,	 4.5209211835879460e+03,	 5.3013011199651089e+02,	 5.5624725985108259e-01 
1.7608990000000000e+00,	 2.0623690000000000e-01,	 2.0548347512540418e-02,	 2.9845784209520451e+02,	 -2.7249576021702930e+00,	 7.6209289496000440e+02,	 4.5052070187690315e+03,	 5.2975359172286437e+02,	 5.6341341729831962e-01 
1.7683640000000000e+00,	 2.0623359999999999e-01,	 2.0505465038584591e-02,	 3.0200727252309321e+02,	 -2.6562363053514471e+00,	 7.6101705324555724e+02,	 4.4894583747231754e+03,	 5.2937953476719315e+02,	 5.7051497767341341e-01 
1.7758280000000000e+00,	 2.0623020000000000e-01,	 2.0462319152089098e-02,	 3.0552087258942186e+02,	 -2.5885215690243104e+00,	 7.5995289328381318e+02,	 4.4737474551153209e+03,	 5.2900927921408265e+02,	 5.7755478023750972e-01 
1.7832930000000000e+00,	 2.0622679999999999e-01,	 2.0418832857393102e-02,	 3.0900039404363270e+02,	 -2.5266413889293897e+00,	 7.5889749348308283e+02,	 4.4580400938623861e+03,	 5.2864181547339990e+02,	 5.8453704337291335e-01 
1.7907569999999999e+00,	 2.0622350000000000e-01,	 2.0374979543757919e-02,	 3.1244340609857807e+02,	 -2.4662087859989357e+00,	 7.5785047137707284e+02,	 4.4423282284267407e+03,	 5.2827701606758160e+02,	 5.9145700021699499e-01 
1.7982220000000000e+00,	 2.0622009999999999e-01,	 2.0330579889787266e-02,	 3.1584787869343205e+02,	 -2.4077040997487513e+00,	 7.5680944679445497e+02,	 4.4265589082134011e+03,	 5.2791405637378841e+02,	 5.9831150865272831e-01 
1.8056859999999999e+00,	 2.0621670000000000e-01,	 2.0285738545548968e-02,	 3.1921427812196123e+02,	 -2.3494466473800979e+00,	 7.5577561387779701e+02,	 4.4107621175821469e+03,	 5.2755335696250393e+02,	 6.0510073505229878e-01 
1.8131510000000000e+00,	 2.0621329999999999e-01,	 2.0240394115548885e-02,	 3.2254492505343245e+02,	 -2.2947669748092632e+00,	 7.5474732229500148e+02,	 4.3949150311931280e+03,	 5.2719434609126654e+02,	 6.1182956622451423e-01 
1.8206150000000001e+00,	 2.0620990000000000e-01,	 2.0194639131769450e-02,	 3.2583918986176798e+02,	 -2.2412423494884397e+00,	 7.5372648123575277e+02,	 4.3790490355867069e+03,	 5.2683769445256144e+02,	 6.1849579338796401e-01 
1.8280799999999999e+00,	 2.0620649999999999e-01,	 2.0148452241428447e-02,	 3.2909861788901475e+02,	 -2.1903812644759677e+00,	 7.5271216744470803e+02,	 4.3631542225868716e+03,	 5.2648308395648780e+02,	 6.2510252863970173e-01 
1.8355440000000001e+00,	 2.0620310000000000e-01,	 2.0102045498333453e-02,	 3.3232560216249612e+02,	 -2.1407894988627896e+00,	 7.5170748478434439e+02,	 4.3472945192851885e+03,	 5.2613160495183138e+02,	 6.3165279234038707e-01 
1.8430089999999999e+00,	 2.0619960000000001e-01,	 2.0055457616156114e-02,	 3.3552621189475735e+02,	 -2.0971786754479140e+00,	 7.5071222052727683e+02,	 4.3314768643545867e+03,	 5.2578318922376343e+02,	 6.3815803325041864e-01 
1.8504730000000000e+00,	 2.0619620000000000e-01,	 2.0008761356004261e-02,	 3.3870315719631162e+02,	 -2.0596443211082947e+00,	 7.4972764337655076e+02,	 4.3157240317767883e+03,	 5.2543828744442692e+02,	 6.4462264656281099e-01 
1.8579369999999999e+00,	 2.0619280000000001e-01,	 1.9961653368849187e-02,	 3.4185418243334738e+02,	 -2.0340412776806112e+00,	 7.4874903211481342e+02,	 4.2999432248715275e+03,	 5.2509525105352429e+02,	 6.5104423053370741e-01 
1.8654020000000000e+00,	 2.0618939999999999e-01,	 1.9913642612009903e-02,	 3.4496876948035577e+02,	 -2.0170030049476417e+00,	 7.4777056481642865e+02,	 4.2839955566947274e+03,	 5.2475204092938236e+02,	 6.5740509639818412e-01 
1.8728659999999999e+00,	 2.0618590000000001e-01,	 1.9864093510143309e-02,	 3.4803579766487064e+02,	 -2.0037481692816512e+00,	 7.4678235045800318e+02,	 4.2676887071568490e+03,	 5.2440518390727402e+02,	 6.6368826318294616e-01 
1.8803310000000000e+00,	 2.0618249999999999e-01,	 1.9812857157723573e-02,	 3.5104847914412613e+02,	 -1.9952652614181594e+00,	 7.4578198232658633e+02,	 4.2509787380612888e+03,	 5.2405382715952157e+02,	 6.6988185407789025e-01 
1.8877949999999999e+00,	 2.0617910000000000e-01,	 1.9759722699664636e-02,	 3.5400754612524582e+02,	 -1.9927354961711645e+00,	 7.4476549257089459e+02,	 4.2337999084942603e+03,	 5.2369656659468330e+02,	 6.7598906942024461e-01 
1.8952599999999999e+00,	 2.0617559999999999e-01,	 1.9704616548570017e-02,	 3.5692399153342114e+02,	 -2.0143667440924835e+00,	 7.4373048483241269e+02,	 4.2161252930451028e+03,	 5.2333254701302508e+02,	 6.8203225224865704e-01 
1.9027240000000001e+00,	 2.0617220000000000e-01,	 1.9670296294432454e-02,	 3.5924980749920655e+02,	 -2.0890912834471460e+00,	 7.4281891482561355e+02,	 4.2036233245462226e+03,	 5.2301173152213607e+02,	 6.8689832365941350e-01 
1.5294950000000000e+00,	 2.1244020000000000e-01,	 2.1706291018347708e-02,	 2.4806046442002554e+02,	 -1.0030720778235072e+01,	 7.7573255426021331e+02,	 4.8442614692065308e+03,	 5.3447323556725667e+02,	 4.6450068809117201e-01 
1.5369600000000001e+00,	 2.1243460000000000e-01,	 2.1735545159245653e-02,	 2.5253242996828749e+02,	 -9.8320720787081477e+00,	 7.7460952687236363e+02,	 4.8437677231146554e+03,	 5.3408621721077986e+02,	 4.7318906535222094e-01 
1.5444240000000000e+00,	 2.1242900000000001e-01,	 2.1748923626727083e-02,	 2.5749108305284767e+02,	 -9.4895594901568447e+00,	 7.7340652918332512e+02,	 4.8392219320895683e+03,	 5.3367132808596898e+02,	 4.8281755822128547e-01 
1.5518890000000001e+00,	 2.1242340000000001e-01,	 2.1762310500327668e-02,	 2.6231186951254830e+02,	 -9.1872907554755407e+00,	 7.7221512772326662e+02,	 4.8347413506458988e+03,	 5.3326012012045101e+02,	 4.9220389737105991e-01 
1.5593530000000000e+00,	 2.1241779999999999e-01,	 2.1771331409503339e-02,	 2.6704322156535130e+02,	 -8.9100446409197129e+00,	 7.7101576978590435e+02,	 4.8292333056359103e+03,	 5.3284584548175224e+02,	 5.0144300976613110e-01 
1.5668180000000000e+00,	 2.1241220000000000e-01,	 2.1775668475969321e-02,	 2.7166073914902620e+02,	 -8.6657200565672028e+00,	 7.6980717184735056e+02,	 4.8226238134604491e+03,	 5.3242805314457917e+02,	 5.1048947652033505e-01 
1.5742820000000000e+00,	 2.1240660000000000e-01,	 2.1774927261152599e-02,	 2.7616531644344769e+02,	 -8.4579501250371081e+00,	 7.6859675199781236e+02,	 4.8148769784724245e+03,	 5.3200930216413565e+02,	 5.1934205521352084e-01 
1.5817470000000000e+00,	 2.1240100000000001e-01,	 2.1771929168433637e-02,	 2.8057115382458443e+02,	 -8.2972547228554951e+00,	 7.6737177177398848e+02,	 4.8065412033007187e+03,	 5.3158517810445971e+02,	 5.2803167734392897e-01 
1.5892109999999999e+00,	 2.1239540000000001e-01,	 2.1766194206696992e-02,	 2.8486539218010864e+02,	 -8.1399736679848420e+00,	 7.6613633013448180e+02,	 4.7975387839411196e+03,	 5.3115708898636694e+02,	 5.3652991449803988e-01 
1.5966760000000000e+00,	 2.1238979999999999e-01,	 2.1757758357856163e-02,	 2.8906812917724096e+02,	 -7.9855407396807454e+00,	 7.6488782178081192e+02,	 4.7878643003874904e+03,	 5.3072412136124058e+02,	 5.4487519456660416e-01 
1.6041399999999999e+00,	 2.1238420000000000e-01,	 2.1746150953536766e-02,	 2.9317556769912159e+02,	 -7.7912427732689107e+00,	 7.6364404948823039e+02,	 4.7775287350603548e+03,	 5.3029244464908936e+02,	 5.5305158480073480e-01 
1.6116050000000000e+00,	 2.1237860000000000e-01,	 2.1732166208878644e-02,	 2.9722433633929563e+02,	 -7.6049962852452646e+00,	 7.6240769274323463e+02,	 4.7667264000719815e+03,	 5.2986299310920219e+02,	 5.6112923104213730e-01 
1.6190690000000001e+00,	 2.1237300000000001e-01,	 2.1716585339593406e-02,	 3.0121088516755469e+02,	 -7.3933812443837175e+00,	 7.6118205982020140e+02,	 4.7556514872854168e+03,	 5.2943692268571010e+02,	 5.6909821704939356e-01 
1.6265339999999999e+00,	 2.1236740000000001e-01,	 2.1700155003307367e-02,	 3.0515646662504219e+02,	 -7.2008077581855154e+00,	 7.5996407046565230e+02,	 4.7444495583022399e+03,	 5.2901316946255713e+02,	 5.7700154081833610e-01 
1.6339980000000001e+00,	 2.1236179999999999e-01,	 2.1682560789057111e-02,	 3.0905380981596778e+02,	 -7.0038623733837468e+00,	 7.5875097734799738e+02,	 4.7330356277630799e+03,	 5.2859078203666809e+02,	 5.8482510830936651e-01 
1.6414629999999999e+00,	 2.1235619999999999e-01,	 2.1664181226966284e-02,	 3.1290728816231433e+02,	 -6.8252435742975059e+00,	 7.5754220413130213e+02,	 4.7214897446826053e+03,	 5.2816956276990027e+02,	 5.9257810119365917e-01 
1.6489270000000000e+00,	 2.1235060000000000e-01,	 2.1644653217939000e-02,	 3.1671379227642097e+02,	 -6.6518873396881499e+00,	 7.5633887276860878e+02,	 4.7097406383253456e+03,	 5.2774990589156107e+02,	 6.0025333075835663e-01 
1.6563920000000001e+00,	 2.1234500000000001e-01,	 2.1624066981351886e-02,	 3.2047073429726532e+02,	 -6.4872344524835270e+00,	 7.5514525534705001e+02,	 4.6978355868847648e+03,	 5.2733330677657477e+02,	 6.0784400196952082e-01 
1.6638560000000000e+00,	 2.1233949999999999e-01,	 2.1602128080773927e-02,	 3.2417695811047349e+02,	 -6.3234643348219643e+00,	 7.5396046184930674e+02,	 4.6857061105447019e+03,	 5.2691946167504193e+02,	 6.1534759910160397e-01 
1.6713210000000001e+00,	 2.1233389999999999e-01,	 2.1578854326087901e-02,	 3.2782980881300864e+02,	 -6.1595143896610693e+00,	 7.5278274301635042e+02,	 4.6733464229614528e+03,	 5.2650776535216994e+02,	 6.2275941608421792e-01 
1.6787850000000000e+00,	 2.1232830000000000e-01,	 2.1554158987762667e-02,	 3.3143157994083299e+02,	 -6.0011940658377076e+00,	 7.5161150355609084e+02,	 4.6607352935976169e+03,	 5.2609801451222165e+02,	 6.3008393458038958e-01 
1.6862500000000000e+00,	 2.1232270000000000e-01,	 2.1528079674802744e-02,	 3.3498398449514940e+02,	 -5.8503013380069575e+00,	 7.5044846514327276e+02,	 4.6478928042942816e+03,	 5.2569081672327218e+02,	 6.3732341521866642e-01 
1.6937139999999999e+00,	 2.1231710000000001e-01,	 2.1500810974355328e-02,	 3.3849032863307991e+02,	 -5.7169447349619773e+00,	 7.4929424537499881e+02,	 4.6348659264584030e+03,	 5.2528639440329539e+02,	 6.4448386074873643e-01 
1.7011790000000000e+00,	 2.1231149999999999e-01,	 2.1472500712900883e-02,	 3.4195482132440338e+02,	 -5.6002112415353418e+00,	 7.4814784734006389e+02,	 4.6216812967780561e+03,	 5.2488440426217528e+02,	 6.5157332346495034e-01 
1.7086429999999999e+00,	 2.1230599999999999e-01,	 2.1443123148105356e-02,	 3.4537209822941639e+02,	 -5.5013767736007360e+00,	 7.4700910989414137e+02,	 4.6083332283093241e+03,	 5.2448479532156580e+02,	 6.5858136175892945e-01 
1.7161080000000000e+00,	 2.1230040000000000e-01,	 2.1412411425163820e-02,	 3.4874052609833268e+02,	 -5.4146856468898150e+00,	 7.4587368562145116e+02,	 4.5947385319648120e+03,	 5.2408604568085150e+02,	 6.6550628800954181e-01 
1.7235720000000001e+00,	 2.1229490000000001e-01,	 2.1380031706276094e-02,	 3.5205545595509312e+02,	 -5.3336376667920993e+00,	 7.4473665544429548e+02,	 4.5807966434491073e+03,	 5.2368642779896220e+02,	 6.7234099879838016e-01 
1.7310369999999999e+00,	 2.1228929999999999e-01,	 2.1345824800643731e-02,	 3.5531004910109169e+02,	 -5.2485181660503279e+00,	 7.4359534902018959e+02,	 4.5664587903996071e+03,	 5.2328500009714810e+02,	 6.7907318492927737e-01 
1.7385010000000001e+00,	 2.1228379999999999e-01,	 2.1309774642633089e-02,	 3.5850359895083534e+02,	 -5.1609838437682045e+00,	 7.4244860415490336e+02,	 4.5517163422863805e+03,	 5.2288134916028264e+02,	 6.8570192094126725e-01 
1.7459659999999999e+00,	 2.1227840000000001e-01,	 2.1271972038805188e-02,	 3.6164208067715617e+02,	 -5.0628661498037992e+00,	 7.4129715837262461e+02,	 4.5365951721165966e+03,	 5.2247572974383593e+02,	 6.9223793097610109e-01 