TITLE = "Final State"
VARIABLES = "X", "Y", "rho", "u", "v", "T", "p", "c", "M"
ZONE I=51, J=46, DATAPACKING=POINT
4.1223810000000000e-01,	 6.8663989999999997e-01,	 1.1586408011659385e-02,	 9.9999999568196972e+02,	 8.8217468050479429e-06,	 3.0000000386322870e+02,	 1.0000000362787451e+03,	 3.3237670925495155e+02,	 3.0086343833283271e+00 
4.1890719999999998e-01,	 6.8746609999999997e-01,	 1.1586408358902367e-02,	 9.9999999102016295e+02,	 2.0411637658949587e-05,	 3.0000000871991983e+02,	 1.0000000824375737e+03,	 3.3237671194536983e+02,	 3.0086343449493098e+00 
4.2557250000000002e-01,	 6.8831850000000006e-01,	 1.1586408735217948e-02,	 9.9999998644285574e+02,	 3.2607983014620707e-05,	 3.0000001387354132e+02,	 1.0000001320953700e+03,	 3.3237671480027603e+02,	 3.0086343053355971e+00 
4.3223590000000001e-01,	 6.8919790000000003e-01,	 1.1586408965375283e-02,	 9.9999998422030626e+02,	 3.9108762516275963e-05,	 3.0000001663701448e+02,	 1.0000001611713747e+03,	 3.3237671633113285e+02,	 3.0086342847916261e+00 
4.3889860000000003e-01,	 6.9010470000000002e-01,	 1.1586409056897867e-02,	 9.9999998384779678e+02,	 4.0238617380794826e-05,	 3.0000001685917550e+02,	 1.0000001698110458e+03,	 3.3237671645420141e+02,	 3.0086342825568795e+00 
4.4594240000000002e-01,	 6.9109259999999995e-01,	 1.1586409056059684e-02,	 9.9999998458103755e+02,	 3.8641926809983284e-05,	 3.0000001574217117e+02,	 1.0000001660153556e+03,	 3.3237671583542442e+02,	 3.0086342903640282e+00 
4.5298990000000000e-01,	 6.9211049999999996e-01,	 1.1586408989355014e-02,	 9.9999998599389119e+02,	 3.5626407662633015e-05,	 3.0000001394159347e+02,	 1.0000001542562804e+03,	 3.3237671483797430e+02,	 3.0086343036435865e+00 
4.6004319999999999e-01,	 6.9315939999999998e-01,	 1.1586408887154474e-02,	 9.9999998756329035e+02,	 3.2276069705801746e-05,	 3.0000001221949316e+02,	 1.0000001396952181e+03,	 3.3237671388399758e+02,	 3.0086343170006176e+00 
4.6710350000000000e-01,	 6.9423769999999996e-01,	 1.1586408820303810e-02,	 9.9999998878302631e+02,	 3.0214424821297869e-05,	 3.0000001115441580e+02,	 1.0000001303752107e+03,	 3.3237671329398609e+02,	 3.0086343260110708e+00 
4.7417239999999999e-01,	 6.9534510000000005e-01,	 1.1586408775899719e-02,	 9.9999998996299087e+02,	 2.8208465476113069e-05,	 3.0000001008698996e+02,	 1.0000001229846945e+03,	 3.3237671270267361e+02,	 3.0086343349136428e+00 
4.8125160000000000e-01,	 6.9648030000000005e-01,	 1.1586408659733006e-02,	 9.9999999162036920e+02,	 2.4324156896606750e-05,	 3.0000000836381719e+02,	 1.0000001072146647e+03,	 3.3237671174810282e+02,	 3.0086343485407485e+00 
4.8834359999999999e-01,	 6.9764360000000003e-01,	 1.1586408524507628e-02,	 9.9999999321857274e+02,	 2.0122472438093595e-05,	 3.0000000659381590e+02,	 1.0000000896436239e+03,	 3.3237671076759085e+02,	 3.0086343622246354e+00 
4.9545040000000001e-01,	 6.9883289999999998e-01,	 1.1586408434884668e-02,	 9.9999999406273969e+02,	 1.7819119505435702e-05,	 3.0000000558785950e+02,	 1.0000000785552547e+03,	 3.3237671021033009e+02,	 3.0086343698086835e+00 
5.0257490000000005e-01,	 7.0004759999999999e-01,	 1.1586408482610474e-02,	 9.9999999270510648e+02,	 1.9501374826952227e-05,	 3.0000000661305870e+02,	 1.0000000860917058e+03,	 3.3237671077825058e+02,	 3.0086343605833128e+00 
5.0971999999999995e-01,	 7.0128550000000001e-01,	 1.1586408573746380e-02,	 9.9999999384822718e+02,	 2.2779243475271994e-05,	 3.0000000896428543e+02,	 1.0000001017948894e+03,	 3.3237671208073891e+02,	 3.0086343522325762e+00 
5.1688869999999998e-01,	 7.0254390000000000e-01,	 1.1579029411466699e-02,	 1.0001136774151680e+03,	 -3.0781048988590720e-01,	 2.9985673307663410e+02,	 9.9888593867264808e+02,	 3.3229733332366408e+02,	 3.0096953074531623e+00 
5.2408549999999998e-01,	 7.0381609999999994e-01,	 2.1755637917998224e-02,	 7.2806758578981419e+02,	 3.2065337161951369e+01,	 4.7305594083753545e+02,	 2.9608353725908055e+03,	 4.1737478083483751e+02,	 1.7460886072357533e+00 
5.3131360000000005e-01,	 7.0509040000000001e-01,	 4.5577677172039213e-02,	 2.6265910058472275e+02,	 1.1141239874560333e+02,	 7.6210647478439409e+02,	 9.9930434742547313e+03,	 5.2975831157312530e+02,	 5.3856876314797120e-01 
5.3857630000000001e-01,	 7.0635099999999995e-01,	 4.3350082704267254e-02,	 2.8370033685724189e+02,	 1.0846566523430840e+02,	 7.5184991492025597e+02,	 9.3767216215484914e+03,	 5.2618144710996660e+02,	 5.7723048733103843e-01 
5.4587370000000002e-01,	 7.0757219999999998e-01,	 4.3242519705356836e-02,	 2.8746670587903316e+02,	 1.0990418550114460e+02,	 7.5022079013931852e+02,	 9.3331882286826676e+03,	 5.2561106725111972e+02,	 5.8552744744480545e-01 
5.5320939999999996e-01,	 7.0875800000000000e-01,	 4.3158772871335474e-02,	 2.9341491501277721e+02,	 1.1216071530758714e+02,	 7.4835536691548418e+02,	 9.2919508303944858e+03,	 5.2495719484554240e+02,	 5.9837552002778016e-01 
5.6057659999999998e-01,	 7.0985710000000002e-01,	 4.3155591319291670e-02,	 3.0288252208026938e+02,	 1.1549866234432446e+02,	 7.4529558378406614e+02,	 9.2532768700946963e+03,	 5.2388290549703993e+02,	 6.1875850597604098e-01 
5.6797339999999996e-01,	 7.1075710000000003e-01,	 4.3231882523222909e-02,	 3.1681388335749267e+02,	 1.2071575610117013e+02,	 7.4036608879688072e+02,	 9.2083242398770144e+03,	 5.2214751177117432e+02,	 6.4930489284647719e-01 
5.7538679999999998e-01,	 7.1117390000000003e-01,	 4.3676747823296225e-02,	 3.3657401641284696e+02,	 1.2876546789616259e+02,	 7.3215723199248885e+02,	 9.1999313635114286e+03,	 5.1924477114059289e+02,	 6.9401672862602681e-01 
5.8281289999999997e-01,	 7.1066900000000000e-01,	 4.3933963503855616e-02,	 3.6069887159868949e+02,	 1.3610799251563159e+02,	 7.2343231436614474e+02,	 9.1438317520144919e+03,	 5.1614164965984287e+02,	 7.4693526175101532e-01 
5.8998580000000000e-01,	 7.1223749999999997e-01,	 4.3889313450328302e-02,	 3.7080286984315183e+02,	 1.3632904724758851e+02,	 7.2048037669088103e+02,	 9.0972657489586763e+03,	 5.1508752517825701e+02,	 7.6699603941769645e-01 
5.9719979999999995e-01,	 7.1371470000000004e-01,	 4.3944654017658250e-02,	 3.8263525465964597e+02,	 1.3782789089920277e+02,	 7.1623619255301412e+02,	 9.0550791299439443e+03,	 5.1356815325344235e+02,	 7.9191376765719734e-01 
6.0444350000000002e-01,	 7.1512089999999995e-01,	 4.3990804071389403e-02,	 3.9436982360675358e+02,	 1.3848506701516047e+02,	 7.1197180018092331e+02,	 9.0106190712226762e+03,	 5.1203700632336677e+02,	 8.1630442778416334e-01 
6.1171549999999997e-01,	 7.1645440000000005e-01,	 4.4057852340060488e-02,	 4.0554612626019923e+02,	 1.3939470317923895e+02,	 7.0771842357725995e+02,	 8.9704403362389057e+03,	 5.1050524011331913e+02,	 8.4001867423514820e-01 
6.1901370000000000e-01,	 7.1771629999999997e-01,	 4.4020392957615527e-02,	 4.1765494160126320e+02,	 1.4028662012437155e+02,	 7.0286311107357983e+02,	 8.9013238724143957e+03,	 5.0875106199432071e+02,	 8.6601481649562750e-01 
6.2633600000000000e-01,	 7.1890659999999995e-01,	 4.3971121846895611e-02,	 4.2915170912276403e+02,	 1.4023058400782122e+02,	 6.9831342988789834e+02,	 8.8338064165579108e+03,	 5.0710179843126696e+02,	 8.9031786274127089e-01 
6.3368029999999997e-01,	 7.2002679999999997e-01,	 4.3919406912723044e-02,	 4.3994708172451635e+02,	 1.3981881643535834e+02,	 6.9404163884767422e+02,	 8.7694414103050131e+03,	 5.0554837279829007e+02,	 9.1312828587724870e-01 
6.4104419999999995e-01,	 7.2107969999999999e-01,	 4.3850841819768949e-02,	 4.5009646880866802e+02,	 1.3922582826839391e+02,	 6.8998272152842469e+02,	 8.7045452619159514e+03,	 5.0406792274393285e+02,	 9.3467091356413201e-01 
6.4842540000000004e-01,	 7.2206769999999998e-01,	 4.3755497215519190e-02,	 4.5961738341417367e+02,	 1.3814298353828138e+02,	 6.8599669405715667e+02,	 8.6354422379754396e+03,	 5.0260981461790209e+02,	 9.5487345203711427e-01 
6.5582189999999996e-01,	 7.2299380000000002e-01,	 4.3637217117657043e-02,	 4.6849135018120774e+02,	 1.3685648672951447e+02,	 6.8225557061273275e+02,	 8.5651322743273340e+03,	 5.0123743483252258e+02,	 9.7373324784925452e-01 
6.6323069999999995e-01,	 7.2386539999999999e-01,	 4.3495200166116188e-02,	 4.7670634149215198e+02,	 1.3529046954668991e+02,	 6.7872066587715653e+02,	 8.4930238604670631e+03,	 4.9993724200763575e+02,	 9.9118938713214533e-01 
6.7064999999999997e-01,	 7.2468730000000003e-01,	 4.3315390135114831e-02,	 4.8453727950394313e+02,	 1.3349394220086077e+02,	 6.7525512040324293e+02,	 8.4147274507713119e+03,	 4.9865926963759978e+02,	 1.0078831955815435e+00 
6.7807810000000002e-01,	 7.2546400000000000e-01,	 4.3093708992112338e-02,	 4.9215313364973923e+02,	 1.3132165450822123e+02,	 6.7178462473179161e+02,	 8.3286358095612413e+03,	 4.9737618112101035e+02,	 1.0241186937842046e+00 
6.8551399999999996e-01,	 7.2619750000000005e-01,	 4.2857253981097528e-02,	 4.9923454727853778e+02,	 1.2864338664129031e+02,	 6.6853977811558502e+02,	 8.2429284695260467e+03,	 4.9617351664224930e+02,	 1.0390370746380551e+00 
6.9295600000000002e-01,	 7.2689409999999999e-01,	 4.2651459611570630e-02,	 5.0541632441986894e+02,	 1.2562229365851411e+02,	 6.6571013091131545e+02,	 8.1686258005790032e+03,	 4.9512235646191397e+02,	 1.0518495381780835e+00 
7.0040320000000000e-01,	 7.2755709999999996e-01,	 4.2502584595673312e-02,	 5.1006541225951923e+02,	 1.2227758654577038e+02,	 6.6371685210011458e+02,	 8.1157399502691487e+03,	 4.9438054953688311e+02,	 1.0609588689093794e+00 
7.0785500000000001e-01,	 7.2818870000000002e-01,	 4.2380826878248345e-02,	 5.1403953341288297e+02,	 1.1924520816736668e+02,	 6.6195011114077988e+02,	 8.0709493660054959e+03,	 4.9372211786509251e+02,	 1.0687983012757285e+00 
7.1531080000000002e-01,	 7.2879039999999995e-01,	 4.2149772123470652e-02,	 5.1883409865149520e+02,	 1.1631320830649713e+02,	 6.5969044168668734e+02,	 7.9995463684220877e+03,	 4.9287869892127884e+02,	 1.0787886320539279e+00 
7.2277020000000003e-01,	 7.2936369999999995e-01,	 4.1898517699113791e-02,	 5.2349412640092510e+02,	 1.1343350380152265e+02,	 6.5743322031052503e+02,	 7.9246527580844013e+03,	 4.9203475032791965e+02,	 1.0886280841354006e+00 
7.3023260000000001e-01,	 7.2991090000000003e-01,	 4.1655923836856484e-02,	 5.2780487844869117e+02,	 1.1044142643770030e+02,	 6.5528716742757820e+02,	 7.8530501569713633e+03,	 4.9123102175993876e+02,	 1.0977235207745439e+00 
7.3769779999999996e-01,	 7.3043259999999999e-01,	 4.1427095576517949e-02,	 5.3184516168206255e+02,	 1.0742830904799938e+02,	 6.5317148977167403e+02,	 7.7846957517275059e+03,	 4.9043737984819643e+02,	 1.1063318770240289e+00 
7.4516550000000004e-01,	 7.3092860000000004e-01,	 4.1190678500035188e-02,	 5.3574542445724728e+02,	 1.0438403765614760e+02,	 6.5110171802665513e+02,	 7.7157424856998214e+03,	 4.8965971358304040e+02,	 1.1146919453442778e+00 
7.5263559999999996e-01,	 7.3139900000000002e-01,	 4.0930686246354320e-02,	 5.3952360584888652e+02,	 1.0123860436613697e+02,	 6.4921545414001969e+02,	 7.6448296586795650e+03,	 4.8894991868873768e+02,	 1.1226913940148182e+00 
7.6010789999999995e-01,	 7.3184210000000005e-01,	 4.0650579187908528e-02,	 5.4320845229491397e+02,	 9.7959220972937487e+01,	 6.4747144016382163e+02,	 7.5721165811202973e+03,	 4.8829273397335567e+02,	 1.1304089953876111e+00 
7.6794410000000002e-01,	 7.3232140000000001e-01,	 4.0358041368756467e-02,	 5.4687006541411017e+02,	 9.4526968328722361e+01,	 6.4578419306457818e+02,	 7.4980344102794998e+03,	 4.8765609745184065e+02,	 1.1380550280476722e+00 
7.7575950000000005e-01,	 7.3276870000000005e-01,	 4.0184815242205844e-02,	 5.4897602768849538e+02,	 9.1497935542523479e+01,	 6.4482270408164618e+02,	 7.4547354129085361e+03,	 4.8729293385622424e+02,	 1.1421236535981232e+00 
4.1231180000000001e-01,	 6.9355370000000005e-01,	 1.1586407780328682e-02,	 9.9999999935103335e+02,	 1.2033242259961809e-06,	 3.0000000055243788e+02,	 1.0000000052770787e+03,	 3.3237670742090199e+02,	 3.0086344109687961e+00 
4.1899320000000001e-01,	 6.9436180000000003e-01,	 1.1586407924191244e-02,	 9.9999999741464603e+02,	 6.0815531474067951e-06,	 3.0000000260502543e+02,	 1.0000000245355313e+03,	 3.3237670855795579e+02,	 3.0086343948504388e+00 
4.2567100000000002e-01,	 6.9519569999999997e-01,	 1.1586408117399447e-02,	 9.9999999508293956e+02,	 1.1485872083489708e-05,	 3.0000000476191110e+02,	 1.0000000484005695e+03,	 3.3237670975278672e+02,	 3.0086343770197193e+00 
4.3234679999999998e-01,	 6.9605609999999996e-01,	 1.1586408359804519e-02,	 9.9999999239068359e+02,	 1.7936428600331132e-05,	 3.0000000723162060e+02,	 1.0000000775544389e+03,	 3.3237671112090987e+02,	 3.0086343565356186e+00 
4.3902200000000002e-01,	 6.9694339999999999e-01,	 1.1586408587065687e-02,	 9.9999999000845366e+02,	 2.4520299954334939e-05,	 3.0000000972307805e+02,	 1.0000001054737614e+03,	 3.3237671250108059e+02,	 3.0086343368752191e+00 
4.4608179999999997e-01,	 6.9791060000000005e-01,	 1.1586408764851303e-02,	 9.9999998829848619e+02,	 2.9764990839974218e-05,	 3.0000001163784077e+02,	 1.0000001272006307e+03,	 3.3237671356178475e+02,	 3.0086343221291854e+00 
4.5314539999999998e-01,	 6.9890730000000001e-01,	 1.1586408873592864e-02,	 9.9999998737857686e+02,	 3.2966981967298892e-05,	 3.0000001271047455e+02,	 1.0000001401613471e+03,	 3.3237671415598220e+02,	 3.0086343139829106e+00 
4.6021459999999997e-01,	 6.9993450000000001e-01,	 1.1586408915053687e-02,	 9.9999998725550199e+02,	 3.3860117226354022e-05,	 3.0000001289829987e+02,	 1.0000001443658334e+03,	 3.3237671426003016e+02,	 3.0086343126707935e+00 
4.6729070000000000e-01,	 7.0099060000000002e-01,	 1.1586408881920937e-02,	 9.9999998791554765e+02,	 3.2253794145245791e-05,	 3.0000001214143015e+02,	 1.0000001389833117e+03,	 3.3237671384075372e+02,	 3.0086343184518696e+00 
4.7437530000000000e-01,	 7.0207540000000002e-01,	 1.1586408820668774e-02,	 9.9999998868361354e+02,	 3.0124664185639239e-05,	 3.0000001120903175e+02,	 1.0000001305887632e+03,	 3.3237671332424122e+02,	 3.0086343254381083e+00 
4.8146990000000001e-01,	 7.0318760000000002e-01,	 1.1586408772627167e-02,	 9.9999998933351299e+02,	 2.8760183142939429e-05,	 3.0000001053740425e+02,	 1.0000001242036280e+03,	 3.3237671295218564e+02,	 3.0086343307612204e+00 
4.8857719999999999e-01,	 7.0432729999999999e-01,	 1.1586408715216190e-02,	 9.9999999013129172e+02,	 2.7173962327399231e-05,	 3.0000000978097194e+02,	 1.0000001167271586e+03,	 3.3237671253315153e+02,	 3.0086343369544917e+00 
4.9569910000000000e-01,	 7.0549269999999997e-01,	 1.1586408629783320e-02,	 9.9999999113636898e+02,	 2.4858388900605606e-05,	 3.0000000884785470e+02,	 1.0000001062432249e+03,	 3.3237671201624079e+02,	 3.0086343446574157e+00 
5.0283829999999996e-01,	 7.0668290000000000e-01,	 1.1586408548846610e-02,	 9.9999999166726252e+02,	 2.2272826284134145e-05,	 3.0000000800503835e+02,	 1.0000000964483487e+03,	 3.3237671154935327e+02,	 3.0086343504808903e+00 
5.0999760000000005e-01,	 7.0789599999999997e-01,	 1.1586408545422122e-02,	 9.9999999094590680e+02,	 1.3985827478796996e-05,	 3.0000000825168661e+02,	 1.0000000969749489e+03,	 3.3237671168598683e+02,	 3.0086343470738037e+00 
5.1718019999999998e-01,	 7.0912920000000002e-01,	 1.1585066293921392e-02,	 1.0000142903574924e+03,	 -7.2165153296805534e-02,	 2.9996842056549838e+02,	 9.9977896979527691e+02,	 3.3235921287372520e+02,	 3.0088357843755640e+00 
5.2439040000000003e-01,	 7.1037580000000000e-01,	 2.0805514391476786e-02,	 7.5885146798519884e+02,	 2.9005857927119155e+01,	 4.4490975818159848e+02,	 2.6630561672081321e+03,	 4.0476776538311623e+02,	 1.8761514166176660e+00 
5.3163130000000003e-01,	 7.1162449999999999e-01,	 4.4629421701131856e-02,	 2.7480916170610891e+02,	 1.0807794965041811e+02,	 7.5278005528128892e+02,	 9.6653881823530064e+03,	 5.2650682542982361e+02,	 5.6086265600616891e-01 
5.3890610000000005e-01,	 7.1285929999999997e-01,	 4.3259840730338381e-02,	 2.8413135698819872e+02,	 1.0665595544535961e+02,	 7.5307148257892027e+02,	 9.3724051850246178e+03,	 5.2660873010488638e+02,	 5.7631004775569861e-01 
5.4621489999999995e-01,	 7.1405520000000000e-01,	 4.3134389755879618e-02,	 2.8674744747823922e+02,	 1.0730915469501176e+02,	 7.5277970908470570e+02,	 9.3416050079711531e+03,	 5.2650670436200062e+02,	 5.8150984376190817e-01 
5.5356130000000003e-01,	 7.1521590000000002e-01,	 4.3026202630577978e-02,	 2.9017025354444991e+02,	 1.0768845602032810e+02,	 7.5205882933063299e+02,	 9.3092516408186566e+03,	 5.2625454630794843e+02,	 5.8813479535939639e-01 
5.6093870000000001e-01,	 7.1629109999999996e-01,	 4.2947120720146954e-02,	 2.9527479297631322e+02,	 1.0828211352375406e+02,	 7.5093162190845442e+02,	 9.2782139615445121e+03,	 5.2586001568766073e+02,	 5.9807386324315936e-01 
5.6834490000000004e-01,	 7.1716950000000002e-01,	 4.2915739542740777e-02,	 3.0295075517319100e+02,	 1.1009422934581031e+02,	 7.4853596490631958e+02,	 9.2418562703559564e+03,	 5.2502053406894584e+02,	 6.1394755491082531e-01 
5.7576729999999998e-01,	 7.1757099999999996e-01,	 4.3150009214917025e-02,	 3.1511912584386067e+02,	 1.1481445317792733e+02,	 7.4331884040757723e+02,	 9.2275407332197610e+03,	 5.2318769834344187e+02,	 6.4103952199846159e-01 
5.8320190000000005e-01,	 7.1706199999999998e-01,	 4.3297670036232777e-02,	 3.3471283635075883e+02,	 1.2125958448222657e+02,	 7.3603182211765557e+02,	 9.1683472806850368e+03,	 5.2061688487066260e+02,	 6.8380571281938696e-01 
5.9036970000000000e-01,	 7.1859620000000002e-01,	 4.3293065404291141e-02,	 3.4547385744054753e+02,	 1.2238977614225598e+02,	 7.3266912156199453e+02,	 9.1254893693387803e+03,	 5.1942625506850220e+02,	 7.0561035079054402e-01 
5.9757769999999999e-01,	 7.2004100000000004e-01,	 4.3329061959624215e-02,	 3.5672228355588777e+02,	 1.2401349246732349e+02,	 7.2886155507511467e+02,	 9.0856137027375007e+03,	 5.1807480858639008e+02,	 7.2897589832664367e-01 
6.0481479999999999e-01,	 7.2141630000000001e-01,	 4.3358955385727815e-02,	 3.6811047475118357e+02,	 1.2525845415232375e+02,	 7.2488896917869613e+02,	 9.0423276359996707e+03,	 5.1666102246072035e+02,	 7.5259792815629001e-01 
6.1207950000000000e-01,	 7.2272069999999999e-01,	 4.3388064364097062e-02,	 3.7965774950535422e+02,	 1.2669594241081707e+02,	 7.2062659473051633e+02,	 8.9951932686597447e+03,	 5.1513978979904834e+02,	 7.7695369644476986e-01 
6.1936979999999997e-01,	 7.2395489999999996e-01,	 4.3371397215146865e-02,	 3.9208462474017097e+02,	 1.2806067783106033e+02,	 7.1584385302612634e+02,	 8.9320603903351694e+03,	 5.1342747292384252e+02,	 8.0336185576013397e-01 
6.2668369999999995e-01,	 7.2511919999999996e-01,	 4.3353658127340169e-02,	 4.0434696777014028e+02,	 1.2881439018091950e+02,	 7.1116728512960299e+02,	 8.8700783542618756e+03,	 5.1174762834822360e+02,	 8.2925576447061489e-01 
6.3401920000000000e-01,	 7.2621490000000000e-01,	 4.3329118539400080e-02,	 4.1640081078439317e+02,	 1.2935283737671170e+02,	 7.0647050578452570e+02,	 8.8065098850468567e+03,	 5.1005495534303498e+02,	 8.5486783754348006e-01 
6.4137370000000005e-01,	 7.2724480000000002e-01,	 4.3293650636473668e-02,	 4.2810262477100298e+02,	 1.2975348089435101e+02,	 7.0178637383277157e+02,	 8.7409588806065276e+03,	 5.0836122707380440e+02,	 8.7995328000717155e-01 
6.4874529999999997e-01,	 7.2821119999999995e-01,	 4.3241897516519204e-02,	 4.3937960616092005e+02,	 1.2975205688181126e+02,	 6.9708349362120623e+02,	 8.6720042043180092e+03,	 5.0665502357382053e+02,	 9.0423967068927047e-01 
6.5613169999999998e-01,	 7.2911709999999996e-01,	 4.3175251019416210e-02,	 4.5006319227088329e+02,	 1.2941954585108775e+02,	 6.9256457966475000e+02,	 8.6025079972527619e+03,	 5.0501013233629004e+02,	 9.2731109944900947e-01 
6.6353019999999996e-01,	 7.2996980000000000e-01,	 4.3087688032725016e-02,	 4.6013391344840289e+02,	 1.2877425801139250e+02,	 6.8820977888235223e+02,	 8.5310790936072553e+03,	 5.0341989322237015e+02,	 9.4913571515737283e-01 
6.7093899999999995e-01,	 7.3077369999999997e-01,	 4.2966254718399211e-02,	 4.6975908944910583e+02,	 1.2782599044288597e+02,	 6.8394298280930411e+02,	 8.4542937639680222e+03,	 5.0185690345296115e+02,	 9.7007711622475890e-01 
6.7835630000000002e-01,	 7.3153349999999995e-01,	 4.2810865354185129e-02,	 4.7899710512787033e+02,	 1.2638914027860405e+02,	 6.7974904030581797e+02,	 8.3720641435718971e+03,	 5.0031584258925920e+02,	 9.9015693347695466e-01 
6.8578130000000004e-01,	 7.3225110000000004e-01,	 4.2641933157795013e-02,	 4.8756575532826793e+02,	 1.2433393961914891e+02,	 6.7580493810281041e+02,	 8.2906424043468687e+03,	 4.9886224174158218e+02,	 1.0086336628862222e+00 
6.9321230000000000e-01,	 7.3293260000000005e-01,	 4.2497734585968019e-02,	 4.9512386289262508e+02,	 1.2183992645480926e+02,	 6.7229155573897242e+02,	 8.2196509162654093e+03,	 4.9756380662741344e+02,	 1.0247825411773601e+00 
7.0064830000000000e-01,	 7.3358120000000004e-01,	 4.2393213532467250e-02,	 5.0113309894096892e+02,	 1.1903508667766542e+02,	 6.6957278898530865e+02,	 8.1662763399649129e+03,	 4.9655670610209120e+02,	 1.0372963036617682e+00 
7.0808890000000002e-01,	 7.3419909999999999e-01,	 4.2283846299466715e-02,	 5.0653232545427085e+02,	 1.1663271297889231e+02,	 6.6701810853298127e+02,	 8.1141316077138827e+03,	 4.9560852239294360e+02,	 1.0487847777300177e+00 
7.1553330000000004e-01,	 7.3478779999999999e-01,	 4.2090635423139358e-02,	 5.1239028346120028e+02,	 1.1417681219456216e+02,	 6.6413984820108317e+02,	 8.0422016459984115e+03,	 4.9453806228938686e+02,	 1.0615103693251546e+00 
7.2298130000000005e-01,	 7.3534869999999997e-01,	 4.1878872385501885e-02,	 5.1796668654208383e+02,	 1.1166946982291725e+02,	 6.6137707784573070e+02,	 7.9684537439870810e+03,	 4.9350837028595038e+02,	 1.0736747818176933e+00 
7.3043219999999998e-01,	 7.3588410000000004e-01,	 4.1664399164757518e-02,	 5.2310113884538407e+02,	 1.0898493286719919e+02,	 6.5882958700657605e+02,	 7.8971094145633706e+03,	 4.9255700603436691e+02,	 1.0848159840296387e+00 
7.3788580000000004e-01,	 7.3639449999999995e-01,	 4.1432836324380273e-02,	 5.2791840368125645e+02,	 1.0624397442489230e+02,	 6.5646445916545736e+02,	 7.8250265594253251e+03,	 4.9167209762031757e+02,	 1.0952485090949171e+00 
7.4534199999999995e-01,	 7.3687990000000003e-01,	 4.1193400187386868e-02,	 5.3243208927319927e+02,	 1.0341817627403617e+02,	 6.5422604221502297e+02,	 7.7532788918172701e+03,	 4.9083312840785919e+02,	 1.1050251180023298e+00 
7.5280040000000004e-01,	 7.3734010000000005e-01,	 4.0963576984001694e-02,	 5.3665056766380553e+02,	 1.0048772434806438e+02,	 6.5203753192768932e+02,	 7.6842308774627891e+03,	 4.9001147569733502e+02,	 1.1142140451697760e+00 
7.6026099999999996e-01,	 7.3777369999999998e-01,	 4.0734472821392850e-02,	 5.4072557539258946e+02,	 9.7452324612669827e+01,	 6.4982595312943442e+02,	 7.6153363548017851e+03,	 4.8917976017419488e+02,	 1.1231803182321110e+00 
7.6808869999999996e-01,	 7.3824250000000002e-01,	 4.0486188616106658e-02,	 5.4475914429623913e+02,	 9.4231871810115734e+01,	 6.4765684410792539e+02,	 7.5436545235558542e+03,	 4.8836264046894320e+02,	 1.1320463393570381e+00 
7.7589609999999998e-01,	 7.3867989999999994e-01,	 4.0341442201117322e-02,	 5.4710744010562996e+02,	 9.1317279659700830e+01,	 6.4641586630492066e+02,	 7.5022816655595661e+03,	 4.8789453934952201e+02,	 1.1368767092342316e+00 
4.1238750000000002e-01,	 7.0046920000000001e-01,	 1.1586407730483892e-02,	 1.0000000000792661e+03,	 -4.8486524511057151e-07,	 2.9999999979519157e+02,	 9.9999999845091884e+02,	 3.3237670700141689e+02,	 3.0086344169569115e+00 
4.1908119999999999e-01,	 7.0125919999999997e-01,	 1.1586407745658587e-02,	 9.9999999986504599e+02,	 -8.3320106762518298e-08,	 2.9999999995039605e+02,	 1.0000000002779650e+03,	 3.3237670708739415e+02,	 3.0086344155341456e+00 
4.2577130000000002e-01,	 7.0207470000000005e-01,	 1.1586407778239216e-02,	 9.9999999942320107e+02,	 7.2068597672271868e-07,	 3.0000000025118987e+02,	 1.0000000040925810e+03,	 3.3237670725402228e+02,	 3.0086344126964977e+00 
4.3245939999999999e-01,	 7.0291610000000004e-01,	 1.1586407843475699e-02,	 9.9999999860865876e+02,	 2.4730699714077122e-06,	 3.0000000091636525e+02,	 1.0000000119402644e+03,	 3.3237670762250360e+02,	 3.0086344069103887e+00 
4.3914700000000001e-01,	 7.0378390000000002e-01,	 1.1586407949593442e-02,	 9.9999999733999277e+02,	 5.4661943480118692e-06,	 3.0000000206754532e+02,	 1.0000000249363446e+03,	 3.3237670826021269e+02,	 3.0086343973209697e+00 
4.4622289999999998e-01,	 7.0473050000000004e-01,	 1.1586408096535272e-02,	 9.9999999565839516e+02,	 9.7479597419266770e-06,	 3.0000000375838391e+02,	 1.0000000432547330e+03,	 3.3237670919687162e+02,	 3.0086343837831322e+00 
4.5330239999999999e-01,	 7.0570600000000006e-01,	 1.1586408259563905e-02,	 9.9999999385397223e+02,	 1.4579128702002991e-05,	 3.0000000570238558e+02,	 1.0000000638054187e+03,	 3.3237671027377303e+02,	 3.0086343686063004e+00 
4.6038760000000001e-01,	 7.0671150000000005e-01,	 1.1586408418416582e-02,	 9.9999999216690321e+02,	 1.9322520039645921e-05,	 3.0000000755113155e+02,	 1.0000000836781672e+03,	 3.3237671129790652e+02,	 3.0086343542601921e+00 
4.6747939999999999e-01,	 7.0774559999999997e-01,	 1.1586408555101976e-02,	 9.9999999080934651e+02,	 2.3423826928757121e-05,	 3.0000000905707310e+02,	 1.0000001004950199e+03,	 3.3237671213213969e+02,	 3.0086343426244220e+00 
4.7457949999999999e-01,	 7.0880770000000004e-01,	 1.1586408648682826e-02,	 9.9999998992482813e+02,	 2.6171254976217122e-05,	 3.0000001002699014e+02,	 1.0000001118048557e+03,	 3.3237671266943607e+02,	 3.0086343350996869e+00 
4.8168960000000000e-01,	 7.0989679999999999e-01,	 1.1586408704327570e-02,	 9.9999998947530025e+02,	 2.7676691976486037e-05,	 3.0000001052160439e+02,	 1.0000001182561582e+03,	 3.3237671294343318e+02,	 3.0086343312670332e+00 
4.8881210000000003e-01,	 7.1101309999999995e-01,	 1.1586408728581656e-02,	 9.9999998932089272e+02,	 2.8251714888691330e-05,	 3.0000001071878791e+02,	 1.0000001210067591e+03,	 3.3237671305266514e+02,	 3.0086343298137228e+00 
4.9594890000000003e-01,	 7.1215450000000002e-01,	 1.1586408733531901e-02,	 9.9999998937317855e+02,	 2.8304344322656120e-05,	 3.0000001069827550e+02,	 1.0000001213656303e+03,	 3.3237671304130208e+02,	 3.0086343300738885e+00 
5.0310270000000001e-01,	 7.1332030000000002e-01,	 1.1586408716119715e-02,	 9.9999998976999109e+02,	 2.7569012962508271e-05,	 3.0000001021492290e+02,	 1.0000001182516434e+03,	 3.3237671277354349e+02,	 3.0086343336914712e+00 
5.1027630000000002e-01,	 7.1450860000000005e-01,	 1.1586408754972504e-02,	 9.9999998660267352e+02,	 2.7307799449627769e-05,	 3.0000001021192372e+02,	 1.0000001215949538e+03,	 3.3237671277188207e+02,	 3.0086343241772093e+00 
5.1747259999999995e-01,	 7.1571660000000004e-01,	 1.1587019975420925e-02,	 9.9997796207408669e+02,	 9.5972919745535481e-03,	 3.0000841813081365e+02,	 1.0000809027053680e+03,	 3.3238137039982610e+02,	 3.0085259017894250e+00 
5.2469610000000000e-01,	 7.1693759999999995e-01,	 1.9542693349781513e-02,	 8.0524234300866078e+02,	 2.5494745317558024e+01,	 4.1695038408122889e+02,	 2.3442219770657562e+03,	 3.9184304499245258e+02,	 2.0560421992017455e+00 
5.3194969999999997e-01,	 7.1816060000000004e-01,	 4.3253420027819553e-02,	 2.8652278503420462e+02,	 1.0355260205730724e+02,	 7.5420811531896118e+02,	 9.3851580607361229e+03,	 5.2700599321447703e+02,	 5.7809817247565420e-01 
5.3923659999999995e-01,	 7.1936970000000000e-01,	 4.3002587643540750e-02,	 2.8214893162453313e+02,	 1.0508307550737962e+02,	 7.5871638425828496e+02,	 9.3865065978844250e+03,	 5.2857873210374248e+02,	 5.6960704342201851e-01 
5.4655679999999995e-01,	 7.2054030000000002e-01,	 4.2867315126006791e-02,	 2.8279042448250516e+02,	 1.0564997735680552e+02,	 7.5876210018012648e+02,	 9.3575434199896554e+03,	 5.2859465643364558e+02,	 5.7110175777528360e-01 
5.5391389999999996e-01,	 7.2167599999999998e-01,	 4.2788460680735212e-02,	 2.8413585026427512e+02,	 1.0500287174655313e+02,	 7.5813125391596282e+02,	 9.3325645231601411e+03,	 5.2837486995225390e+02,	 5.7329964386809673e-01 
5.6130130000000000e-01,	 7.2272709999999996e-01,	 4.2692560355746714e-02,	 2.8656865117097902e+02,	 1.0408351566601795e+02,	 7.5763449143328580e+02,	 9.3055463428889652e+03,	 5.2820173382203939e+02,	 5.7721350706534025e-01 
5.6871700000000003e-01,	 7.2358420000000001e-01,	 4.2615604815493813e-02,	 2.9026441598759783e+02,	 1.0363286069372818e+02,	 7.5650829179229970e+02,	 9.2749651501596218e+03,	 5.2780901026303138e+02,	 5.8394166171940987e-01 
5.7614829999999995e-01,	 7.2397029999999996e-01,	 4.2673065196541279e-02,	 2.9682099098719942e+02,	 1.0538381319036107e+02,	 7.5359055155682461e+02,	 9.2516505714458017e+03,	 5.2679018643111226e+02,	 5.9791115178054366e-01 
5.8359130000000004e-01,	 7.2345729999999997e-01,	 4.2685785711762195e-02,	 3.0884781117501177e+02,	 1.0887215002810571e+02,	 7.4908292136837940e+02,	 9.1990528263681772e+03,	 5.2521231572590887e+02,	 6.2351044801004230e-01 
5.9075400000000000e-01,	 7.2495710000000002e-01,	 4.2605000414354027e-02,	 3.1626774189601525e+02,	 1.0913648109422145e+02,	 7.4702360044456100e+02,	 9.1564016271587789e+03,	 5.2448988229869485e+02,	 6.3789307238659099e-01 
5.9795600000000004e-01,	 7.2636950000000000e-01,	 4.2547086661053612e-02,	 3.2463224358512105e+02,	 1.0979997503804580e+02,	 7.4455202785923711e+02,	 9.1137018370810474e+03,	 5.2362151025197295e+02,	 6.5447713293307697e-01 
6.0518640000000001e-01,	 7.2771399999999997e-01,	 4.2498528293652457e-02,	 3.3379814567163788e+02,	 1.1063390857333395e+02,	 7.4167485244591012e+02,	 9.0681225815789148e+03,	 5.2260881460383450e+02,	 6.7288331348709407e-01 
6.1244390000000004e-01,	 7.2898920000000000e-01,	 4.2449756250496677e-02,	 3.4388833520676076e+02,	 1.1175676404917958e+02,	 7.3826551963624729e+02,	 9.0160793171178684e+03,	 5.2140626629219969e+02,	 6.9349374051365376e-01 
6.1972640000000001e-01,	 7.3019579999999995e-01,	 4.2411077104521626e-02,	 3.5502575415257456e+02,	 1.1294806571362675e+02,	 7.3425074979606097e+02,	 8.9588783285387999e+03,	 5.1998660101169514e+02,	 7.1647896281352874e-01 
6.2703200000000003e-01,	 7.3133389999999998e-01,	 4.2376214762375075e-02,	 3.6682097384593226e+02,	 1.1399117205440945e+02,	 7.2993305270622545e+02,	 8.8988754456524257e+03,	 5.1845547900140230e+02,	 7.4090156818909447e-01 