TITLE = "Final State"
VARIABLES = "X", "Y", "rho", "u", "v", "T", "p", "c", "M"
ZONE I=51, J=48, DATAPACKING=POINT
0.0000000000000000e+00,	 3.3812950000000003e-01,	 1.1586407740522213e-02,	 1.0000000000000000e+03,	 1.8227793998470895e-13,	 3.0000000000000000e+02,	 1.0000000000000013e+03,	 3.3237670711487283e+02,	 3.0086344156914393e+00 
1.0904920000000000e-02,	 3.3808810000000000e-01,	 1.1586407740522208e-02,	 1.0000000000000000e+03,	 1.9762547440536473e-13,	 3.0000000000000011e+02,	 1.0000000000000013e+03,	 3.3237670711487289e+02,	 3.0086344156914384e+00 
2.1308160000000000e-02,	 3.3793790000000001e-01,	 1.1586407740522201e-02,	 1.0000000000000000e+03,	 1.3836863350565833e-13,	 3.0000000000000006e+02,	 1.0000000000000003e+03,	 3.3237670711487289e+02,	 3.0086344156914384e+00 
3.1394499999999999e-02,	 3.3771869999999998e-01,	 1.1586407740522197e-02,	 1.0000000000000000e+03,	 2.0172830638108759e-14,	 3.0000000000000011e+02,	 1.0000000000000003e+03,	 3.3237670711487289e+02,	 3.0086344156914384e+00 
4.1308159999999997e-02,	 3.3746159999999997e-01,	 1.1586407740522199e-02,	 1.0000000000000000e+03,	 2.1989599511217380e-14,	 3.0000000000000023e+02,	 1.0000000000000008e+03,	 3.3237670711487294e+02,	 3.0086344156914380e+00 
5.1098709999999999e-02,	 3.3717849999999999e-01,	 1.1586407740522199e-02,	 1.0000000000000000e+03,	 1.6687641085544617e-14,	 3.0000000000000023e+02,	 1.0000000000000008e+03,	 3.3237670711487294e+02,	 3.0086344156914380e+00 
6.0825060000000000e-02,	 3.3687770000000000e-01,	 1.1586407740522199e-02,	 1.0000000000000000e+03,	 2.5470654240301310e-14,	 3.0000000000000011e+02,	 1.0000000000000005e+03,	 3.3237670711487289e+02,	 3.0086344156914384e+00 
7.0511850000000001e-02,	 3.3656910000000001e-01,	 1.1586407740522199e-02,	 1.0000000000000000e+03,	 2.7510257631795328e-14,	 3.0000000000000006e+02,	 1.0000000000000002e+03,	 3.3237670711487289e+02,	 3.0086344156914384e+00 
8.0175120000000002e-02,	 3.3625759999999999e-01,	 1.1586407740522201e-02,	 1.0000000000000000e+03,	 3.5465064257373397e-14,	 3.0000000000000000e+02,	 1.0000000000000002e+03,	 3.3237670711487283e+02,	 3.0086344156914393e+00 
8.9817229999999998e-02,	 3.3595340000000001e-01,	 1.1586407740522199e-02,	 1.0000000000000000e+03,	 1.2562138983001424e-14,	 3.0000000000000000e+02,	 1.0000000000000000e+03,	 3.3237670711487283e+02,	 3.0086344156914393e+00 
9.9443939999999995e-02,	 3.3565889999999998e-01,	 1.1586407740522197e-02,	 1.0000000000000000e+03,	 1.5369927155107736e-14,	 3.0000000000000011e+02,	 1.0000000000000003e+03,	 3.3237670711487289e+02,	 3.0086344156914384e+00 
1.0905640000000000e-01,	 3.3537960000000000e-01,	 1.1586407740522199e-02,	 1.0000000000000000e+03,	 6.3911776320978602e-14,	 3.0000000000000000e+02,	 1.0000000000000000e+03,	 3.3237670711487283e+02,	 3.0086344156914393e+00 
1.1865390000000001e-01,	 3.3511890000000000e-01,	 1.1586407740522199e-02,	 1.0000000000000000e+03,	 5.4737622490503892e-14,	 3.0000000000000000e+02,	 1.0000000000000000e+03,	 3.3237670711487283e+02,	 3.0086344156914393e+00 
1.2823450000000000e-01,	 3.3488269999999998e-01,	 1.1586407740522199e-02,	 1.0000000000000000e+03,	 3.5111289431019175e-14,	 3.0000000000000000e+02,	 1.0000000000000000e+03,	 3.3237670711487283e+02,	 3.0086344156914393e+00 
1.3779469999999999e-01,	 3.3467459999999999e-01,	 1.1586407740522199e-02,	 1.0000000000000000e+03,	 3.7153732768507374e-14,	 3.0000000000000000e+02,	 1.0000000000000000e+03,	 3.3237670711487283e+02,	 3.0086344156914393e+00 
1.4733140000000000e-01,	 3.3449930000000000e-01,	 1.1586407740522199e-02,	 1.0000000000000000e+03,	 3.5761726843367820e-14,	 3.0000000000000000e+02,	 1.0000000000000000e+03,	 3.3237670711487283e+02,	 3.0086344156914393e+00 
1.5684039999999999e-01,	 3.3436090000000002e-01,	 1.1586407740522199e-02,	 1.0000000000000000e+03,	 3.9454871500709099e-14,	 3.0000000000000000e+02,	 1.0000000000000000e+03,	 3.3237670711487283e+02,	 3.0086344156914393e+00 
1.6631879999999999e-01,	 3.3426430000000001e-01,	 1.1586407740522199e-02,	 1.0000000000000000e+03,	 3.9215028885666086e-14,	 3.0000000000000000e+02,	 1.0000000000000000e+03,	 3.3237670711487283e+02,	 3.0086344156914393e+00 
1.7576230000000001e-01,	 3.3421260000000003e-01,	 1.1586407740522199e-02,	 1.0000000000000000e+03,	 4.7643069374703612e-14,	 3.0000000000000000e+02,	 1.0000000000000000e+03,	 3.3237670711487283e+02,	 3.0086344156914393e+00 
1.8516730000000001e-01,	 3.3420949999999999e-01,	 1.1586407740522199e-02,	 1.0000000000000000e+03,	 -2.4614616956780195e-14,	 2.9999999999999994e+02,	 9.9999999999999989e+02,	 3.3237670711487277e+02,	 3.0086344156914397e+00 
1.9452970000000000e-01,	 3.3425830000000001e-01,	 1.1586407740522199e-02,	 1.0000000000000000e+03,	 -2.7142461485307870e-14,	 2.9999999999999989e+02,	 9.9999999999999966e+02,	 3.3237670711487277e+02,	 3.0086344156914397e+00 
2.0384520000000000e-01,	 3.3436280000000002e-01,	 1.1586407740522199e-02,	 1.0000000000000000e+03,	 -4.6697206467395092e-14,	 3.0000000000000000e+02,	 1.0000000000000000e+03,	 3.3237670711487283e+02,	 3.0086344156914393e+00 
2.1310970000000001e-01,	 3.3452620000000000e-01,	 1.1586407740522199e-02,	 1.0000000000000000e+03,	 -2.6969531660659223e-14,	 3.0000000000000000e+02,	 1.0000000000000000e+03,	 3.3237670711487283e+02,	 3.0086344156914393e+00 
2.2231830000000000e-01,	 3.3475199999999999e-01,	 1.1586407740522199e-02,	 1.0000000000000000e+03,	 -7.3965305164026446e-15,	 3.0000000000000000e+02,	 1.0000000000000000e+03,	 3.3237670711487283e+02,	 3.0086344156914393e+00 
2.3146639999999999e-01,	 3.3504319999999999e-01,	 1.1586407740522199e-02,	 1.0000000000000000e+03,	 2.2907477740937093e-15,	 2.9999999999999989e+02,	 9.9999999999999966e+02,	 3.3237670711487277e+02,	 3.0086344156914397e+00 
2.4054909999999999e-01,	 3.3540290000000000e-01,	 1.1586407740522199e-02,	 1.0000000000000000e+03,	 5.5176577026046517e-16,	 3.0000000000000000e+02,	 1.0000000000000000e+03,	 3.3237670711487283e+02,	 3.0086344156914393e+00 
2.4956130000000001e-01,	 3.3583420000000003e-01,	 1.1586407740522199e-02,	 1.0000000000000000e+03,	 2.2349223858410803e-15,	 3.0000000000000000e+02,	 1.0000000000000000e+03,	 3.3237670711487283e+02,	 3.0086344156914393e+00 
2.5849840000000002e-01,	 3.3633970000000002e-01,	 1.1586407740522199e-02,	 1.0000000000000000e+03,	 4.0340942199468640e-15,	 3.0000000000000000e+02,	 1.0000000000000000e+03,	 3.3237670711487283e+02,	 3.0086344156914393e+00 
2.6735579999999998e-01,	 3.3692169999999999e-01,	 1.1586407740522199e-02,	 1.0000000000000000e+03,	 6.9110544589230709e-15,	 3.0000000000000000e+02,	 1.0000000000000000e+03,	 3.3237670711487283e+02,	 3.0086344156914393e+00 
2.7613009999999999e-01,	 3.3758220000000000e-01,	 1.1586407740522199e-02,	 1.0000000000000000e+03,	 -4.6433183085571089e-15,	 3.0000000000000000e+02,	 1.0000000000000000e+03,	 3.3237670711487283e+02,	 3.0086344156914393e+00 
2.8481529999999999e-01,	 3.3832329999999999e-01,	 1.1586407740522196e-02,	 1.0000000000000000e+03,	 -3.3035173953496285e-14,	 3.0000000000000000e+02,	 9.9999999999999977e+02,	 3.3237670711487283e+02,	 3.0086344156914393e+00 
2.9340909999999998e-01,	 3.3914620000000001e-01,	 1.1586407740522213e-02,	 1.0000000000000000e+03,	 1.4812763465031778e-13,	 3.0000000000000006e+02,	 1.0000000000000015e+03,	 3.3237670711487289e+02,	 3.0086344156914384e+00 
3.0190760000000000e-01,	 3.4005249999999998e-01,	 1.1586407740522251e-02,	 1.0000000000000002e+03,	 3.5063484257147216e-13,	 2.9999999999999994e+02,	 1.0000000000000044e+03,	 3.3237670711487277e+02,	 3.0086344156914402e+00 
3.1031039999999999e-01,	 3.4104289999999998e-01,	 1.1586407740521939e-02,	 9.9999999999999955e+02,	 -6.5035231648755599e-13,	 2.9999999999999989e+02,	 9.9999999999997726e+02,	 3.3237670711487277e+02,	 3.0086344156914384e+00 
3.1860840000000001e-01,	 3.4211890000000000e-01,	 1.1586407740523707e-02,	 1.0000000000000014e+03,	 1.6477360355432983e-12,	 3.0000000000000011e+02,	 1.0000000000001306e+03,	 3.3237670711487289e+02,	 3.0086344156914429e+00 
3.2532230000000001e-01,	 3.4306779999999998e-01,	 1.1586407740545777e-02,	 9.9999999999956617e+02,	 6.6940425766634476e-10,	 3.0000000000030138e+02,	 1.0000000000030396e+03,	 3.3237670711503978e+02,	 3.0086344156886224e+00 
3.3196450000000000e-01,	 3.4408090000000002e-01,	 1.1586407764601587e-02,	 9.9999999953141537e+02,	 8.8064485322308842e-07,	 3.0000000043808546e+02,	 1.0000000035385294e+03,	 3.3237670735755518e+02,	 3.0086344120849073e+00 
3.3853689999999997e-01,	 3.4515699999999999e-01,	 1.1586405771141488e-02,	 1.0000000371199230e+03,	 -7.3499461940770068e-05,	 2.9999996199124979e+02,	 9.9999970333082274e+02,	 3.3237668605950012e+02,	 3.0086347179624737e+00 
3.4504040000000002e-01,	 3.4629520000000003e-01,	 1.1587422745799535e-02,	 9.9997869857962064e+02,	 3.7466273319526393e-02,	 3.0001963246876198e+02,	 1.0001530503989974e+03,	 3.3238758256248190e+02,	 3.0084718916764026e+00 
3.5147709999999999e-01,	 3.4749449999999998e-01,	 1.1539773814783511e-02,	 1.0007585473719512e+03,	 -2.2790893307193061e+00,	 2.9893011131536292e+02,	 9.9242317615056095e+02,	 3.3178350095872787e+02,	 3.0163077417421551e+00 
3.5784990000000000e-01,	 3.4875420000000001e-01,	 2.0578240234296566e-02,	 7.9106718986655164e+02,	 7.2969375735316760e+01,	 4.4035945835838760e+02,	 2.6070268215663536e+03,	 4.0269257129147729e+02,	 1.9727840229744518e+00 
3.6416250000000000e-01,	 3.5007339999999998e-01,	 4.2022785344750492e-02,	 3.0351784754252606e+02,	 2.3669355675678344e+02,	 7.5448156074293615e+02,	 9.1214399330997985e+03,	 5.2710152010872059e+02,	 7.3021718591422702e-01 
3.7041859999999999e-01,	 3.5145149999999997e-01,	 4.0618778634596085e-02,	 3.4396794517586795e+02,	 2.1821999528760213e+02,	 7.1819887109181354e+02,	 8.3926964577260733e+03,	 5.1427132884086984e+02,	 7.9209134079649823e-01 
3.7662190000000001e-01,	 3.5288770000000003e-01,	 4.1115528739364859e-02,	 3.4410524061957977e+02,	 2.2004354172961001e+02,	 7.1471517203610881e+02,	 8.4541279904316325e+03,	 5.1302254911885461e+02,	 7.9615470621817375e-01 
3.8277620000000001e-01,	 3.5438140000000001e-01,	 4.1216915306334603e-02,	 3.4381751969296795e+02,	 2.2046786407350325e+02,	 7.1414482424979701e+02,	 8.4682118901028971e+03,	 5.1281781044501213e+02,	 7.9644628023129482e-01 
3.8888509999999998e-01,	 3.5593200000000003e-01,	 4.1211588864754643e-02,	 3.4280878822948796e+02,	 2.2124882590016932e+02,	 7.1446765291796157e+02,	 8.4709451018319378e+03,	 5.1293370681498811e+02,	 7.9543615392497335e-01 
3.9495239999999998e-01,	 3.5753889999999999e-01,	 4.1141762307248850e-02,	 3.4197805617078518e+02,	 2.2223647943771977e+02,	 7.1469289555152136e+02,	 8.4592584374027047e+03,	 5.1301455402625857e+02,	 7.9499813284505605e-01 
4.0098170000000000e-01,	 3.5920140000000000e-01,	 4.1057071549042555e-02,	 3.4147749747938184e+02,	 2.2355354889705026e+02,	 7.1460235765938523e+02,	 8.4407755433763559e+03,	 5.1298205844127835e+02,	 7.9563385685921895e-01 
4.0697680000000003e-01,	 3.6091920000000000e-01,	 4.0958003484871164e-02,	 3.4137555993833479e+02,	 2.2514930336763678e+02,	 7.1426064097422477e+02,	 8.4163819299555980e+03,	 5.1285939197665425e+02,	 7.9736672619764803e-01 
4.1294130000000001e-01,	 3.6269170000000001e-01,	 4.0848748312084952e-02,	 3.4141800889913804e+02,	 2.2686949606979101e+02,	 7.1381039895823153e+02,	 8.3886400866122658e+03,	 5.1269772322852157e+02,	 7.9953929141650393e-01 
4.1887890000000000e-01,	 3.6451889999999998e-01,	 4.0747490956295609e-02,	 3.4157048123637077e+02,	 2.2853300608262916e+02,	 7.1327946293018283e+02,	 8.3616219729058394e+03,	 5.1250701409220801e+02,	 8.0188500239624227e-01 
0.0000000000000000e+00,	 3.4532370000000001e-01,	 1.1586407740522161e-02,	 1.0000000000000001e+03,	 4.0004087367541689e-14,	 2.9999999999999989e+02,	 9.9999999999999648e+02,	 3.3237670711487277e+02,	 3.0086344156914397e+00 
1.0880060000000000e-02,	 3.4528340000000002e-01,	 1.1586407740522203e-02,	 1.0000000000000000e+03,	 4.3642985345638588e-14,	 3.0000000000000011e+02,	 1.0000000000000008e+03,	 3.3237670711487289e+02,	 3.0086344156914384e+00 
2.1255389999999999e-02,	 3.4513590000000000e-01,	 1.1586407740522203e-02,	 1.0000000000000000e+03,	 3.3216805337657216e-14,	 3.0000000000000000e+02,	 1.0000000000000005e+03,	 3.3237670711487283e+02,	 3.0086344156914393e+00 
3.1311970000000001e-02,	 3.4492060000000002e-01,	 1.1586407740522203e-02,	 1.0000000000000000e+03,	 1.8536569370298647e-14,	 3.0000000000000000e+02,	 1.0000000000000005e+03,	 3.3237670711487283e+02,	 3.0086344156914393e+00 
4.1194920000000003e-02,	 3.4466809999999998e-01,	 1.1586407740522201e-02,	 1.0000000000000000e+03,	 2.2424867600496694e-14,	 3.0000000000000006e+02,	 1.0000000000000003e+03,	 3.3237670711487289e+02,	 3.0086344156914384e+00 
5.0954130000000000e-02,	 3.4439019999999998e-01,	 1.1586407740522199e-02,	 1.0000000000000000e+03,	 1.7201924034026950e-14,	 3.0000000000000000e+02,	 1.0000000000000000e+03,	 3.3237670711487283e+02,	 3.0086344156914393e+00 
6.0648779999999999e-02,	 3.4409509999999999e-01,	 1.1586407740522199e-02,	 1.0000000000000000e+03,	 1.9373378276282024e-14,	 3.0000000000000000e+02,	 1.0000000000000000e+03,	 3.3237670711487283e+02,	 3.0086344156914393e+00 
7.0303749999999998e-02,	 3.4379230000000000e-01,	 1.1586407740522199e-02,	 1.0000000000000000e+03,	 2.5312176995267649e-14,	 3.0000000000000006e+02,	 1.0000000000000002e+03,	 3.3237670711487289e+02,	 3.0086344156914384e+00 
7.9935210000000007e-02,	 3.4348689999999998e-01,	 1.1586407740522199e-02,	 1.0000000000000000e+03,	 1.4506688783877980e-14,	 3.0000000000000006e+02,	 1.0000000000000002e+03,	 3.3237670711487289e+02,	 3.0086344156914384e+00 
8.9545760000000002e-02,	 3.4318890000000002e-01,	 1.1586407740522199e-02,	 1.0000000000000000e+03,	 4.7951870995040290e-14,	 3.0000000000000000e+02,	 1.0000000000000000e+03,	 3.3237670711487283e+02,	 3.0086344156914393e+00 
9.9141149999999997e-02,	 3.4290070000000000e-01,	 1.1586407740522199e-02,	 1.0000000000000000e+03,	 5.9482475576719110e-14,	 3.0000000000000006e+02,	 1.0000000000000002e+03,	 3.3237670711487289e+02,	 3.0086344156914384e+00 
1.0872260000000000e-01,	 3.4262749999999997e-01,	 1.1586407740522199e-02,	 1.0000000000000000e+03,	 6.0632081870413182e-14,	 3.0000000000000000e+02,	 1.0000000000000000e+03,	 3.3237670711487283e+02,	 3.0086344156914393e+00 
1.1828930000000000e-01,	 3.4237289999999998e-01,	 1.1586407740522199e-02,	 1.0000000000000000e+03,	 7.7521743631722983e-14,	 3.0000000000000000e+02,	 1.0000000000000000e+03,	 3.3237670711487283e+02,	 3.0086344156914393e+00 
1.2783949999999999e-01,	 3.4214260000000002e-01,	 1.1586407740522199e-02,	 1.0000000000000000e+03,	 6.9699298891295563e-14,	 3.0000000000000000e+02,	 1.0000000000000000e+03,	 3.3237670711487283e+02,	 3.0086344156914393e+00 
1.3736979999999999e-01,	 3.4194010000000002e-01,	 1.1586407740522199e-02,	 1.0000000000000000e+03,	 5.0656778556799795e-14,	 3.0000000000000000e+02,	 1.0000000000000000e+03,	 3.3237670711487283e+02,	 3.0086344156914393e+00 
1.4687710000000001e-01,	 3.4177000000000002e-01,	 1.1586407740522199e-02,	 1.0000000000000000e+03,	 3.7685600447378177e-14,	 3.0000000000000000e+02,	 1.0000000000000000e+03,	 3.3237670711487283e+02,	 3.0086344156914393e+00 
1.5635720000000000e-01,	 3.4163650000000001e-01,	 1.1586407740522199e-02,	 1.0000000000000000e+03,	 2.3502140959637074e-14,	 3.0000000000000000e+02,	 1.0000000000000000e+03,	 3.3237670711487283e+02,	 3.0086344156914393e+00 
1.6580750000000000e-01,	 3.4154440000000003e-01,	 1.1586407740522199e-02,	 1.0000000000000000e+03,	 2.6746280013960989e-14,	 3.0000000000000000e+02,	 1.0000000000000000e+03,	 3.3237670711487283e+02,	 3.0086344156914393e+00 
1.7522370000000001e-01,	 3.4149659999999998e-01,	 1.1586407740522199e-02,	 1.0000000000000000e+03,	 2.4854428527117833e-14,	 3.0000000000000000e+02,	 1.0000000000000000e+03,	 3.3237670711487283e+02,	 3.0086344156914393e+00 
1.8460209999999999e-01,	 3.4149689999999999e-01,	 1.1586407740522199e-02,	 1.0000000000000000e+03,	 1.1784680900214101e-14,	 3.0000000000000000e+02,	 1.0000000000000000e+03,	 3.3237670711487283e+02,	 3.0086344156914393e+00 
1.9393879999999999e-01,	 3.4154849999999998e-01,	 1.1586407740522199e-02,	 1.0000000000000000e+03,	 2.6106946375860523e-15,	 2.9999999999999994e+02,	 9.9999999999999989e+02,	 3.3237670711487277e+02,	 3.0086344156914397e+00 
2.0322950000000001e-01,	 3.4165509999999999e-01,	 1.1586407740522199e-02,	 1.0000000000000000e+03,	 -4.6934492035456070e-15,	 3.0000000000000000e+02,	 1.0000000000000000e+03,	 3.3237670711487283e+02,	 3.0086344156914393e+00 
2.1247040000000000e-01,	 3.4181990000000001e-01,	 1.1586407740522199e-02,	 1.0000000000000000e+03,	 6.8968137876503465e-15,	 3.0000000000000000e+02,	 1.0000000000000000e+03,	 3.3237670711487283e+02,	 3.0086344156914393e+00 
2.2165660000000001e-01,	 3.4204610000000002e-01,	 1.1586407740522199e-02,	 1.0000000000000000e+03,	 1.7625942180715318e-15,	 2.9999999999999994e+02,	 9.9999999999999989e+02,	 3.3237670711487277e+02,	 3.0086344156914397e+00 
2.3078350000000000e-01,	 3.4233690000000000e-01,	 1.1586407740522199e-02,	 1.0000000000000000e+03,	 2.2265851946920380e-15,	 2.9999999999999994e+02,	 9.9999999999999989e+02,	 3.3237670711487277e+02,	 3.0086344156914397e+00 
2.3984649999999999e-01,	 3.4269519999999998e-01,	 1.1586407740522199e-02,	 1.0000000000000000e+03,	 -9.2287808697421094e-15,	 3.0000000000000000e+02,	 1.0000000000000000e+03,	 3.3237670711487283e+02,	 3.0086344156914393e+00 
2.4884049999999999e-01,	 3.4312389999999998e-01,	 1.1586407740522199e-02,	 1.0000000000000000e+03,	 -7.3169400542641933e-15,	 3.0000000000000000e+02,	 1.0000000000000000e+03,	 3.3237670711487283e+02,	 3.0086344156914393e+00 
2.5776110000000002e-01,	 3.4362559999999998e-01,	 1.1586407740522199e-02,	 1.0000000000000000e+03,	 4.0899210997549670e-15,	 3.0000000000000000e+02,	 1.0000000000000000e+03,	 3.3237670711487283e+02,	 3.0086344156914393e+00 
2.6660380000000000e-01,	 3.4420260000000003e-01,	 1.1586407740522199e-02,	 1.0000000000000000e+03,	 1.0755279748048468e-14,	 3.0000000000000000e+02,	 1.0000000000000000e+03,	 3.3237670711487283e+02,	 3.0086344156914393e+00 
2.7536519999999998e-01,	 3.4485670000000002e-01,	 1.1586407740522199e-02,	 1.0000000000000000e+03,	 -4.6163650720303211e-16,	 3.0000000000000000e+02,	 1.0000000000000000e+03,	 3.3237670711487283e+02,	 3.0086344156914393e+00 
2.8403960000000000e-01,	 3.4558980000000000e-01,	 1.1586407740522197e-02,	 1.0000000000000000e+03,	 -1.4281018479128144e-14,	 3.0000000000000000e+02,	 9.9999999999999989e+02,	 3.3237670711487283e+02,	 3.0086344156914393e+00 
2.9262450000000001e-01,	 3.4640310000000002e-01,	 1.1586407740522213e-02,	 1.0000000000000000e+03,	 8.6814514226425858e-15,	 3.0000000000000000e+02,	 1.0000000000000013e+03,	 3.3237670711487283e+02,	 3.0086344156914393e+00 
3.0111640000000001e-01,	 3.4729810000000000e-01,	 1.1586407740522242e-02,	 1.0000000000000002e+03,	 2.7518332520135183e-13,	 2.9999999999999989e+02,	 1.0000000000000034e+03,	 3.3237670711487277e+02,	 3.0086344156914402e+00 
3.0951479999999998e-01,	 3.4827530000000001e-01,	 1.1586407740522029e-02,	 9.9999999999999966e+02,	 -6.1614664668381509e-13,	 3.0000000000000000e+02,	 9.9999999999998533e+02,	 3.3237670711487283e+02,	 3.0086344156914380e+00 
3.1781090000000001e-01,	 3.4933660000000000e-01,	 1.1586407740523266e-02,	 1.0000000000000068e+03,	 1.8753351921526430e-12,	 2.9999999999999937e+02,	 1.0000000000000900e+03,	 3.3237670711487249e+02,	 3.0086344156914628e+00 
3.2452480000000000e-01,	 3.5027219999999998e-01,	 1.1586407740515585e-02,	 1.0000000000000427e+03,	 -2.3267825559874396e-10,	 2.9999999999991371e+02,	 9.9999999999914155e+02,	 3.3237670711482502e+02,	 3.0086344156920006e+00 
3.3116879999999999e-01,	 3.5127069999999999e-01,	 1.1586407743055627e-02,	 9.9999999993758513e+02,	 9.9903127783162456e-08,	 3.0000000005383362e+02,	 1.0000000003981006e+03,	 3.3237670714469459e+02,	 3.0086344152337126e+00 
3.3774460000000001e-01,	 3.5233120000000001e-01,	 1.1586407430689354e-02,	 1.0000000072755336e+03,	 -1.2896526127828719e-05,	 2.9999999332429690e+02,	 9.9999995100659521e+02,	 3.3237670341679245e+02,	 3.0086344710554442e+00 
3.4425299999999998e-01,	 3.5345270000000001e-01,	 1.1586488903830364e-02,	 9.9999751300960349e+02,	 3.1452827742618895e-03,	 3.0000194161669674e+02,	 1.0000134771460408e+03,	 3.3237778269340612e+02,	 3.0086171973082014e+00 
3.5069620000000001e-01,	 3.5463430000000001e-01,	 1.1553180061319340e-02,	 1.0005614411710192e+03,	 -1.4471105718384991e+00,	 2.9931399712475985e+02,	 9.9485206605825772e+02,	 3.3199647065980986e+02,	 3.0137744707313368e+00 
3.5707719999999998e-01,	 3.5587520000000000e-01,	 1.4146625761045133e-02,	 9.1450585169648161e+02,	 5.5021381200441425e+01,	 3.4880931366545394e+02,	 1.4196159652182776e+03,	 3.5839668986244698e+02,	 2.5562723296497794e+00 
3.6339939999999998e-01,	 3.5717450000000001e-01,	 3.3428534319395811e-02,	 4.8575630156301713e+02,	 2.0278858184840283e+02,	 6.3134800145656891e+02,	 6.0717807758943545e+03,	 4.8217463297954538e+02,	 1.0916919468443045e+00 
3.6966660000000001e-01,	 3.5853140000000000e-01,	 4.2939389018001123e-02,	 3.3281475446058124e+02,	 2.1967483703232983e+02,	 7.2029170038900281e+02,	 8.8980370281263549e+03,	 5.1502007630944888e+02,	 7.7429311139449941e-01 
3.7588240000000001e-01,	 3.5994540000000003e-01,	 4.1174435839000566e-02,	 3.4737292323311806e+02,	 2.2014028280236113e+02,	 7.1319058539907576e+02,	 8.4481807353144904e+03,	 5.1247508286504990e+02,	 8.0248546414080157e-01 
3.8205050000000002e-01,	 3.6141590000000001e-01,	 4.1234482433336585e-02,	 3.4576177452783554e+02,	 2.2087116403788767e+02,	 7.1361405657503713e+02,	 8.4655247018777372e+03,	 5.1262720645251500e+02,	 8.0036099577275754e-01 
3.8817439999999998e-01,	 3.6294199999999999e-01,	 4.1179161754078111e-02,	 3.4510631678899398e+02,	 2.2238202040010452e+02,	 7.1345554545093205e+02,	 8.4522893745908714e+03,	 5.1257026977449414e+02,	 8.0096532225182315e-01 
3.9425800000000000e-01,	 3.6452329999999999e-01,	 4.1122652599917153e-02,	 3.4466278295809258e+02,	 2.2378003244163352e+02,	 7.1322310145541041e+02,	 8.4379405260093808e+03,	 5.1248676521130903e+02,	 8.0185070642054801e-01 
4.0030490000000002e-01,	 3.6615920000000002e-01,	 4.1026440044569935e-02,	 3.4451987848477552e+02,	 2.2533389569559571e+02,	 7.1296716746060042e+02,	 8.4151779120945666e+03,	 5.1239480622006772e+02,	 8.0341662300025718e-01 
4.0631859999999997e-01,	 3.6784919999999999e-01,	 4.0908889746237916e-02,	 3.4463207016944671e+02,	 2.2699099380683518e+02,	 7.1267049425898597e+02,	 8.3875748572392131e+03,	 5.1228818867053599e+02,	 8.0554184227602010e-01 
4.1230280000000002e-01,	 3.6959280000000000e-01,	 4.0789275998874747e-02,	 3.4479079262395925e+02,	 2.2872789042184357e+02,	 7.1225604999507755e+02,	 8.3581869536980284e+03,	 5.1213920973904214e+02,	 8.0790486566092523e-01 
4.1826120000000000e-01,	 3.7138990000000000e-01,	 4.0680791184014714e-02,	 3.4501793622651655e+02,	 2.3037359679841276e+02,	 7.1172907583155052e+02,	 8.3297896874549715e+03,	 5.1194971744222391e+02,	 8.1035431747963749e-01 
0.0000000000000000e+00,	 3.5251800000000000e-01,	 1.1586407740522133e-02,	 1.0000000000000002e+03,	 1.3694077309866590e-15,	 2.9999999999999977e+02,	 9.9999999999999375e+02,	 3.3237670711487272e+02,	 3.0086344156914406e+00 
1.0855560000000000e-02,	 3.5247869999999998e-01,	 1.1586407740522209e-02,	 1.0000000000000000e+03,	 -4.1681959086158700e-14,	 3.0000000000000000e+02,	 1.0000000000000010e+03,	 3.3237670711487283e+02,	 3.0086344156914393e+00 
2.1203810000000000e-02,	 3.5233389999999998e-01,	 1.1586407740522206e-02,	 1.0000000000000000e+03,	 7.6390822449604906e-15,	 2.9999999999999989e+02,	 1.0000000000000003e+03,	 3.3237670711487277e+02,	 3.0086344156914397e+00 
3.1231670000000000e-02,	 3.5212240000000000e-01,	 1.1586407740522201e-02,	 1.0000000000000000e+03,	 9.3031615062377575e-15,	 3.0000000000000000e+02,	 1.0000000000000002e+03,	 3.3237670711487283e+02,	 3.0086344156914393e+00 
4.1085099999999999e-02,	 3.5187429999999997e-01,	 1.1586407740522199e-02,	 1.0000000000000000e+03,	 3.8725415066989754e-15,	 3.0000000000000000e+02,	 1.0000000000000000e+03,	 3.3237670711487283e+02,	 3.0086344156914393e+00 
5.0814249999999998e-02,	 3.5160130000000001e-01,	 1.1586407740522199e-02,	 1.0000000000000000e+03,	 -1.5607966620909376e-15,	 3.0000000000000000e+02,	 1.0000000000000000e+03,	 3.3237670711487283e+02,	 3.0086344156914393e+00 
6.0478469999999999e-02,	 3.5131150000000000e-01,	 1.1586407740522199e-02,	 1.0000000000000000e+03,	 1.1289890541849589e-14,	 3.0000000000000000e+02,	 1.0000000000000000e+03,	 3.3237670711487283e+02,	 3.0086344156914393e+00 
7.0102899999999996e-02,	 3.5101430000000000e-01,	 1.1586407740522199e-02,	 1.0000000000000000e+03,	 3.4633459540814854e-14,	 3.0000000000000000e+02,	 1.0000000000000000e+03,	 3.3237670711487283e+02,	 3.0086344156914393e+00 
7.9703800000000005e-02,	 3.5071449999999998e-01,	 1.1586407740522199e-02,	 1.0000000000000000e+03,	 2.1650520085628989e-14,	 3.0000000000000000e+02,	 1.0000000000000000e+03,	 3.3237670711487283e+02,	 3.0086344156914393e+00 
8.9284059999999998e-02,	 3.5042230000000002e-01,	 1.1586407740522199e-02,	 1.0000000000000000e+03,	 1.2672694126544484e-14,	 2.9999999999999994e+02,	 9.9999999999999989e+02,	 3.3237670711487277e+02,	 3.0086344156914397e+00 
9.8849309999999996e-02,	 3.5013990000000000e-01,	 1.1586407740522199e-02,	 1.0000000000000000e+03,	 2.8227832279605092e-14,	 2.9999999999999989e+02,	 9.9999999999999966e+02,	 3.3237670711487277e+02,	 3.0086344156914397e+00 
1.0840089999999999e-01,	 3.4987239999999997e-01,	 1.1586407740522199e-02,	 1.0000000000000000e+03,	 5.6815739470968402e-14,	 3.0000000000000000e+02,	 1.0000000000000000e+03,	 3.3237670711487283e+02,	 3.0086344156914393e+00 
1.1793790000000000e-01,	 3.4962330000000003e-01,	 1.1586407740522199e-02,	 1.0000000000000000e+03,	 6.0383409110440819e-14,	 2.9999999999999989e+02,	 9.9999999999999966e+02,	 3.3237670711487277e+02,	 3.0086344156914397e+00 
1.2745899999999999e-01,	 3.4939840000000000e-01,	 1.1586407740522199e-02,	 1.0000000000000000e+03,	 3.2290748505868931e-14,	 2.9999999999999994e+02,	 9.9999999999999989e+02,	 3.3237670711487277e+02,	 3.0086344156914397e+00 
1.3696050000000001e-01,	 3.4920089999999998e-01,	 1.1586407740522199e-02,	 1.0000000000000000e+03,	 5.0852618679026105e-14,	 3.0000000000000000e+02,	 1.0000000000000000e+03,	 3.3237670711487283e+02,	 3.0086344156914393e+00 
1.4643950000000000e-01,	 3.4903550000000000e-01,	 1.1586407740522199e-02,	 1.0000000000000000e+03,	 4.3980141910168015e-14,	 3.0000000000000000e+02,	 1.0000000000000000e+03,	 3.3237670711487283e+02,	 3.0086344156914393e+00 
1.5589190000000000e-01,	 3.4890630000000000e-01,	 1.1586407740522199e-02,	 1.0000000000000000e+03,	 3.1526820698886362e-14,	 3.0000000000000000e+02,	 1.0000000000000000e+03,	 3.3237670711487283e+02,	 3.0086344156914393e+00 
1.6531509999999999e-01,	 3.4881800000000002e-01,	 1.1586407740522199e-02,	 1.0000000000000000e+03,	 4.6269852194504955e-14,	 2.9999999999999994e+02,	 9.9999999999999989e+02,	 3.3237670711487277e+02,	 3.0086344156914397e+00 
1.7470500000000000e-01,	 3.4877360000000002e-01,	 1.1586407740522199e-02,	 1.0000000000000000e+03,	 4.8055165427996186e-14,	 3.0000000000000000e+02,	 1.0000000000000000e+03,	 3.3237670711487283e+02,	 3.0086344156914393e+00 
1.8405790000000000e-01,	 3.4877670000000000e-01,	 1.1586407740522199e-02,	 1.0000000000000000e+03,	 4.2475210041483611e-14,	 3.0000000000000006e+02,	 1.0000000000000002e+03,	 3.3237670711487289e+02,	 3.0086344156914384e+00 
1.9336999999999999e-01,	 3.4883039999999998e-01,	 1.1586407740522199e-02,	 1.0000000000000000e+03,	 1.8234211623848676e-14,	 3.0000000000000000e+02,	 1.0000000000000000e+03,	 3.3237670711487283e+02,	 3.0086344156914393e+00 
2.0263719999999999e-01,	 3.4893839999999998e-01,	 1.1586407740522199e-02,	 1.0000000000000000e+03,	 2.1466755743903558e-14,	 3.0000000000000000e+02,	 1.0000000000000000e+03,	 3.3237670711487283e+02,	 3.0086344156914393e+00 
2.1185540000000000e-01,	 3.4910380000000002e-01,	 1.1586407740522199e-02,	 1.0000000000000000e+03,	 3.2859639599305727e-14,	 2.9999999999999994e+02,	 9.9999999999999989e+02,	 3.3237670711487277e+02,	 3.0086344156914397e+00 
2.2102030000000000e-01,	 3.4932980000000002e-01,	 1.1586407740522199e-02,	 1.0000000000000000e+03,	 2.4408011250979137e-14,	 3.0000000000000000e+02,	 1.0000000000000000e+03,	 3.3237670711487283e+02,	 3.0086344156914393e+00 
2.3012700000000000e-01,	 3.4961930000000002e-01,	 1.1586407740522199e-02,	 1.0000000000000000e+03,	 -2.6133821091356931e-15,	 3.0000000000000006e+02,	 1.0000000000000002e+03,	 3.3237670711487289e+02,	 3.0086344156914384e+00 
2.3917140000000001e-01,	 3.4997539999999999e-01,	 1.1586407740522199e-02,	 1.0000000000000000e+03,	 1.9985692409329801e-15,	 3.0000000000000000e+02,	 1.0000000000000000e+03,	 3.3237670711487283e+02,	 3.0086344156914393e+00 
2.4814820000000001e-01,	 3.5040090000000002e-01,	 1.1586407740522199e-02,	 1.0000000000000000e+03,	 1.1687108748416149e-14,	 3.0000000000000000e+02,	 1.0000000000000000e+03,	 3.3237670711487283e+02,	 3.0086344156914393e+00 
2.5705329999999998e-01,	 3.5089809999999999e-01,	 1.1586407740522199e-02,	 1.0000000000000000e+03,	 9.9338208667605238e-15,	 3.0000000000000000e+02,	 1.0000000000000000e+03,	 3.3237670711487283e+02,	 3.0086344156914393e+00 
2.6588220000000001e-01,	 3.5146929999999998e-01,	 1.1586407740522199e-02,	 1.0000000000000000e+03,	 1.0746844949947228e-14,	 3.0000000000000000e+02,	 1.0000000000000000e+03,	 3.3237670711487283e+02,	 3.0086344156914393e+00 
2.7463159999999998e-01,	 3.5211619999999999e-01,	 1.1586407740522199e-02,	 1.0000000000000000e+03,	 2.8452962037301172e-15,	 3.0000000000000000e+02,	 1.0000000000000000e+03,	 3.3237670711487283e+02,	 3.0086344156914393e+00 
2.8329589999999999e-01,	 3.5284060000000000e-01,	 1.1586407740522199e-02,	 1.0000000000000000e+03,	 -7.1146428041417590e-15,	 3.0000000000000000e+02,	 1.0000000000000000e+03,	 3.3237670711487283e+02,	 3.0086344156914393e+00 