TITLE = "Final State"
VARIABLES = "X", "Y", "rho", "u", "v", "T", "p", "c", "M"
ZONE I=51, J=48, DATAPACKING=POINT
2.2759469999999999e+00,	 2.0000000000000001e-01,	 1.6634268304073736e-02,	 4.5369103512106221e+02,	 -7.8339052667397685e-02,	 7.0872560091926948e+02,	 3.3916557123584880e+03,	 5.1086836935436980e+02,	 8.8807816083398061e-01 
2.2834120000000002e+00,	 2.0000000000000001e-01,	 1.6606605417444596e-02,	 4.5510136490398315e+02,	 -7.8740015636850499e-02,	 7.0809002587136183e+02,	 3.3829788383699865e+03,	 5.1063924822760885e+02,	 8.9123852758138900e-01 
2.2908759999999999e+00,	 2.0000000000000001e-01,	 1.6551992814520904e-02,	 4.5726472812683090e+02,	 -7.3346675954998192e-02,	 7.0710837326700675e+02,	 3.3671790185866994e+03,	 5.1028516599036624e+02,	 8.9609646622175265e-01 
2.2983410000000002e+00,	 2.0000000000000001e-01,	 1.6497341807788928e-02,	 4.5939626600218321e+02,	 -7.2707389595782296e-02,	 7.0612623842132416e+02,	 3.3513999551799584e+03,	 5.0993066376221140e+02,	 9.0089948379728457e-01 
2.3058049999999999e+00,	 2.0000000000000001e-01,	 1.6442651851351173e-02,	 4.6151413361393929e+02,	 -7.4695036705536108e-02,	 7.0514496814210270e+02,	 3.3356479637033003e+03,	 5.0957622730523315e+02,	 9.0568224129911745e-01 
2.3132700000000002e+00,	 2.0000000000000001e-01,	 1.6388448356055921e-02,	 4.6362551130638440e+02,	 -7.4012595174008461e-02,	 7.0417370371895788e+02,	 3.3200725757100636e+03,	 5.0922516204193369e+02,	 9.1045288366140220e-01 
2.3207339999999999e+00,	 2.0000000000000001e-01,	 1.6334976958474984e-02,	 4.6574413299544705e+02,	 -7.2253071710253580e-02,	 7.0321537749709364e+02,	 3.3047363904073441e+03,	 5.0887853593957516e+02,	 9.1523635937993064e-01 
2.3281980000000000e+00,	 2.0000000000000001e-01,	 1.6282322610000392e-02,	 4.6787308802734776e+02,	 -7.0118704026387368e-02,	 7.0227360809405013e+02,	 3.2896723193692092e+03,	 5.0853766825272601e+02,	 9.2003625786294385e-01 
2.3356629999999998e+00,	 2.0000000000000001e-01,	 1.6230062613267641e-02,	 4.7000974952490424e+02,	 -6.9084438282712102e-02,	 7.0134120265490913e+02,	 3.2747600715343556e+03,	 5.0819996456210504e+02,	 9.2485200192228356e-01 
2.3431270000000000e+00,	 2.0000000000000001e-01,	 1.6177779396498670e-02,	 4.7213978066509708e+02,	 -6.8983325848163413e-02,	 7.0041128764814096e+02,	 3.2598827730300782e+03,	 5.0786293921257561e+02,	 9.2965985357513281e-01 
2.3505919999999998e+00,	 2.0000000000000001e-01,	 1.6124885864715208e-02,	 4.7425450111411101e+02,	 -7.0530351336669378e-02,	 6.9947163846888930e+02,	 3.2448654747031601e+03,	 5.0752215861461752e+02,	 9.3445083787723049e-01 
2.3580559999999999e+00,	 2.0000000000000001e-01,	 1.6071285859378656e-02,	 4.7634907862891009e+02,	 -7.2419875875460477e-02,	 6.9851978352416575e+02,	 3.2296783641824450e+03,	 5.0717671792028301e+02,	 9.3921717480891631e-01 
2.3655210000000002e+00,	 2.0000000000000001e-01,	 1.6017031727701112e-02,	 4.7842437146379206e+02,	 -7.0997390130845911e-02,	 6.9755675795590059e+02,	 3.2143378615894248e+03,	 5.0682698365497475e+02,	 9.4395995509471542e-01 
2.3729849999999999e+00,	 2.0000000000000001e-01,	 1.5962521297591792e-02,	 4.8048191175261525e+02,	 -6.9264012630151223e-02,	 6.9659025402010252e+02,	 3.1989600845256218e+03,	 5.0647574336859088e+02,	 9.4867705519181922e-01 
2.3804500000000002e+00,	 2.0000000000000001e-01,	 1.5908012599969025e-02,	 4.8253730266678326e+02,	 -6.9354633009990146e-02,	 6.9562412467645663e+02,	 3.1836146825425958e+03,	 5.0612439560190023e+02,	 9.5339665869508550e-01 
2.3879139999999999e+00,	 2.0000000000000001e-01,	 1.5853870465024830e-02,	 4.8459512642281754e+02,	 -6.8038646881829090e-02,	 6.9466693469893596e+02,	 3.1684136117919929e+03,	 5.0577605807906320e+02,	 9.5812192660863948e-01 
2.3953790000000001e+00,	 2.0000000000000001e-01,	 1.5800196076740318e-02,	 4.8666212395629759e+02,	 -6.5231565089624188e-02,	 6.9371976356206869e+02,	 3.1533812527173650e+03,	 5.0543113026650411e+02,	 9.6286536223336205e-01 
2.4028429999999998e+00,	 2.0000000000000001e-01,	 1.5747260692309396e-02,	 4.8873890852216300e+02,	 -6.1724901466377463e-02,	 6.9278729535823663e+02,	 3.1385920435521202e+03,	 5.0509132667126164e+02,	 9.6762483656348286e-01 
2.4103080000000001e+00,	 2.0000000000000001e-01,	 1.5694790160129125e-02,	 4.9082467465326499e+02,	 -6.0273487351504604e-02,	 6.9186384782581149e+02,	 3.1239644918958643e+03,	 5.0475458487769390e+02,	 9.7240261516990723e-01 
2.4177719999999998e+00,	 2.0000000000000001e-01,	 1.5642235686303324e-02,	 4.9290406981898445e+02,	 -6.2279308109852410e-02,	 6.9093979917550996e+02,	 3.1093454289406027e+03,	 5.0441739885868810e+02,	 9.7717500401214696e-01 
2.4252359999999999e+00,	 2.0000000000000001e-01,	 1.5588773966643526e-02,	 4.9496200132570874e+02,	 -6.2738134578486426e-02,	 6.8999910896885604e+02,	 3.0944995744977268e+03,	 5.0407390864311054e+02,	 9.8192347751980935e-01 
2.4327009999999998e+00,	 2.0000000000000001e-01,	 1.5534405564667123e-02,	 4.9699089905629967e+02,	 -6.2646054627944245e-02,	 6.8904015266971805e+02,	 3.0794212844406402e+03,	 5.0372350752538892e+02,	 9.8663432533876705e-01 
2.4401649999999999e+00,	 2.0000000000000001e-01,	 1.5478941742923098e-02,	 4.9899236217745874e+02,	 -6.2361740412971475e-02,	 6.8805929454501779e+02,	 3.0640586149033861e+03,	 5.0336485117482397e+02,	 9.9131348744291492e-01 
2.4476300000000002e+00,	 2.0000000000000001e-01,	 1.5422339725956583e-02,	 5.0096650143636037e+02,	 -6.2738086646587587e-02,	 6.8705738505842839e+02,	 3.0484088600185028e+03,	 5.0299823324704914e+02,	 9.9596076537068645e-01 
2.4550939999999999e+00,	 2.0000000000000001e-01,	 1.5364108183913839e-02,	 5.0293245546666185e+02,	 -6.3624190393802571e-02,	 6.8602547152246927e+02,	 3.0323374875799873e+03,	 5.0262035671303568e+02,	 1.0006209513281592e+00 
2.4625590000000002e+00,	 2.0000000000000001e-01,	 1.5305635472057381e-02,	 5.0485863348279781e+02,	 -6.5083206424561252e-02,	 6.8498383789329478e+02,	 3.0162103624170391e+03,	 5.0223863243897836e+02,	 1.0052166541354164e+00 
2.4700229999999999e+00,	 2.0000000000000001e-01,	 1.5246631786522181e-02,	 5.0674509231055288e+02,	 -6.6938699533030610e-02,	 6.8393135167100081e+02,	 2.9999662016947077e+03,	 5.0185263614412384e+02,	 1.0097487992195608e+00 
2.4774880000000001e+00,	 2.0000000000000001e-01,	 1.5186737175541466e-02,	 5.0861566379863564e+02,	 -6.9879955002849256e-02,	 6.8286345534474174e+02,	 2.9835154131604013e+03,	 5.0146068456248020e+02,	 1.0142682851455989e+00 
2.4849519999999998e+00,	 2.0000000000000001e-01,	 1.5126366403372497e-02,	 5.1047763010879669e+02,	 -7.3192728054339684e-02,	 6.8178761628690154e+02,	 2.9669734641362343e+03,	 5.0106550772051247e+02,	 1.0187842257957871e+00 
2.4924170000000001e+00,	 2.0000000000000001e-01,	 1.5066264489083513e-02,	 5.1234858801929624e+02,	 -7.1336992916424646e-02,	 6.8071671400470132e+02,	 2.9505429364633592e+03,	 5.0067183448668709e+02,	 1.0233221797085776e+00 
2.4998809999999998e+00,	 2.0000000000000001e-01,	 1.5006951325353755e-02,	 5.1425010212915117e+02,	 -6.1084491246798822e-02,	 6.7965935168921214e+02,	 2.9343621241492751e+03,	 5.0028283473386682e+02,	 1.0279187492623709e+00 
2.5073460000000001e+00,	 2.0000000000000001e-01,	 1.4948722633219134e-02,	 5.1619674796855827e+02,	 -4.2008731997230889e-02,	 6.7861966881665148e+02,	 2.9185051512580781e+03,	 4.9990004403140534e+02,	 1.0325999284078689e+00 
2.5148100000000002e+00,	 2.0000000000000001e-01,	 1.4891243150966710e-02,	 5.1816767730463323e+02,	 -1.9727259016784550e-02,	 6.7759109637352390e+02,	 2.9028766577176398e+03,	 4.9952105531664336e+02,	 1.0373290017808958e+00 
2.5222739999999999e+00,	 2.0000000000000001e-01,	 1.4833727011492640e-02,	 5.2011741610973399e+02,	 -6.4336903325534628e-03,	 6.7656054976320024e+02,	 2.8872666221452964e+03,	 4.9914105061034923e+02,	 1.0420249256468213e+00 
2.5297390000000002e+00,	 2.0000000000000001e-01,	 1.4775925075043744e-02,	 5.2203190638216483e+02,	 -1.9745687689202984e-03,	 6.7552434642918627e+02,	 2.8716111017729713e+03,	 4.9875866812449152e+02,	 1.0466623233816132e+00 
2.5372029999999999e+00,	 2.0000000000000001e-01,	 1.4718284109696817e-02,	 5.2392711647880424e+02,	 2.3334248362901341e-03,	 6.7449121847258812e+02,	 2.8560343019448273e+03,	 4.9837712844244345e+02,	 1.0512663735621401e+00 
2.5446680000000002e+00,	 2.0000000000000001e-01,	 1.4661221303865423e-02,	 5.2581310824047853e+02,	 7.6417995747711607e-03,	 6.7346937663988047e+02,	 2.8406513889433709e+03,	 4.9799946924431464e+02,	 1.0558507403509882e+00 
2.5521319999999998e+00,	 2.0000000000000001e-01,	 1.4605015705736257e-02,	 5.2770091348668052e+02,	 1.2606603120889133e-02,	 6.7246457181835149e+02,	 2.8255394461359838e+03,	 4.9762782721519972e+02,	 1.0604328873454647e+00 
2.5595970000000001e+00,	 2.0000000000000001e-01,	 1.4549846362353520e-02,	 5.2959810234745055e+02,	 1.6183474107526075e-02,	 6.7148047710347441e+02,	 2.8107468670685280e+03,	 4.9726357590012282e+02,	 1.0650249249325467e+00 
2.5670609999999998e+00,	 2.0000000000000001e-01,	 1.4495748364007226e-02,	 5.3151298367228355e+02,	 1.8344891786600905e-02,	 6.7051770712743314e+02,	 2.7962811177263993e+03,	 4.9690695929782072e+02,	 1.0696428658192809e+00 
2.5745260000000001e+00,	 2.0000000000000001e-01,	 1.4442711071270591e-02,	 5.3344723649487901e+02,	 2.0046868566670602e-02,	 6.6957577616509275e+02,	 2.7821362444814540e+03,	 4.9655781375052322e+02,	 1.0742902882595029e+00 
2.5819899999999998e+00,	 2.0000000000000001e-01,	 1.4390737038134642e-02,	 5.3540259801685454e+02,	 2.2336873632256435e-02,	 6.6865448585392414e+02,	 2.7683101011655058e+03,	 4.9621608142495222e+02,	 1.0789706712956935e+00 
2.5894550000000001e+00,	 2.0000000000000001e-01,	 1.4339737182912225e-02,	 5.3737321495395963e+02,	 2.4896514218818756e-02,	 6.6775225765020650e+02,	 2.7547772908973220e+03,	 4.9588119152454237e+02,	 1.0836733167446457e+00 
2.5969190000000002e+00,	 2.0000000000000001e-01,	 1.4289215707929008e-02,	 5.3934588897286676e+02,	 2.5643062446261432e-02,	 6.6686044593702240e+02,	 2.7414055539559831e+03,	 4.9554994561431005e+02,	 1.0883784658958269e+00 
2.6043840000000000e+00,	 2.0000000000000001e-01,	 1.4238317102218789e-02,	 5.4129426444633691e+02,	 2.4030176814082274e-02,	 6.6596417681526532e+02,	 2.7279692264039286e+03,	 4.9521682085622871e+02,	 1.0930449899578074e+00 
2.6118480000000002e+00,	 2.0000000000000001e-01,	 1.4186498798280128e-02,	 5.4320310287875759e+02,	 2.4171455854537990e-02,	 6.6505451983495834e+02,	 2.7143285355627627e+03,	 4.9487849081666332e+02,	 1.0976494503128200e+00 
2.6193119999999999e+00,	 2.0000000000000001e-01,	 1.4133889896471663e-02,	 5.4507321877474192e+02,	 2.3802752350641034e-02,	 6.6413468621438687e+02,	 2.7005225265096815e+03,	 4.9453614040210238e+02,	 1.1021908709265786e+00 
2.6267770000000001e+00,	 2.0000000000000001e-01,	 1.4080713580816612e-02,	 5.4691331952282121e+02,	 2.4171403398201202e-02,	 6.6320928665328120e+02,	 2.6866135500140995e+03,	 4.9419147909537941e+02,	 1.1066830230624161e+00 
2.6342409999999998e+00,	 2.0000000000000001e-01,	 1.4027223518739071e-02,	 5.4872849330089662e+02,	 2.3660794856734002e-02,	 6.6228323208392567e+02,	 2.6726704650264246e+03,	 4.9384633303482542e+02,	 1.1111320609366955e+00 
2.6417060000000001e+00,	 2.0000000000000001e-01,	 1.3974316634083573e-02,	 5.5050044274151344e+02,	 1.6964714691811544e-02,	 6.6137336410078456e+02,	 2.6589319169707433e+03,	 4.9350698471722546e+02,	 1.1154866294716064e+00 
2.6491699999999998e+00,	 2.0000000000000001e-01,	 1.3941720583123368e-02,	 5.5150916305472094e+02,	 3.5825571337594689e-02,	 6.6084314018828479e+02,	 2.6506030790879249e+03,	 4.9330912244709180e+02,	 1.1179788475885539e+00 
2.2759469999999999e+00,	 2.0599709999999999e-01,	 1.6926183314522145e-02,	 4.7930402181678210e+02,	 -4.7969890164278306e-01,	 6.9662723551261217e+02,	 3.3922623112185406e+03,	 5.0648918741278652e+02,	 9.4632674058082988e-01 
2.2834120000000002e+00,	 2.0599360000000000e-01,	 1.6899778531113116e-02,	 4.8045338070841211e+02,	 -4.7868783375637425e-01,	 6.9610080475594009e+02,	 3.3844109118082870e+03,	 5.0629777810234265e+02,	 9.4895462700533872e-01 
2.2908759999999999e+00,	 2.0599000000000001e-01,	 1.6844010727174140e-02,	 4.8247848115170012e+02,	 -4.6244804156846070e-01,	 6.9514397787814175e+02,	 3.3686059511954186e+03,	 5.0594969208862244e+02,	 9.5361003340966155e-01 
2.2983410000000002e+00,	 2.0598639999999999e-01,	 1.6788404923729315e-02,	 4.8446712023098161e+02,	 -4.4720333531845508e-01,	 6.9418679694768025e+02,	 3.3528623368756225e+03,	 5.0560123749723624e+02,	 9.5820043683431733e-01 
2.3058049999999999e+00,	 2.0598279999999999e-01,	 1.6732749330988131e-02,	 4.8644473309305698e+02,	 -4.2858634850789523e-01,	 6.9322714529445000e+02,	 3.3371275237392165e+03,	 5.0525164220931453e+02,	 9.6277751769554010e-01 
2.3132700000000002e+00,	 2.0597920000000000e-01,	 1.6677598813908845e-02,	 4.8841610042160545e+02,	 -4.0250734990823450e-01,	 6.9227450680340428e+02,	 3.3215576826815618e+03,	 5.0490436236154449e+02,	 9.6734412036332018e-01 
2.3207339999999999e+00,	 2.0597570000000001e-01,	 1.6623185351749628e-02,	 4.9039336462539688e+02,	 -3.7339134653824602e-01,	 6.9133208731190757e+02,	 3.3062135346762930e+03,	 5.0456057260761980e+02,	 9.7192197210987330e-01 
2.3281990000000001e+00,	 2.0597209999999999e-01,	 1.6569539177961157e-02,	 4.9238064019716660e+02,	 -3.4625317730751615e-01,	 6.9040198762066086e+02,	 3.2911100197788624e+03,	 5.0422104722554724e+02,	 9.7651766948836760e-01 
2.3356629999999998e+00,	 2.0596850000000000e-01,	 1.6516344909971330e-02,	 4.9437722107759441e+02,	 -3.2523129696653247e-01,	 6.8947876438643493e+02,	 3.2761575274909078e+03,	 5.0388380579158883e+02,	 9.8113359146233536e-01 
2.3431270000000000e+00,	 2.0596490000000001e-01,	 1.6463224769273407e-02,	 4.9637199486283089e+02,	 -3.1044179062093458e-01,	 6.8855605204205744e+02,	 3.2612503964065863e+03,	 5.0354652530501733e+02,	 9.8575219368390621e-01 
2.3505919999999998e+00,	 2.0596130000000001e-01,	 1.6409702432009156e-02,	 4.9835511670027546e+02,	 -2.9913932345694605e-01,	 6.8762376248710689e+02,	 3.2462466884446703e+03,	 5.0320551444696514e+02,	 9.9036117882702590e-01 
2.3580559999999999e+00,	 2.0595769999999999e-01,	 1.6355643347621299e-02,	 5.0031605700525540e+02,	 -2.8358383102670409e-01,	 6.8667969213267747e+02,	 3.2311102198647704e+03,	 5.0285995877774803e+02,	 9.9494129258234187e-01 
2.3655210000000002e+00,	 2.0595410000000000e-01,	 1.6300987112863607e-02,	 5.0225923169603703e+02,	 -2.6008442744146687e-01,	 6.8572434260151283e+02,	 3.2158324138810653e+03,	 5.0251003272023445e+02,	 9.9950103745549723e-01 
2.3729849999999999e+00,	 2.0595040000000001e-01,	 1.6245997732895902e-02,	 5.0419330269707126e+02,	 -2.3415589578375445e-01,	 6.8476339591314104e+02,	 3.2004928610351153e+03,	 5.0215781054106941e+02,	 1.0040535992595325e+00 
2.3804500000000002e+00,	 2.0594680000000001e-01,	 1.6190935793706611e-02,	 5.0612471876821928e+02,	 -2.0622040589443189e-01,	 6.8380143394159325e+02,	 3.1851647092399730e+03,	 5.0180496860307449e+02,	 1.0086085081807741e+00 
2.3879139999999999e+00,	 2.0594319999999999e-01,	 1.6136131851162090e-02,	 5.0805643675423522e+02,	 -1.7442944749351180e-01,	 6.8284565836044487e+02,	 3.1699464361048285e+03,	 5.0145414991341704e+02,	 1.0131663418980958e+00 
2.3953790000000001e+00,	 2.0593950000000000e-01,	 1.6081768037162249e-02,	 5.0999609091681350e+02,	 -1.4191760006655579e-01,	 6.8189795407641896e+02,	 3.1548819870256712e+03,	 5.0110605130223098e+02,	 1.0177408740870764e+00 
2.4028429999999998e+00,	 2.0593590000000001e-01,	 1.6028037067569560e-02,	 5.1194630887364508e+02,	 -1.1332705587836903e-01,	 6.8096034268449375e+02,	 3.1400176996245382e+03,	 5.0076142175808639e+02,	 1.0223357854117814e+00 
2.4103080000000001e+00,	 2.0593220000000001e-01,	 1.5974745968272839e-02,	 5.1390527135954562e+02,	 -9.5695992622711834e-02,	 6.8002877238833821e+02,	 3.1252962187256057e+03,	 5.0041877763486514e+02,	 1.0269504327922201e+00 
2.4177719999999998e+00,	 2.0592859999999999e-01,	 1.5921477434727604e-02,	 5.1586255310489571e+02,	 -9.3420011031199457e-02,	 6.7909568401915897e+02,	 3.1106007577359901e+03,	 5.0007533979515586e+02,	 1.0315696866299076e+00 
2.4252370000000001e+00,	 2.0592489999999999e-01,	 1.5867508141626113e-02,	 5.1780348234935900e+02,	 -9.6352701662023768e-02,	 6.7814928253930452e+02,	 3.0957364016276038e+03,	 4.9972676075237018e+02,	 1.0361732290150172e+00 
2.4327009999999998e+00,	 2.0592120000000000e-01,	 1.5812570748264469e-02,	 5.1971839631552621e+02,	 -9.9846136553512460e-02,	 6.7718475552489963e+02,	 3.0806303662562241e+03,	 4.9937125534871518e+02,	 1.0407455381940529e+00 
2.4401649999999999e+00,	 2.0591750000000000e-01,	 1.5756518374866180e-02,	 5.2160761697308112e+02,	 -1.0479961979784150e-01,	 6.7619995232276119e+02,	 3.0652459941183411e+03,	 4.9900801523410968e+02,	 1.0452890766821841e+00 
2.4476300000000002e+00,	 2.0591380000000001e-01,	 1.5699256212494045e-02,	 5.2347266372585284e+02,	 -1.1196696064153358e-01,	 6.7519486456745585e+02,	 3.0495667594861070e+03,	 4.9863702041616131e+02,	 1.0498070826418366e+00 
2.4550939999999999e+00,	 2.0591010000000001e-01,	 1.5640403465789064e-02,	 5.2532844332502020e+02,	 -1.2106250810864069e-01,	 6.7416459333752732e+02,	 3.0334988140949922e+03,	 4.9825644324727284e+02,	 1.0543334951191086e+00 
2.4625590000000002e+00,	 2.0590639999999999e-01,	 1.5580917711206056e-02,	 5.2715195682937372e+02,	 -1.2773335528642102e-01,	 6.7312526461729726e+02,	 3.0173025704523266e+03,	 4.9787222552218230e+02,	 1.0588097613838876e+00 
2.4700229999999999e+00,	 2.0590259999999999e-01,	 1.5521052223592853e-02,	 5.2893359314294332e+02,	 -1.3013741977642868e-01,	 6.7208255495782885e+02,	 3.0010533801554934e+03,	 4.9748645974809187e+02,	 1.0632120709779878e+00 
2.4774880000000001e+00,	 2.0589879999999999e-01,	 1.5460380719447588e-02,	 5.3069694311050546e+02,	 -1.3231874039256675e-01,	 6.7102735066646062e+02,	 2.9846289280794153e+03,	 4.9709576662947870e+02,	 1.0675950093165780e+00 
2.4849519999999998e+00,	 2.0589489999999999e-01,	 1.5399289318461270e-02,	 5.3244882551908120e+02,	 -1.2663197165736348e-01,	 6.6996557160080374e+02,	 2.9681312510136327e+03,	 4.9670232899036853e+02,	 1.0719676746025626e+00 
2.4924170000000001e+00,	 2.0589109999999999e-01,	 1.5338391924082945e-02,	 5.3420791280318554e+02,	 -1.1578956728411079e-01,	 6.6890678230275603e+02,	 2.9517214243358135e+03,	 4.9630968862461719e+02,	 1.0763600582376038e+00 
2.4998809999999998e+00,	 2.0588730000000000e-01,	 1.5278174833139748e-02,	 5.3598748625316659e+02,	 -1.0943859848894706e-01,	 6.6785990363781855e+02,	 2.9355317599535751e+03,	 4.9592115954327733e+02,	 1.0807917490744776e+00 
2.5073460000000001e+00,	 2.0588350000000000e-01,	 1.5218808588448086e-02,	 5.3779244803156541e+02,	 -1.0418606429644382e-01,	 6.6682917061007242e+02,	 2.9196122836288455e+03,	 4.9553832499084598e+02,	 1.0852691527611671e+00 
2.5148100000000002e+00,	 2.0587980000000000e-01,	 1.5160004597725917e-02,	 5.3960893917234421e+02,	 -8.4036187460659342e-02,	 6.6581046455542014e+02,	 2.9038881679068995e+03,	 4.9515966666370537e+02,	 1.0897675680085828e+00 
2.5222750000000000e+00,	 2.0587600000000000e-01,	 1.5101288559029456e-02,	 5.4141829264775834e+02,	 -4.5430211628306613e-02,	 6.6479442470500840e+02,	 2.8882269249548108e+03,	 4.9478171072662178e+02,	 1.0942568870596767e+00 
2.5297390000000002e+00,	 2.0587230000000001e-01,	 1.5042536247532230e-02,	 5.4321208320302230e+02,	 -1.0271075161042992e-03,	 6.6377742120412381e+02,	 2.8725889111817969e+03,	 4.9440310697512194e+02,	 1.0987230370122398e+00 
2.5372029999999999e+00,	 2.0586850000000001e-01,	 1.4983928541353296e-02,	 5.4499472881723989e+02,	 4.6225425994235646e-02,	 6.6276370943981863e+02,	 2.8570270396281030e+03,	 4.9402543990951563e+02,	 1.1031713890633577e+00 
2.5446680000000002e+00,	 2.0586479999999999e-01,	 1.4925829197090904e-02,	 5.4677291361610332e+02,	 9.7294745250980044e-02,	 6.6175895451919189e+02,	 2.8416345963308145e+03,	 4.9365082467770549e+02,	 1.1076106732518258e+00 
2.5521319999999998e+00,	 2.0586109999999999e-01,	 1.4868516091000310e-02,	 5.4855599445504288e+02,	 1.4535204778577265e-01,	 6.6076784126833093e+02,	 2.8264835545053134e+03,	 4.9328101691035164e+02,	 1.1120557955950230e+00 
2.5595970000000001e+00,	 2.0585729999999999e-01,	 1.4812254126201133e-02,	 5.5035132766940910e+02,	 1.8531854684997623e-01,	 6.5979412097542388e+02,	 2.8116388357026703e+03,	 4.9291742868151977e+02,	 1.1165183595606700e+00 
2.5670609999999998e+00,	 2.0585360000000000e-01,	 1.4757162839790458e-02,	 5.5216665221052006e+02,	 2.1648454205400325e-01,	 6.5883867558429085e+02,	 2.7971251137501863e+03,	 4.9256040344340698e+02,	 1.1210131605957103e+00 
2.5745260000000001e+00,	 2.0584990000000000e-01,	 1.4703290213502175e-02,	 5.5400245629499307e+02,	 2.4215055184587198e-01,	 6.5790248921830960e+02,	 2.7829537989100995e+03,	 4.9221032361396067e+02,	 1.1255402063664137e+00 
2.5819899999999998e+00,	 2.0584620000000001e-01,	 1.4650586826033382e-02,	 5.5585850840149874e+02,	 2.6581823944481714e-01,	 6.5698456077921992e+02,	 2.7691094503767108e+03,	 4.9186682927543387e+02,	 1.1300997320333033e+00 
2.5894550000000001e+00,	 2.0584250000000001e-01,	 1.4598850725801735e-02,	 5.5772680644245270e+02,	 2.8602696868063704e-01,	 6.5608164266482993e+02,	 2.7555385527890303e+03,	 4.9152871770283673e+02,	 1.1346781168608571e+00 
2.5969190000000002e+00,	 2.0583879999999999e-01,	 1.4547545880477370e-02,	 5.5959322903219186e+02,	 2.9696376894954785e-01,	 6.5518502179208087e+02,	 2.7421021764399161e+03,	 4.9119273391994125e+02,	 1.1392540426289177e+00 
2.6043840000000000e+00,	 2.0583509999999999e-01,	 1.4495986000804343e-02,	 5.6143587984391638e+02,	 2.9770340242911386e-01,	 6.5428411294442367e+02,	 2.7286263796327689e+03,	 4.9085491170863713e+02,	 1.1437920766010818e+00 
2.6118480000000002e+00,	 2.0583129999999999e-01,	 1.4443665499075449e-02,	 5.6324125344057256e+02,	 2.9638980447491436e-01,	 6.5337127943461883e+02,	 2.7149847816510728e+03,	 4.9051238069309375e+02,	 1.1482713863982188e+00 
2.6193119999999999e+00,	 2.0582760000000000e-01,	 1.4390567593675786e-02,	 5.6500724895621170e+02,	 2.9713514184820999e-01,	 6.5244639389922054e+02,	 2.7011748429496652e+03,	 4.9016508315934004e+02,	 1.1526878321189025e+00 
2.6267770000000001e+00,	 2.0582390000000000e-01,	 1.4336883743356744e-02,	 5.6674055868339690e+02,	 3.0025509339977935e-01,	 6.5151312458693621e+02,	 2.6872487526356813e+03,	 4.8981438788423651e+02,	 1.1570518388974638e+00 
2.6342409999999998e+00,	 2.0582020000000001e-01,	 1.4282912067391049e-02,	 5.6844780467902319e+02,	 3.0208953485403761e-01,	 6.5057625472667382e+02,	 2.6732828234286671e+03,	 4.8946208690267230e+02,	 1.1613726581883161e+00 
2.6417060000000001e+00,	 2.0581650000000001e-01,	 1.4229493706807326e-02,	 5.7011260964387407e+02,	 2.9131763463506061e-01,	 6.4965046061481667e+02,	 2.6594947424508005e+03,	 4.8911370157605347e+02,	 1.1656035850885789e+00 
2.6491699999999998e+00,	 2.0581279999999999e-01,	 1.4194775065975170e-02,	 5.7109196520791534e+02,	 3.1572463646076221e-01,	 6.4906311436603710e+02,	 2.6506072512951778e+03,	 4.8889254875881358e+02,	 1.1681340898546733e+00 
2.2759450000000001e+00,	 2.1187049999999999e-01,	 1.7520418027830748e-02,	 5.2535605461787236e+02,	 -6.4680782116470725e-01,	 6.7314099445656643e+02,	 3.3929732949933291e+03,	 4.9787804271902820e+02,	 1.0551910462189205e+00 
2.2834089999999998e+00,	 2.1186459999999999e-01,	 1.7489582485267042e-02,	 5.2629623755749162e+02,	 -6.3836693584377158e-01,	 6.7268567652609295e+02,	 3.3847107431794097e+03,	 4.9770962989832623e+02,	 1.0574370940260338e+00 
2.2908740000000001e+00,	 2.1185870000000001e-01,	 1.7430147049062299e-02,	 5.2809588606339230e+02,	 -6.2702467337305423e-01,	 6.7178869913699714e+02,	 3.3687104390154987e+03,	 4.9737768942363755e+02,	 1.0617610510800561e+00 
2.2983380000000002e+00,	 2.1185280000000001e-01,	 1.7371825132004345e-02,	 5.2984470230255056e+02,	 -6.0027470375115732e-01,	 6.7090713889352969e+02,	 3.3530327828040759e+03,	 4.9705123831040379e+02,	 1.0659767072240769e+00 
2.3058030000000000e+00,	 2.1184690000000000e-01,	 1.7313485787589372e-02,	 5.3158871017460160e+02,	 -5.6651168038264532e-01,	 6.7002241262299879e+02,	 3.3373655804589644e+03,	 4.9672339908000686e+02,	 1.0701912030388547e+00 
2.3132670000000002e+00,	 2.1184090000000000e-01,	 1.7255627317908726e-02,	 5.3332886483239668e+02,	 -5.2259723489887722e-01,	 6.6914208702953113e+02,	 3.3218424942664287e+03,	 4.9639697563541381e+02,	 1.0744004235529832e+00 
2.3207320000000000e+00,	 2.1183500000000000e-01,	 1.7198402451447742e-02,	 5.3507314927159291e+02,	 -4.7317230559423218e-01,	 6.6826865344737666e+02,	 3.3065046288330286e+03,	 4.9607289546285006e+02,	 1.0786184114909088e+00 
2.3281960000000002e+00,	 2.1182909999999999e-01,	 1.7141774273009884e-02,	 5.3682595185858440e+02,	 -4.2609303798743181e-01,	 6.6740242498030341e+02,	 3.2913456222386071e+03,	 4.9575127944568391e+02,	 1.0828537276988781e+00 
2.3356610000000000e+00,	 2.1182309999999999e-01,	 1.7085595936065099e-02,	 5.3858755780691865e+02,	 -3.8800391692327540e-01,	 6.6654089649055334e+02,	 3.2763242031353193e+03,	 4.9543120136550465e+02,	 1.0871089589905090e+00 
2.3431250000000001e+00,	 2.1181720000000001e-01,	 1.7029594369065742e-02,	 5.4035267903073668e+02,	 -3.6028614665843572e-01,	 6.6567955550310876e+02,	 3.2613654044386908e+03,	 4.9511098609117226e+02,	 1.0913771140671351e+00 
2.3505900000000000e+00,	 2.1181120000000001e-01,	 1.6973435532814406e-02,	 5.4211076894554344e+02,	 -3.3600366261047487e-01,	 6.6481413807513263e+02,	 3.2463843745853596e+03,	 4.9478904663553180e+02,	 1.0956404082919216e+00 
2.3580540000000001e+00,	 2.1180530000000000e-01,	 1.6916863017264801e-02,	 5.4385262004820117e+02,	 -3.1181358304547063e-01,	 6.6394072134627515e+02,	 3.2313133590482753e+03,	 4.9446391887537612e+02,	 1.0998835075227948e+00 
2.3655189999999999e+00,	 2.1179930000000000e-01,	 1.6859758086610145e-02,	 5.4558035209451009e+02,	 -2.8706159776128171e-01,	 6.6305736469613225e+02,	 3.2161209976021419e+03,	 4.9413487340672935e+02,	 1.1041123729094557e+00 
2.3729830000000001e+00,	 2.1179329999999999e-01,	 1.6802239591551759e-02,	 5.4730013378509443e+02,	 -2.4924806411624739e-01,	 6.6216622234979798e+02,	 3.2008412404483529e+03,	 4.9380270564260383e+02,	 1.1083377719212379e+00 
2.3804479999999999e+00,	 2.1178739999999999e-01,	 1.6744574712129565e-02,	 5.4901548402148353e+02,	 -1.9615080409491872e-01,	 6.6127206864339598e+02,	 3.1855486205381226e+03,	 4.9346919068687134e+02,	 1.1125629105586425e+00 
2.3879120000000000e+00,	 2.1178140000000001e-01,	 1.6687051599769746e-02,	 5.5073335709044784e+02,	 -1.3713715103027890e-01,	 6.6037799321632860e+02,	 3.1703129779137253e+03,	 4.9313547939742836e+02,	 1.1167993323813172e+00 
2.3953769999999999e+00,	 2.1177540000000000e-01,	 1.6629939578878337e-02,	 5.5245948471037366e+02,	 -7.8466593015081937e-02,	 6.5948607783458010e+02,	 3.1551952578433461e+03,	 4.9280234917802375e+02,	 1.1210569332800782e+00 
2.4028410000000000e+00,	 2.1176940000000000e-01,	 1.6573294817215391e-02,	 5.5419567913027572e+02,	 -2.7583266680668253e-02,	 6.5859547607924196e+02,	 3.1402016439692061e+03,	 4.9246948475004939e+02,	 1.1253401418323175e+00 
2.4103059999999998e+00,	 2.1176329999999999e-01,	 1.6516986037221990e-02,	 5.5593700204097297e+02,	 7.4755905289534165e-03,	 6.5770446261343136e+02,	 3.1252986743571510e+03,	 4.9213624114994042e+02,	 1.1296404442644079e+00 
2.4177700000000000e+00,	 2.1175730000000001e-01,	 1.6460776699613738e-02,	 5.5767798542298374e+02,	 2.0119678052096496e-02,	 6.5681013356421408e+02,	 3.1104276622430016e+03,	 4.9180153043765921e+02,	 1.1339492687012078e+00 
2.4252349999999998e+00,	 2.1175120000000000e-01,	 1.6404284674146834e-02,	 5.5940894564968255e+02,	 1.6475399328887655e-02,	 6.5590956906133522e+02,	 3.0955028030382368e+03,	 4.9146425570707021e+02,	 1.1382495052208270e+00 
2.4326989999999999e+00,	 2.1174519999999999e-01,	 1.6346917672154522e-02,	 5.6111773914068885e+02,	 1.1116326427564358e-02,	 6.5499489886536685e+02,	 3.0803759966620910e+03,	 4.9112146109406928e+02,	 1.1425233546113056e+00 
2.4401640000000002e+00,	 2.1173910000000001e-01,	 1.6288385350099077e-02,	 5.6279671118770796e+02,	 2.6996666121655386e-03,	 6.5406297049565308e+02,	 3.0649792254429794e+03,	 4.9077195231170549e+02,	 1.1467580992418493e+00 
2.4476279999999999e+00,	 2.1173300000000000e-01,	 1.6228587406682943e-02,	 5.6444780664073255e+02,	 -8.9269290646629990e-03,	 6.5311216009700729e+02,	 3.0492878707155664e+03,	 4.9041510533726688e+02,	 1.1509592599582417e+00 
2.4550920000000001e+00,	 2.1172690000000000e-01,	 1.6167342693757143e-02,	 5.6607976049467663e+02,	 -2.2358685914733875e-02,	 6.5214075549476092e+02,	 3.0332619953681165e+03,	 4.9005026083489230e+02,	 1.1551463312595915e+00 
2.4625569999999999e+00,	 2.1172070000000001e-01,	 1.6105004618752049e-02,	 5.6769090172675897e+02,	 -3.1591924116955543e-02,	 6.5115386331009222e+02,	 3.0169937657354340e+03,	 4.8967932106727591e+02,	 1.1593115702098609e+00 
2.4700210000000000e+00,	 2.1171460000000000e-01,	 1.6042531105724758e-02,	 5.6926592753286479e+02,	 -3.4461332369184514e-02,	 6.5016452466362034e+02,	 3.0007243097087794e+03,	 4.8930717950365329e+02,	 1.1634121721929440e+00 
2.4774859999999999e+00,	 2.1170829999999999e-01,	 1.5979657139221289e-02,	 5.7082420380942222e+02,	 -3.5152822455136450e-02,	 6.4916431268032147e+02,	 2.9843656394523568e+03,	 4.8893065997818900e+02,	 1.1674952127512050e+00 
2.4849500000000000e+00,	 2.1170200000000000e-01,	 1.5916745632819071e-02,	 5.7237682997698789e+02,	 -1.9420011637939438e-02,	 6.4815644231231624e+02,	 2.9680010847184690e+03,	 4.8855096401288898e+02,	 1.1715805974570455e+00 
2.4924149999999998e+00,	 2.1169579999999999e-01,	 1.5854110199886945e-02,	 5.7393639325317531e+02,	 1.0420145864043020e-02,	 6.4714584901488206e+02,	 2.9517119931827187e+03,	 4.8816994571250814e+02,	 1.1756897334391996e+00 