TITLE = "Final State"
VARIABLES = "X", "Y", "rho", "u", "v", "T", "p", "c", "M"
ZONE I=140, J=41, DATAPACKING=POINT
-0.0000000000000000e+00,	 1.0000000000000000e-04,	 6.7345772858282513e-02,	 2.8562842729879890e+01,	 3.4653948498151422e+01,	 1.8408075788299307e+03,	 3.5665529200539524e+04,	 8.2333039840625145e+02,	 5.4544373581296095e-02 
1.1773850796294400e-04,	 4.9898468750885589e-03,	 6.2742684812414531e-02,	 6.3771183583536555e+00,	 1.6855489860859831e+02,	 1.8195533502924934e+03,	 3.2844135103094362e+04,	 8.1856345301670274e+02,	 2.0606281776787239e-01 
4.7068115082309737e-04,	 9.8683606148377585e-03,	 6.0400460310451605e-02,	 2.0873282624178156e+01,	 2.1350754646073079e+02,	 1.8038058625632029e+03,	 3.1344401373707755e+04,	 8.1501359024990563e+02,	 2.6321701506827982e-01 
1.0580099179472462e-03,	 1.4724234350570499e-02,	 5.9626937387004905e-02,	 3.4034424076241592e+01,	 2.2846251912518838e+02,	 1.7976680558058433e+03,	 3.0837697356725577e+04,	 8.1362578608216882e+02,	 2.8389425843090021e-01 
1.8783635649904235e-03,	 1.9546213686056472e-02,	 5.8819116184105867e-02,	 4.9161937605806884e+01,	 2.4714462248504231e+02,	 1.7927107518834246e+03,	 3.0336023715887430e+04,	 8.1250317204390069e+02,	 3.1013642134467079e-01 
2.9298407688344123e-03,	 2.4323122781681718e-02,	 5.7899764577499471e-02,	 6.7642619484822632e+01,	 2.7119674813131934e+02,	 1.7876034520648900e+03,	 2.9776792873859187e+04,	 8.1134496594143172e+02,	 3.4449622449661760e-01 
4.2100045342599625e-03,	 2.9043890256548712e-02,	 5.6822781560326913e-02,	 9.0089370396497003e+01,	 2.9984188155119608e+02,	 1.7820567448171505e+03,	 2.9132245129121253e+04,	 8.1008523762075083e+02,	 3.8648211143373801e-01 
5.7158878421393498e-03,	 3.3697574848473806e-02,	 5.5583426382676805e-02,	 1.1748534136090760e+02,	 3.3254259436529264e+02,	 1.7721170175668119e+03,	 2.8337899025976643e+04,	 8.0782288384138269e+02,	 4.3658821946630250e-01 
7.4440005260584642e-03,	 3.8273390772410064e-02,	 5.4092709230294703e-02,	 1.5103154887113058e+02,	 3.6951398426486361e+02,	 1.7566819321874932e+03,	 2.7337689442085190e+04,	 8.0429713336930195e+02,	 4.9631914754827672e-01 
9.3903373614307676e-03,	 4.2760732718522890e-02,	 5.2235784858366656e-02,	 1.9196915127702209e+02,	 4.1154777967389697e+02,	 1.7340812686949214e+03,	 2.6059585825919658e+04,	 7.9910652543989568e+02,	 5.6828297031074526e-01 
1.1550387348354870e-02,	 4.7149200431980495e-02,	 5.0116047005220710e-02,	 2.3870215112908659e+02,	 4.5447197022897592e+02,	 1.7065726556263699e+03,	 2.4605462234302719e+04,	 7.9274287046785616e+02,	 6.4755598364438083e-01 
1.3919144166701140e-02,	 5.1428622817491026e-02,	 4.8044210051530784e-02,	 2.8770466275193905e+02,	 4.9019781856812222e+02,	 1.6778600807443763e+03,	 2.3191387690834614e+04,	 7.8604575078340588e+02,	 7.2310116751816778e-01 
1.6491117779195579e-02,	 5.5589081512719615e-02,	 4.6132947502027725e-02,	 3.3667652789639357e+02,	 5.1586566384788421e+02,	 1.6492050221800750e+03,	 2.1888489343774479e+04,	 7.7930466841714451e+02,	 7.9046122096486326e-01 
1.9260347155608752e-02,	 5.9620933875949335e-02,	 4.4254781740097129e-02,	 3.8673627021859454e+02,	 5.3491449652641995e+02,	 1.6192158405129494e+03,	 2.0615548038929646e+04,	 7.7218671479018292e+02,	 8.5481215233825714e-01 
2.2220414088559039e-02,	 6.3514835334708253e-02,	 3.9454018573963495e-02,	 4.7272093735021309e+02,	 5.9535043539516107e+02,	 1.5395836968867391e+03,	 1.7475293790642747e+04,	 7.5295947961204422e+02,	 1.0096188649936331e+00 
2.5364458068909523e-02,	 6.7261761043565155e-02,	 3.7327956374205933e-02,	 5.4019483017367975e+02,	 6.0565130616006275e+02,	 1.5028733486131759e+03,	 1.6139368372933690e+04,	 7.4392841110529491e+02,	 1.0909067215264761e+00 
2.8685192186281905e-02,	 7.0853026800897750e-02,	 3.7624490583551551e-02,	 5.5974311899700456e+02,	 5.8107351443336552e+02,	 1.5055397665435853e+03,	 1.6296442071909032e+04,	 7.4458806249665520e+02,	 1.0835792456322575e+00 
3.2174920017835250e-02,	 7.4280309176155565e-02,	 3.5102064969456746e-02,	 6.2492417606232198e+02,	 5.8579472501432701e+02,	 1.4613925420355285e+03,	 1.4758067414056175e+04,	 7.3358999039852472e+02,	 1.1676202709015560e+00 
3.5825553466166317e-02,	 7.7535664800967879e-02,	 3.2563864490016553e-02,	 6.8986388233719867e+02,	 5.8874367424819945e+02,	 1.4161693625530170e+03,	 1.3267254829928597e+04,	 7.2215022494812138e+02,	 1.2558815003676806e+00 
3.9628631504989159e-02,	 8.0611548779386782e-02,	 3.0050110981411329e-02,	 7.5499243864777918e+02,	 5.8592446436051659e+02,	 1.3703428331188354e+03,	 1.1846914401773187e+04,	 7.1036993081764138e+02,	 1.3453248557779016e+00 
4.3575339789147127e-02,	 8.3500832174595641e-02,	 2.7674408487377955e-02,	 8.1966279503681380e+02,	 5.7576954783977203e+02,	 1.3254957235356269e+03,	 1.0553259452195625e+04,	 6.9864912425458635e+02,	 1.4337346075971218e+00 
4.7656531083507502e-02,	 8.6196818531554392e-02,	 2.5584194680263166e-02,	 8.8036019798471943e+02,	 5.5620099643714798e+02,	 1.2843179808036730e+03,	 9.4530999852311270e+03,	 6.8771141804841989e+02,	 1.5142139511745676e+00 
5.1862746463390987e-02,	 8.8693259397287519e-02,	 2.3498604647121377e-02,	 9.3950640404924798e+02,	 5.3328284796023445e+02,	 1.2418246165531127e+03,	 8.3952237710936697e+03,	 6.7623880083882477e+02,	 1.5975227147253699e+00 
5.6184237237399952e-02,	 9.0984368802843274e-02,	 2.1305677797659989e-02,	 9.9982139146000941e+02,	 5.0696461800807697e+02,	 1.1977353755515796e+03,	 7.3415230932226568e+03,	 6.6412586099816235e+02,	 1.6879430977486913e+00 
6.0610987541835470e-02,	 9.3064836673359630e-02,	 1.9214030541276531e-02,	 1.0578751702885550e+03,	 4.7497658274211949e+02,	 1.1569506106125589e+03,	 6.3953340456888227e+03,	 6.5272066618281394e+02,	 1.7765840706206708e+00 
6.5132737554335893e-02,	 9.4929841135156692e-02,	 1.7362434297600440e-02,	 1.1120173851094828e+03,	 4.3673180562522407e+02,	 1.1179420835537135e+03,	 5.5841857714992620e+03,	 6.4162253092225728e+02,	 1.8620042338252756e+00 
6.9739007272935666e-02,	 9.6575059691331386e-02,	 1.5723622254526792e-02,	 1.1626796672800265e+03,	 3.9347836515653648e+02,	 1.0774571907287786e+03,	 4.8739667611247005e+03,	 6.2989761722396008e+02,	 1.9486601854556296e+00 
7.4419120805431185e-02,	 9.7996679239953061e-02,	 1.4188473617008198e-02,	 1.2108842084162081e+03,	 3.4670846884867490e+02,	 1.0349634127537815e+03,	 4.2246488026564029e+03,	 6.1735142105381192e+02,	 2.0402358603052595e+00 
7.9162231112759135e-02,	 9.9191404911640885e-02,	 1.2713818825965267e-02,	 1.2570108788161151e+03,	 2.9685923527182376e+02,	 9.9070430477433342e+02,	 3.6236813926237869e+03,	 6.0400700944561027e+02,	 2.1383673183696539e+00 
8.3957345149039880e-02,	 1.0015646770604034e-01,	 1.1507695711473739e-02,	 1.2958884651155820e+03,	 2.5150046998132197e+02,	 9.5096154675665287e+02,	 3.1483373617503848e+03,	 5.9176793830615554e+02,	 2.2307189482656198e+00 
8.9659551102230423e-02,	 1.0116192046514426e-01,	 1.0922876485166998e-02,	 1.3170597404046580e+03,	 2.2848619778901752e+02,	 9.2853084889452168e+02,	 2.9178522519022545e+03,	 5.8474716116845616e+02,	 2.2859998942389628e+00 
9.5361757055420965e-02,	 1.0216737322424818e-01,	 1.0868273530868102e-02,	 1.3225652470919472e+03,	 2.2914008514489970e+02,	 9.2402741015375750e+02,	 2.8891850026555535e+03,	 5.8332740554091868e+02,	 2.3010546410776511e+00 
1.0106396300861152e-01,	 1.0317282598335210e-01,	 1.0843722168098174e-02,	 1.3255885940400935e+03,	 2.3204425290988374e+02,	 9.2151931535005792e+02,	 2.8748339295430624e+03,	 5.8253520254251600e+02,	 2.3101522672793120e+00 
1.0676616896180205e-01,	 1.0417827874245603e-01,	 1.0789926988562421e-02,	 1.3278747897906701e+03,	 2.3345866686706651e+02,	 9.1842001111469926e+02,	 2.8509511854148000e+03,	 5.8155477033732268e+02,	 2.3183392104833125e+00 
1.1246837491499261e-01,	 1.0518373150155995e-01,	 1.0737069689229224e-02,	 1.3300945530947165e+03,	 2.3409367838199245e+02,	 9.1551473762212004e+02,	 2.8280107057358105e+03,	 5.8063421442018273e+02,	 2.3259694383926335e+00 
1.1817058086818316e-01,	 1.0618918426066389e-01,	 1.0688727574598178e-02,	 1.3319753710605878e+03,	 2.3450803246510748e+02,	 9.1286466778157683e+02,	 2.8071288256923199e+03,	 5.7979324688812767e+02,	 2.3326618880336376e+00 
1.2387278682137369e-01,	 1.0719463701976781e-01,	 1.0646009248078668e-02,	 1.3336021754617971e+03,	 2.3463737655473892e+02,	 9.1044882428369033e+02,	 2.7885107044661027e+03,	 5.7902554399938708e+02,	 2.3385604017589539e+00 
1.2957499277456425e-01,	 1.0820008977887172e-01,	 1.0594007737140091e-02,	 1.3353478918745959e+03,	 2.3497227873998537e+02,	 9.0772597358957478e+02,	 2.7665911652031346e+03,	 5.7815905892061824e+02,	 2.3451393319924514e+00 
1.3527719872775479e-01,	 1.0920554253797564e-01,	 1.0522913684010135e-02,	 1.3375123339619172e+03,	 2.3548600951148848e+02,	 9.0437173156201970e+02,	 2.7378706390599846e+03,	 5.7708985945568008e+02,	 2.3533324230543267e+00 
1.4097940468094533e-01,	 1.1021099529707956e-01,	 1.0439783616709053e-02,	 1.3399383584014170e+03,	 2.3594331109847309e+02,	 9.0064529518135373e+02,	 2.7050495165457310e+03,	 5.7589969151717594e+02,	 2.3624823339320766e+00 
1.4668161063413590e-01,	 1.1121644805618350e-01,	 1.0355148034734047e-02,	 1.3423810858593874e+03,	 2.3633818445453008e+02,	 8.9690732226663306e+02,	 2.6719837886783794e+03,	 5.7470336278098966e+02,	 2.3717053531071528e+00 
1.5238381658732641e-01,	 1.1222190081528742e-01,	 1.0276605225477683e-02,	 1.3446807430004760e+03,	 2.3669897289627698e+02,	 8.9340799955085322e+02,	 2.6413712579662374e+03,	 5.7358115210782796e+02,	 2.3804032253029690e+00 
1.5808602254051698e-01,	 1.1322735357439134e-01,	 1.0207775718387819e-02,	 1.3467575359576558e+03,	 2.3703053105283189e+02,	 8.9025956252997571e+02,	 2.6144341280381673e+03,	 5.7256958854325183e+02,	 2.3882813169979760e+00 
1.6378822849370753e-01,	 1.1423280633349527e-01,	 1.0150904319487092e-02,	 1.3485622186558553e+03,	 2.3733207941502803e+02,	 8.8752636239177400e+02,	 2.5918862249118124e+03,	 5.7168998537230732e+02,	 2.3951563260894364e+00 
1.6949043444689807e-01,	 1.1523825909259917e-01,	 1.0104582851840486e-02,	 1.3501211036865152e+03,	 2.3759757355696854e+02,	 8.8514963410273594e+02,	 2.5731495082772676e+03,	 5.7092400100441046e+02,	 2.4011395391047108e+00 
1.7519264040008861e-01,	 1.1624371185170312e-01,	 1.0064685607229437e-02,	 1.3515288170338672e+03,	 2.3780091751634768e+02,	 8.8297632768184462e+02,	 2.5566967017921852e+03,	 5.7022267587532383e+02,	 2.4065858889971690e+00 
1.8089484635327918e-01,	 1.1724916461080703e-01,	 1.0025314400081357e-02,	 1.3529183684334218e+03,	 2.3809309238678037e+02,	 8.8080207466983541e+02,	 2.5404243548602103e+03,	 5.6952018108408788e+02,	 2.4120462299778711e+00 
1.8659705230646970e-01,	 1.1825461736991096e-01,	 9.9829738006141297e-03,	 1.3543711848546779e+03,	 2.3841213331294392e+02,	 8.7851456621767511e+02,	 2.5231253995824095e+03,	 5.6878015717796598e+02,	 2.4177973068555909e+00 
1.9229925825966027e-01,	 1.1926007012901488e-01,	 9.9380580501154774e-03,	 1.3558675663644863e+03,	 2.3870527804066475e+02,	 8.7613977869613723e+02,	 2.5049834759526912e+03,	 5.6801087791540692e+02,	 2.4237558291401564e+00 
1.9800146421285078e-01,	 1.2026552288811881e-01,	 9.8926523186099215e-03,	 1.3573601349100561e+03,	 2.3896393962843192e+02,	 8.7375899079071007e+02,	 2.4867626790891236e+03,	 5.6723860767246447e+02,	 2.4297261646902348e+00 
2.0370367016604135e-01,	 1.2127097564722274e-01,	 9.8486186287874630e-03,	 1.3588089769882511e+03,	 2.3919397917399550e+02,	 8.7143959071747474e+02,	 2.4691219744168470e+03,	 5.6648523772389694e+02,	 2.4355467336981595e+00 
2.0940587611923187e-01,	 1.2227642840632666e-01,	 9.8067511021330440e-03,	 1.3602004814458703e+03,	 2.3940747890961103e+02,	 8.6920703122682994e+02,	 2.4523266694224262e+03,	 5.6575912711930982e+02,	 2.4411602954439884e+00 
2.1510808207242246e-01,	 1.2328188116543058e-01,	 9.7667682418925567e-03,	 1.3615448926823194e+03,	 2.3961687208468362e+02,	 8.6704763757079741e+02,	 2.4362608096432509e+03,	 5.6505592503785920e+02,	 2.4466057475045790e+00 
2.2081028802561298e-01,	 1.2428733392453452e-01,	 9.7277628247342436e-03,	 1.3628617488046914e+03,	 2.3981941573600835e+02,	 8.6492692052050415e+02,	 2.4205960788936241e+03,	 5.6436446511862255e+02,	 2.4519635636957844e+00 
2.2651249397880352e-01,	 1.2529278668363841e-01,	 9.6886353527618364e-03,	 1.3641764825563575e+03,	 2.4002259561630567e+02,	 8.6280450319998636e+02,	 2.4049439076759504e+03,	 5.6367160158771821e+02,	 2.4573371322113475e+00 
2.3221469993199409e-01,	 1.2629823944274232e-01,	 9.6484213548364492e-03,	 1.3655147504660235e+03,	 2.4024100508575722e+02,	 8.6064679555783721e+02,	 2.3889725234364832e+03,	 5.6296634340659409e+02,	 2.4628240082173805e+00 
2.3791690588518463e-01,	 1.2730369220184629e-01,	 9.6067009503857728e-03,	 1.3668868732941410e+03,	 2.4046943155407394e+02,	 8.5844086717152663e+02,	 2.3725457389939365e+03,	 5.6224440949479037e+02,	 2.4684602478710524e+00 
2.4361911183837517e-01,	 1.2830914496095019e-01,	 9.5635992369648062e-03,	 1.3682891858634734e+03,	 2.4069989805715142e+02,	 8.5619321038737735e+02,	 2.3557168356037055e+03,	 5.6150786443822778e+02,	 2.4742289417978118e+00 
2.4932131779156569e-01,	 1.2931459772005410e-01,	 9.5195711931921525e-03,	 1.3697106138552372e+03,	 2.4092721517769888e+02,	 8.5392124169129329e+02,	 2.3386495152215139e+03,	 5.6076236931606036e+02,	 2.4800849720553853e+00 
2.5502352374475623e-01,	 1.3032005047915804e-01,	 9.4751572943182691e-03,	 1.3711391481339047e+03,	 2.4115081169168803e+02,	 8.5164433977251372e+02,	 2.3215317634467870e+03,	 5.6001425982612386e+02,	 2.4859795463129353e+00 
2.6072572969794683e-01,	 1.3132550323826198e-01,	 9.4308190819725711e-03,	 1.3725656066997883e+03,	 2.4137417650949146e+02,	 8.4937825844234453e+02,	 2.3045200511157072e+03,	 5.5926871200869323e+02,	 2.4918747504452354e+00 
2.6642793565113737e-01,	 1.3233095599736588e-01,	 9.3869081783319805e-03,	 1.3739837106066273e+03,	 2.4160174652872723e+02,	 8.4713451148259219e+02,	 2.2877306041319575e+03,	 5.5852953174661002e+02,	 2.4977437894314805e+00 
2.7213014160432791e-01,	 1.3333640875646982e-01,	 9.3437336175919497e-03,	 1.3753877703570624e+03,	 2.4183574192206876e+02,	 8.4492314749895274e+02,	 2.2712638793001634e+03,	 5.5780006130069000e+02,	 2.5035620001373644e+00 
2.7783234755751846e-01,	 1.3434186151557373e-01,	 9.3016362690852006e-03,	 1.3767704560178281e+03,	 2.4207529211315418e+02,	 8.4275559986048438e+02,	 2.2552305049133470e+03,	 5.5708411770961720e+02,	 2.5092984552577935e+00 
2.8353455351070900e-01,	 1.3534731427467767e-01,	 9.2610316562580369e-03,	 1.3781217947640025e+03,	 2.4231704488404804e+02,	 8.4064620978765925e+02,	 2.2397655755800765e+03,	 5.5638649912146161e+02,	 2.5149120354633814e+00 
2.8923675946389948e-01,	 1.3635276703378160e-01,	 9.2224290811351271e-03,	 1.3794291546010643e+03,	 2.4255325269761227e+02,	 8.3861244854024790e+02,	 2.2250335641622960e+03,	 5.5571306331349433e+02,	 2.5203503530899969e+00 
2.9493896541709008e-01,	 1.3735821979288551e-01,	 9.1862477388779534e-03,	 1.3806808656484088e+03,	 2.4278151912375256e+02,	 8.3666872228526279e+02,	 2.2111674099535594e+03,	 5.5506867704672868e+02,	 2.5255684610512850e+00 
3.0064117137028068e-01,	 1.3836367255198942e-01,	 9.1529421612182339e-03,	 1.3818652509728799e+03,	 2.4299209108143100e+02,	 8.3483025473742214e+02,	 2.1983094925164219e+03,	 5.5445849709804781e+02,	 2.5305174474963708e+00 
3.0634337732347117e-01,	 1.3936912531109336e-01,	 9.1228252491726437e-03,	 1.3829729738871140e+03,	 2.4317644340921856e+02,	 8.3310646561472902e+02,	 2.1865519408510208e+03,	 5.5388576784670374e+02,	 2.5351613886333046e+00 
3.1204558327666171e-01,	 1.4037457807019726e-01,	 9.0959107934020407e-03,	 1.3840011303662404e+03,	 2.4332670445224946e+02,	 8.3149544896490738e+02,	 2.1758853414802243e+03,	 5.5334997138592439e+02,	 2.5394931396195113e+00 
3.1774778922985225e-01,	 1.4138003082930120e-01,	 9.0717955380829746e-03,	 1.3849590050455963e+03,	 2.4345473660193329e+02,	 8.2998056958647749e+02,	 2.1661629144803492e+03,	 5.5284567481393117e+02,	 2.5435561778538283e+00 
3.2344999518304279e-01,	 1.4238548358840511e-01,	 9.0498707884572923e-03,	 1.3858650033243798e+03,	 2.4357748168241937e+02,	 8.2853843073735447e+02,	 2.1571729879141667e+03,	 5.5236516545883944e+02,	 2.5474227696663942e+00 
3.2915220113623339e-01,	 1.4339093634750905e-01,	 9.0294613412650292e-03,	 1.3867382923667010e+03,	 2.4370213603249778e+02,	 8.2714379660798795e+02,	 2.1486852245032414e+03,	 5.5190008639479936e+02,	 2.5511669924869458e+00 
3.3485440708942388e-01,	 1.4439638910661295e-01,	 9.0098203420533197e-03,	 1.3875978602761775e+03,	 2.4383513903396494e+02,	 8.2576965936229112e+02,	 2.1404495225188434e+03,	 5.5144145894256951e+02,	 2.5548657541133539e+00 
3.4055661304261442e-01,	 1.4540184186571689e-01,	 8.9902731488533220e-03,	 1.3884596860910051e+03,	 2.4397907434796139e+02,	 8.2439244799109997e+02,	 2.1322436471173273e+03,	 5.5098142244502560e+02,	 2.5585846868179396e+00 
3.4625881899580496e-01,	 1.4640729462482083e-01,	 8.9703123509836686e-03,	 1.3893339671358472e+03,	 2.4413459151425019e+02,	 8.2299585898237410e+02,	 2.1239053219283287e+03,	 5.5051452056249786e+02,	 2.5623677134440781e+00 
3.5196102494899556e-01,	 1.4741274738392471e-01,	 8.9497767534261474e-03,	 1.3902223150606512e+03,	 2.4429610893614114e+02,	 8.2157655561553406e+02,	 2.1153886874104996e+03,	 5.5003961885781916e+02,	 2.5662215612047738e+00 
3.5766323090218610e-01,	 1.4841820014302864e-01,	 8.9288765044039306e-03,	 1.3911175220880077e+03,	 2.4445619912526689e+02,	 8.2014447405229703e+02,	 2.1067699579772798e+03,	 5.4956002559901685e+02,	 2.5701158533839692e+00 
3.6336543685537659e-01,	 1.4942365290213258e-01,	 8.9081303387155680e-03,	 1.3920055683981379e+03,	 2.4460664439014164e+02,	 8.1872019891555760e+02,	 2.0982247492670567e+03,	 5.4908263117424542e+02,	 2.5739907561337083e+00 
3.6906764280856719e-01,	 1.5042910566123649e-01,	 8.8882779200615721e-03,	 1.3928683935725535e+03,	 2.4473915829303425e+02,	 8.1733134554019296e+02,	 2.0899972665188038e+03,	 5.4861670951234044e+02,	 2.5777675588479649e+00 
3.7476984876175767e-01,	 1.5143455842034043e-01,	 8.8701247893966020e-03,	 1.3936880572922735e+03,	 2.4484777022670545e+02,	 8.1600653082702615e+02,	 2.0823479602120142e+03,	 5.4817190199585161e+02,	 2.5813662535658106e+00 
3.8047205471494827e-01,	 1.5244001117944433e-01,	 8.8543259511807554e-03,	 1.3944517723757763e+03,	 2.4493159111242932e+02,	 8.1476741313768616e+02,	 2.0754825861140989e+03,	 5.4775554040228383e+02,	 2.5847281212031366e+00 
3.8617426066813876e-01,	 1.5344546393854827e-01,	 8.8411886374502504e-03,	 1.3951559811404463e+03,	 2.4499571416356184e+02,	 8.1362183167774492e+02,	 2.0694893115297109e+03,	 5.4737032659399028e+02,	 2.5878345338718187e+00 
3.9187646662132936e-01,	 1.5445091669765218e-01,	 8.8305635817694968e-03,	 1.3958079019643599e+03,	 2.4505023768906949e+02,	 8.1256057493946673e+02,	 2.0643061484153459e+03,	 5.4701322580438068e+02,	 2.5907149854687814e+00 
3.9757867257451990e-01,	 1.5545636945675614e-01,	 8.8218754284354918e-03,	 1.3964238750934053e+03,	 2.4510710598670579e+02,	 8.1155939733823880e+02,	 2.0597341489645200e+03,	 5.4667612712769085e+02,	 2.5934402834481203e+00 
4.0328087852771044e-01,	 1.5646182221586002e-01,	 8.8142714717525626e-03,	 1.3970253256997753e+03,	 2.4517671655461282e+02,	 8.1058520501524765e+02,	 2.0554884102121164e+03,	 5.4634791479540149e+02,	 2.5961045715226416e+00 
4.0898308448090098e-01,	 1.5746727497496399e-01,	 8.8068134932545693e-03,	 1.3976340668211969e+03,	 2.4526592755269303e+02,	 8.0960352307094195e+02,	 2.0512619587953668e+03,	 5.4601697958605223e+02,	 2.5988043794236386e+00 
4.1468529043409147e-01,	 1.5847272773406790e-01,	 8.7986316604038196e-03,	 1.3982672724199019e+03,	 2.4537484938918712e+02,	 8.0858501684798193e+02,	 2.0467781123925138e+03,	 5.4567341839198286e+02,	 2.6016180590435778e+00 
4.2038749638728207e-01,	 1.5947818049317181e-01,	 8.7892959649694749e-03,	 1.3989299193153838e+03,	 2.4546947367812186e+02,	 8.0751538519351357e+02,	 2.0419017051935825e+03,	 5.4531237861086106e+02,	 2.6045674081170644e+00 
4.2608970234047255e-01,	 1.6048363325227574e-01,	 8.7783101133865372e-03,	 1.3996288777023512e+03,	 2.4555900325552514e+02,	 8.0637861842806660e+02,	 2.0364786451769064e+03,	 5.4492841607903563e+02,	 2.6076943699006563e+00 
4.3179190829366321e-01,	 1.6148908601137968e-01,	 8.7653281752266346e-03,	 1.4003742335469851e+03,	 2.4566415003216150e+02,	 8.0516483448543022e+02,	 2.0304061354967039e+03,	 5.4451814078604582e+02,	 2.6110407880748694e+00 
4.3749411424685369e-01,	 1.6249453877048359e-01,	 8.7502795908970289e-03,	 1.4011682455569271e+03,	 2.4578351192181600e+02,	 8.0387431797313002e+02,	 2.0236715283793160e+03,	 5.4408158952157635e+02,	 2.6146111108369556e+00 
4.4319632020004429e-01,	 1.6349999152958752e-01,	 8.7332688279364665e-03,	 1.4020090164259830e+03,	 2.4591941612977490e+02,	 8.0251355783574445e+02,	 2.0163185448559689e+03,	 5.4362089678587097e+02,	 2.6183934158099249e+00 
4.4889852615323483e-01,	 1.6450544428869146e-01,	 8.7145507660133653e-03,	 1.4028914082989036e+03,	 2.4607601233098717e+02,	 8.0109423144097673e+02,	 2.0084385383852118e+03,	 5.4313995977592538e+02,	 2.6223619326170851e+00 
4.5460073210642532e-01,	 1.6551089704779537e-01,	 8.6945318117431850e-03,	 1.4038065200879864e+03,	 2.4625631964383112e+02,	 7.9963332519452695e+02,	 2.0001705272055997e+03,	 5.4264448832412916e+02,	 2.6264747686261525e+00 
4.6030293805961592e-01,	 1.6651634980689931e-01,	 8.6738147900558941e-03,	 1.4047401512465381e+03,	 2.4645649508606212e+02,	 7.9815454035537368e+02,	 1.9917144329592654e+03,	 5.4214249212096968e+02,	 2.6306667605708141e+00 
4.6600514401280640e-01,	 1.6752180256600321e-01,	 8.6532039644913877e-03,	 1.4056727410588817e+03,	 2.4666655230439579e+02,	 7.9668815467261629e+02,	 1.9833311735801510e+03,	 5.4164424558663177e+02,	 2.6348495435602559e+00 
4.7170734996599700e-01,	 1.6852725532510715e-01,	 8.6336627323573643e-03,	 1.4065809468870348e+03,	 2.4687172405312890e+02,	 7.9526873062326843e+02,	 1.9753266515838459e+03,	 5.4116151867919018e+02,	 2.6389184074285290e+00 
4.7740955591918749e-01,	 1.6953270808421106e-01,	 8.6161887191419772e-03,	 1.4074399855128513e+03,	 2.4705515833402922e+02,	 7.9393170166346999e+02,	 1.9680144541888517e+03,	 5.4070641906116430e+02,	 2.6427629833678776e+00 
4.8311176187237814e-01,	 1.7053816084331500e-01,	 8.6017086169224294e-03,	 1.4082226086861019e+03,	 2.4717499263754999e+02,	 7.9270810720036764e+02,	 1.9616790953426710e+03,	 5.4028959448444471e+02,	 2.6462668904728646e+00 
4.8881396782556863e-01,	 1.7154361360241890e-01,	 8.5908998877037950e-03,	 1.4089114775824769e+03,	 2.4722021316914430e+02,	 7.9161611597032766e+02,	 1.9565151840258804e+03,	 5.3991732957473027e+02,	 2.6493626023915797e+00 
4.9451617377875912e-01,	 1.7254906636152287e-01,	 8.5839992181651753e-03,	 1.4095071231110830e+03,	 2.4722705668864342e+02,	 7.9065709681751150e+02,	 1.9525752510796115e+03,	 5.3959018364711790e+02,	 2.6520583452642623e+00 
5.0021837973194982e-01,	 1.7355451912062678e-01,	 8.5810009613251845e-03,	 1.4100160831549742e+03,	 2.4721068252113849e+02,	 7.8982451675104210e+02,	 1.9498378586647343e+03,	 5.3930600839386273e+02,	 2.6543800909322965e+00 
5.0592058568514031e-01,	 1.7455997187973069e-01,	 8.5817051239244040e-03,	 1.4104474190086103e+03,	 2.4718026194783795e+02,	 7.8910665841490879e+02,	 1.9482255430956893e+03,	 5.3906086956041372e+02,	 2.6563655765619059e+00 
5.1162279163833080e-01,	 1.7556542463883462e-01,	 8.5857434381633284e-03,	 1.4108123409875470e+03,	 2.4714307968174722e+02,	 7.8848749809647620e+02,	 1.9476129600776874e+03,	 5.3884934517857403e+02,	 2.6580634819720146e+00 
5.1732499759152140e-01,	 1.7657087739793856e-01,	 8.5926127410604469e-03,	 1.4111228965380046e+03,	 2.4710548818205990e+02,	 7.8794928055119442e+02,	 1.9478407167547912e+03,	 5.3866540587663917e+02,	 2.6595269808526369e+00 
5.2302720354471199e-01,	 1.7757633015704247e-01,	 8.6017454646717395e-03,	 1.4113929716469302e+03,	 2.4707298430679879e+02,	 7.8747073931607747e+02,	 1.9487267644896710e+03,	 5.3850180857096234e+02,	 2.6608185534798303e+00 
5.2872940949790248e-01,	 1.7858178291614640e-01,	 8.6125673035494718e-03,	 1.4116365496273615e+03,	 2.4704938842368756e+02,	 7.8703025283138686e+02,	 1.9500870256025178e+03,	 5.3835117697473629e+02,	 2.6620011747342511e+00 
5.3443161545109308e-01,	 1.7958723567525031e-01,	 8.6245323888401240e-03,	 1.4118666299472234e+03,	 2.4703708865333260e+02,	 7.8660783983305112e+02,	 1.9517481011331861e+03,	 5.3820668630524199e+02,	 2.6631329902742173e+00 
5.4013382140428357e-01,	 1.8059268843435422e-01,	 8.6371240072459082e-03,	 1.4120951307105315e+03,	 2.4704072321386667e+02,	 7.8618569193810060e+02,	 1.9535486367769765e+03,	 5.3806224755221001e+02,	 2.6642673716069702e+00 
5.4583602735747416e-01,	 1.8159814119345818e-01,	 8.6498771872454954e-03,	 1.4123315425911492e+03,	 2.4705084926612216e+02,	 7.8574923081495410e+02,	 1.9553470177391507e+03,	 5.3791287072023931e+02,	 2.6654433988538706e+00 
5.5153823331066476e-01,	 1.8260359395256209e-01,	 8.6624455788793554e-03,	 1.4125828660947930e+03,	 2.4708014919200403e+02,	 7.8528812976555309e+02,	 1.9570390409683798e+03,	 5.3775501591218062e+02,	 2.6666955791445104e+00 
5.5724043926385525e-01,	 1.8360904671166600e-01,	 8.6744559525829719e-03,	 1.4128568410142573e+03,	 2.4712301647777349e+02,	 7.8479147757601800e+02,	 1.9585130141722586e+03,	 5.3758493856267967e+02,	 2.6680550072270686e+00 
5.6294264521704573e-01,	 1.8461449947076994e-01,	 8.6856347267159385e-03,	 1.4131581759680782e+03,	 2.4717939946736939e+02,	 7.8425228866373118e+02,	 1.9596896252554268e+03,	 5.3740023367575213e+02,	 2.6695424385067130e+00 
5.6864485117023633e-01,	 1.8561995222987387e-01,	 8.6957867650029400e-03,	 1.4134897863527854e+03,	 2.4724810913893899e+02,	 7.8366639853538777e+02,	 1.9605144375992218e+03,	 5.3719945879537795e+02,	 2.6711702635627419e+00 
5.7434705712342693e-01,	 1.8662540498897778e-01,	 8.7047948972096001e-03,	 1.4138528418750693e+03,	 2.4732743373375422e+02,	 7.8303230669041773e+02,	 1.9609574081045323e+03,	 5.3698208139528379e+02,	 2.6729430334781670e+00 
5.8004926307661742e-01,	 1.8763085774808169e-01,	 8.7126140520809303e-03,	 1.4142469523737821e+03,	 2.4741538952956094e+02,	 7.8235085316442769e+02,	 1.9610107491437452e+03,	 5.3674836946611106e+02,	 2.6748584007303071e+00 
5.8575146902980790e-01,	 1.8863631050718563e-01,	 8.7192637246667672e-03,	 1.4146703419063792e+03,	 2.4750987132075824e+02,	 7.8162488411235995e+02,	 1.9606863637013710e+03,	 5.3649927844730928e+02,	 2.6769080226174422e+00 
5.9145367498299850e-01,	 1.8964176326628954e-01,	 8.7248260843490848e-03,	 1.4151199805613969e+03,	 2.4760846399052321e+02,	 7.8085910992681022e+02,	 1.9600150115736644e+03,	 5.3623640428468832e+02,	 2.6790779471475901e+00 
5.9715588093618910e-01,	 1.9064721602539347e-01,	 8.7294417611987821e-03,	 1.4155917972979298e+03,	 2.4770852039163407e+02,	 7.8005987213511639e+02,	 1.9590447061045586e+03,	 5.3596190526353587e+02,	 2.6813493875952430e+00 
6.0285808688937959e-01,	 1.9165266878449741e-01,	 8.7332970988514089e-03,	 1.4160810476689423e+03,	 2.4780747010860000e+02,	 7.7923463003233542e+02,	 1.9578364828255308e+03,	 5.3567832743402607e+02,	 2.6837003406973681e+00 
6.0856029284257007e-01,	 1.9265812154360129e-01,	 8.7366053156135264e-03,	 1.4165827553280658e+03,	 2.4790313455027223e+02,	 7.7839127464790158e+02,	 1.9564583777857933e+03,	 5.3538837015674028e+02,	 2.6861076519109743e+00 
6.1426249879576056e-01,	 1.9366357430270523e-01,	 8.7395866186484733e-03,	 1.4170921201223366e+03,	 2.4799391903910265e+02,	 7.7753745365879013e+02,	 1.9549792244143550e+03,	 5.3509465460049239e+02,	 2.6885489786849193e+00 
6.1996470474895127e-01,	 1.9466902706180916e-01,	 8.7424512670546406e-03,	 1.4176048247246651e+03,	 2.4807886099101222e+02,	 7.7668004106995170e+02,	 1.9534635068988234e+03,	 5.3479954119934018e+02,	 2.6910042889583714e+00 
6.2566691070214175e-01,	 1.9567447982091310e-01,	 8.7453875655725787e-03,	 1.4181172188822538e+03,	 2.4815756931776201e+02,	 7.7582480724948994e+02,	 1.9519678501252301e+03,	 5.3450501539108291e+02,	 2.6934567671475587e+00 
6.3136911665533235e-01,	 1.9667993258001701e-01,	 8.7485550298592851e-03,	 1.4186263932777940e+03,	 2.4823010591586802e+02,	 7.7497628191500394e+02,	 1.9505391722800371e+03,	 5.3421263937984168e+02,	 2.6958931725460515e+00 
6.3707132260852284e-01,	 1.9768538533912094e-01,	 8.7520968341148787e-03,	 1.4191294081725764e+03,	 2.4829125933145946e+02,	 7.7413812298984180e+02,	 1.9492184195828715e+03,	 5.3392367813511339e+02,	 2.6982999511167480e+00 
6.4277352856171344e-01,	 1.9869083809822485e-01,	 8.7560950335818372e-03,	 1.4196244277115543e+03,	 2.4834041789777996e+02,	 7.7331189878720261e+02,	 1.9480275589643018e+03,	 5.3363867832665903e+02,	 2.7006706566390872e+00 
6.4847573451490403e-01,	 1.9969629085732879e-01,	 8.7605633961701616e-03,	 1.4201118977380604e+03,	 2.4838819946603695e+02,	 7.7249732135807517e+02,	 1.9469686402341993e+03,	 5.3335754690014005e+02,	 2.7030099048138529e+00 
6.5417794046809452e-01,	 2.0070174361643273e-01,	 8.7655700413532441e-03,	 1.4205919789493284e+03,	 2.4843579034496946e+02,	 7.7169560275480922e+02,	 1.9460595576124965e+03,	 5.3308070861363296e+02,	 2.7053161196625344e+00 
6.5988014642128501e-01,	 2.0170719637553661e-01,	 8.7711457373334037e-03,	 1.4210645023956040e+03,	 2.4848138653254171e+02,	 7.7090689382477342e+02,	 1.9453071987686801e+03,	 5.3280822228775423e+02,	 2.7075879993417282e+00 
6.6558235237447549e-01,	 2.0271264913464052e-01,	 8.7773076464492603e-03,	 1.4215295760410395e+03,	 2.4852528264723179e+02,	 7.7013101424899378e+02,	 1.9447145861249655e+03,	 5.3254003225821407e+02,	 2.7098260137698578e+00 
6.7128455832766620e-01,	 2.0371810189374448e-01,	 8.7840650289707049e-03,	 1.4219873228695692e+03,	 2.4856704219299991e+02,	 7.6936755247382780e+02,	 1.9442824049983315e+03,	 5.3227600265539559e+02,	 2.7120308362913081e+00 