TITLE = "Final State"
VARIABLES = "X", "Y", "rho", "u", "v", "T", "p", "c", "M"
ZONE I=100, J=70, DATAPACKING=POINT
5.9511900000000003e-03,	 3.6977635000000003e-03,	 1.1586407740522199e-02,	 1.7360000000000000e+03,	 -5.8782666982981909e-15,	 3.0000000000000000e+02,	 1.0000000000000000e+03,	 3.4760788074254771e+02,	 4.9941330337264445e+00 
1.7852287500000001e-02,	 3.6996177500000001e-03,	 1.1586407740522199e-02,	 1.7360000000000000e+03,	 1.3110614898235083e-15,	 3.0000000000000000e+02,	 1.0000000000000000e+03,	 3.4760788074254771e+02,	 4.9941330337264445e+00 
2.9750799999999997e-02,	 3.7025307500000004e-03,	 1.1586407740522199e-02,	 1.7360000000000000e+03,	 5.8130943801500500e-15,	 3.0000000000000000e+02,	 1.0000000000000000e+03,	 3.4760788074254771e+02,	 4.9941330337264445e+00 
4.1647297500000000e-02,	 3.7060600000000002e-03,	 1.1586407740522199e-02,	 1.7360000000000000e+03,	 0.0000000000000000e+00,	 3.0000000000000000e+02,	 1.0000000000000000e+03,	 3.4760788074254771e+02,	 4.9941330337264445e+00 
5.3542505000000004e-02,	 3.7097565000000004e-03,	 1.1586407740522199e-02,	 1.7360000000000000e+03,	 9.3914543692857669e-16,	 3.0000000000000000e+02,	 1.0000000000000000e+03,	 3.4760788074254771e+02,	 4.9941330337264445e+00 
6.5436847500000006e-02,	 3.7134865000000000e-03,	 1.1586407740522199e-02,	 1.7360000000000000e+03,	 0.0000000000000000e+00,	 3.0000000000000000e+02,	 1.0000000000000000e+03,	 3.4760788074254771e+02,	 4.9941330337264445e+00 
7.7330677500000000e-02,	 3.7172552499999999e-03,	 1.1586407740522199e-02,	 1.7360000000000000e+03,	 0.0000000000000000e+00,	 3.0000000000000000e+02,	 1.0000000000000000e+03,	 3.4760788074254771e+02,	 4.9941330337264445e+00 
8.9224139999999993e-02,	 3.7211467500000003e-03,	 1.1586407740522199e-02,	 1.7360000000000000e+03,	 -1.5038491701404917e-15,	 3.0000000000000000e+02,	 1.0000000000000000e+03,	 3.4760788074254771e+02,	 4.9941330337264445e+00 
1.0111727500000001e-01,	 3.7252125000000001e-03,	 1.1586407740522199e-02,	 1.7360000000000000e+03,	 5.1743667013144266e-16,	 3.0000000000000000e+02,	 1.0000000000000000e+03,	 3.4760788074254771e+02,	 4.9941330337264445e+00 
1.1300997500000000e-01,	 3.7294567500000000e-03,	 1.1586407740522199e-02,	 1.7360000000000000e+03,	 0.0000000000000000e+00,	 3.0000000000000000e+02,	 1.0000000000000000e+03,	 3.4760788074254771e+02,	 4.9941330337264445e+00 
1.2490224999999999e-01,	 3.7339242499999999e-03,	 1.1586407740522199e-02,	 1.7360000000000000e+03,	 6.9528489407417205e-15,	 3.0000000000000000e+02,	 1.0000000000000000e+03,	 3.4760788074254771e+02,	 4.9941330337264445e+00 
1.3679412499999999e-01,	 3.7387039999999998e-03,	 1.1586407740522199e-02,	 1.7360000000000000e+03,	 0.0000000000000000e+00,	 3.0000000000000000e+02,	 1.0000000000000000e+03,	 3.4760788074254771e+02,	 4.9941330337264445e+00 
1.4868550000000000e-01,	 3.7438605000000001e-03,	 1.1586407740522199e-02,	 1.7360000000000000e+03,	 1.0092257159598230e-14,	 3.0000000000000000e+02,	 1.0000000000000000e+03,	 3.4760788074254771e+02,	 4.9941330337264445e+00 
1.6057637499999999e-01,	 3.7494237500000000e-03,	 1.1586407740522199e-02,	 1.7360000000000000e+03,	 0.0000000000000000e+00,	 3.0000000000000000e+02,	 1.0000000000000000e+03,	 3.4760788074254771e+02,	 4.9941330337264445e+00 
1.7246672500000002e-01,	 3.7553942500000003e-03,	 1.1586407740522199e-02,	 1.7360000000000000e+03,	 -1.2219656987112657e-15,	 3.0000000000000000e+02,	 1.0000000000000000e+03,	 3.4760788074254771e+02,	 4.9941330337264445e+00 
1.8435645000000001e-01,	 3.7617952499999999e-03,	 1.1586407740522199e-02,	 1.7360000000000000e+03,	 0.0000000000000000e+00,	 3.0000000000000000e+02,	 1.0000000000000000e+03,	 3.4760788074254771e+02,	 4.9941330337264445e+00 
1.9624552499999998e-01,	 3.7686849999999999e-03,	 1.1586407740522199e-02,	 1.7360000000000000e+03,	 0.0000000000000000e+00,	 3.0000000000000000e+02,	 1.0000000000000000e+03,	 3.4760788074254771e+02,	 4.9941330337264445e+00 
2.0813395000000001e-01,	 3.7761157500000001e-03,	 1.1586407740522199e-02,	 1.7360000000000000e+03,	 -4.2803986051039807e-15,	 3.0000000000000000e+02,	 1.0000000000000000e+03,	 3.4760788074254771e+02,	 4.9941330337264445e+00 
2.2002162500000000e-01,	 3.7841137500000000e-03,	 1.1586407740522199e-02,	 1.7360000000000000e+03,	 -4.0116203158389354e-16,	 3.0000000000000000e+02,	 1.0000000000000000e+03,	 3.4760788074254771e+02,	 4.9941330337264445e+00 
2.3190852500000000e-01,	 3.7926905000000002e-03,	 1.1586407740522199e-02,	 1.7360000000000000e+03,	 5.1415662058813213e-15,	 3.0000000000000000e+02,	 1.0000000000000000e+03,	 3.4760788074254771e+02,	 4.9941330337264445e+00 
2.4379467499999999e-01,	 3.8018729999999999e-03,	 1.1586407740522199e-02,	 1.7360000000000000e+03,	 8.0476486822129000e-15,	 3.0000000000000000e+02,	 1.0000000000000000e+03,	 3.4760788074254771e+02,	 4.9941330337264445e+00 
2.5567992500000003e-01,	 3.8117295000000004e-03,	 1.1586407740522199e-02,	 1.7360000000000000e+03,	 1.9273940017812838e-15,	 3.0000000000000000e+02,	 1.0000000000000000e+03,	 3.4760788074254771e+02,	 4.9941330337264445e+00 
2.6756422499999999e-01,	 3.8223317500000000e-03,	 1.1586407740522199e-02,	 1.7360000000000000e+03,	 0.0000000000000000e+00,	 3.0000000000000000e+02,	 1.0000000000000000e+03,	 3.4760788074254771e+02,	 4.9941330337264445e+00 
2.7944757500000000e-01,	 3.8337709999999997e-03,	 1.1586407740522199e-02,	 1.7360000000000000e+03,	 0.0000000000000000e+00,	 3.0000000000000000e+02,	 1.0000000000000000e+03,	 3.4760788074254771e+02,	 4.9941330337264445e+00 
2.9132982499999999e-01,	 3.8461444999999999e-03,	 1.1586407740522199e-02,	 1.7360000000000000e+03,	 -1.1212390133025137e-14,	 3.0000000000000000e+02,	 1.0000000000000000e+03,	 3.4760788074254771e+02,	 4.9941330337264445e+00 
3.0321094999999998e-01,	 3.8595495000000000e-03,	 1.1586407740522199e-02,	 1.7360000000000000e+03,	 2.2654308984055611e-15,	 3.0000000000000000e+02,	 1.0000000000000000e+03,	 3.4760788074254771e+02,	 4.9941330337264445e+00 
3.1509094999999998e-01,	 3.8740795000000001e-03,	 1.1586407740522199e-02,	 1.7360000000000000e+03,	 -2.2484184002674328e-15,	 3.0000000000000000e+02,	 1.0000000000000000e+03,	 3.4760788074254771e+02,	 4.9941330337264445e+00 
3.2696979999999998e-01,	 3.8898570000000000e-03,	 1.1586407740522199e-02,	 1.7360000000000000e+03,	 2.2301198819076689e-15,	 3.0000000000000000e+02,	 1.0000000000000000e+03,	 3.4760788074254771e+02,	 4.9941330337264445e+00 
3.3884737500000001e-01,	 3.9070082499999999e-03,	 1.1586407740522199e-02,	 1.7360000000000000e+03,	 0.0000000000000000e+00,	 3.0000000000000000e+02,	 1.0000000000000000e+03,	 3.4760788074254771e+02,	 4.9941330337264445e+00 
3.5072350000000002e-01,	 3.9256632500000001e-03,	 1.1586407740522199e-02,	 1.7360000000000000e+03,	 0.0000000000000000e+00,	 3.0000000000000000e+02,	 1.0000000000000000e+03,	 3.4760788074254771e+02,	 4.9941330337264445e+00 
3.6259785000000000e-01,	 3.9458762499999999e-03,	 1.1586407740522199e-02,	 1.7360000000000000e+03,	 -6.6375536284587134e-15,	 3.0000000000000000e+02,	 1.0000000000000000e+03,	 3.4760788074254771e+02,	 4.9941330337264445e+00 
3.7446917499999999e-01,	 3.9677275000000005e-03,	 1.1586407740522199e-02,	 1.7360000000000000e+03,	 0.0000000000000000e+00,	 3.0000000000000000e+02,	 1.0000000000000000e+03,	 3.4760788074254771e+02,	 4.9941330337264445e+00 
3.8633224999999999e-01,	 3.9915192500000005e-03,	 1.1586407740522199e-02,	 1.7360000000000000e+03,	 0.0000000000000000e+00,	 3.0000000000000000e+02,	 1.0000000000000000e+03,	 3.4760788074254771e+02,	 4.9941330337264445e+00 
3.9816039999999997e-01,	 4.0183495000000007e-03,	 1.1586407740522199e-02,	 1.7360000000000000e+03,	 0.0000000000000000e+00,	 3.0000000000000000e+02,	 1.0000000000000000e+03,	 3.4760788074254771e+02,	 4.9941330337264445e+00 
4.0896577499999998e-01,	 4.0511217500000000e-03,	 1.1586407740522199e-02,	 1.7360000000000000e+03,	 -6.8736298022680929e-16,	 3.0000000000000000e+02,	 1.0000000000000000e+03,	 3.4760788074254771e+02,	 4.9941330337264445e+00 
4.1874187500000004e-01,	 4.0878117499999998e-03,	 1.1586407740522199e-02,	 1.7360000000000000e+03,	 0.0000000000000000e+00,	 3.0000000000000000e+02,	 1.0000000000000000e+03,	 3.4760788074254771e+02,	 4.9941330337264445e+00 
4.2847380000000002e-01,	 4.1251034999999995e-03,	 1.1586407740522199e-02,	 1.7360000000000000e+03,	 0.0000000000000000e+00,	 3.0000000000000000e+02,	 1.0000000000000000e+03,	 3.4760788074254771e+02,	 4.9941330337264445e+00 
4.3819295000000003e-01,	 4.1646359999999993e-03,	 1.1586407740522199e-02,	 1.7360000000000000e+03,	 0.0000000000000000e+00,	 3.0000000000000000e+02,	 1.0000000000000000e+03,	 3.4760788074254771e+02,	 4.9941330337264445e+00 
4.4790585000000005e-01,	 4.2076767500000001e-03,	 1.1586407740522199e-02,	 1.7360000000000000e+03,	 -3.7097809278363856e-15,	 3.0000000000000000e+02,	 1.0000000000000000e+03,	 3.4760788074254771e+02,	 4.9941330337264445e+00 
4.5761390000000002e-01,	 4.2547252499999999e-03,	 1.1586407740522199e-02,	 1.7360000000000000e+03,	 -1.5674958803600107e-14,	 3.0000000000000000e+02,	 1.0000000000000000e+03,	 3.4760788074254771e+02,	 4.9941330337264445e+00 
4.6731690000000004e-01,	 4.3062517500000001e-03,	 1.1586407740522199e-02,	 1.7360000000000000e+03,	 -1.0580307593199994e-14,	 3.0000000000000000e+02,	 1.0000000000000000e+03,	 3.4760788074254771e+02,	 4.9941330337264445e+00 
4.7701375000000001e-01,	 4.3629924999999993e-03,	 2.9748610823145553e-02,	 7.5467018940540015e+02,	 -3.0934490535082695e+01,	 1.5132021759293143e+03,	 1.2950710187484263e+04,	 7.8068793040343473e+02,	 9.6748509582399367e-01 
4.8670230000000003e-01,	 4.4260457499999996e-03,	 5.5934094106508125e-02,	 3.0950470507670684e+02,	 -1.6064768986429829e+01,	 1.7487866939882949e+03,	 2.8141250133880847e+04,	 8.3926170441979696e+02,	 3.6927854809281974e-01 
4.9637902499999997e-01,	 4.4971519999999999e-03,	 5.6974400414315993e-02,	 2.5728497941313316e+02,	 5.0365175319729696e+00,	 1.7635992460334353e+03,	 2.8907438170698599e+04,	 8.4280856182254104e+02,	 3.0532944593730765e-01 
5.0603794999999996e-01,	 4.5799587499999999e-03,	 5.7247714662742276e-02,	 2.0698525693141292e+02,	 1.0104258915847922e+01,	 1.7751571536490383e+03,	 2.9236467560233854e+04,	 8.4556576298360801e+02,	 2.4508056691275196e-01 
5.1566504999999996e-01,	 4.6914787500000003e-03,	 5.7667106062935715e-02,	 1.4931719850039292e+02,	 1.2327400048314951e+01,	 1.7853354021880250e+03,	 2.9619512881407438e+04,	 8.4798641545394764e+02,	 1.7668349077998363e-01 
5.2519629999999995e-01,	 4.9523747500000003e-03,	 5.7817955945964693e-02,	 8.6620590291545923e+01,	 1.4451178781594322e+01,	 1.7926536800361423e+03,	 2.9818724900156089e+04,	 8.4972263085524344e+02,	 1.0334876471622112e-01 
5.3481202499999991e-01,	 5.5337974999999998e-03,	 5.7624558326601474e-02,	 2.5631053179760830e+01,	 1.6262357213241025e+01,	 1.7960378094766161e+03,	 2.9775085838153045e+04,	 8.5052429588786458e+02,	 3.5689539973561647e-02 
5.4442305000000002e-01,	 6.1260099999999994e-03,	 5.7472332924888209e-02,	 -2.0800599018065302e+01,	 1.4412026202842117e+01,	 1.7962179949495639e+03,	 2.9699408975101895e+04,	 8.5056695876449794e+02,	 2.9751403771426616e-02 
5.5374619999999997e-01,	 6.5571575000000007e-03,	 5.7320273796454296e-02,	 -6.0569518195773696e+01,	 1.2874714769228120e+01,	 1.7946478247375117e+03,	 2.9594937731042013e+04,	 8.5019511445077262e+02,	 7.2833554986745624e-02 
5.6276337500000007e-01,	 7.1357450000000006e-03,	 5.7336337872293086e-02,	 -8.9925221351620849e+01,	 9.5372988242682517e+00,	 1.7924885444213583e+03,	 2.9567613798512783e+04,	 8.4968349259272247e+02,	 1.0642734829591718e-01 
5.7131280000000007e-01,	 8.0213899999999998e-03,	 5.7587609434429046e-02,	 -1.0392115318771221e+02,	 3.9663158641385081e+00,	 1.7911748647722013e+03,	 2.9675426830962097e+04,	 8.4937207735290360e+02,	 1.2243964546113183e-01 
5.7916277499999991e-01,	 9.2185524999999994e-03,	 5.8111797320741836e-02,	 -1.0097729489627542e+02,	 -4.0887203889833126e+00,	 1.7914709116027702e+03,	 2.9950495112466084e+04,	 8.4944226690478706e+02,	 1.1897222931628622e-01 
5.8616142500000001e-01,	 1.0571667500000000e-02,	 5.8954964137674613e-02,	 -8.0450228834128026e+01,	 -1.6794658943843434e+01,	 1.7931858973528228e+03,	 3.0414146368215323e+04,	 8.4984875770913482e+02,	 9.6704910141065969e-02 
5.9010719999999994e-01,	 1.4664607499999999e-02,	 5.9553519990077027e-02,	 -3.1556393086538250e+01,	 -5.3337843960830490e+01,	 1.7946302051217426e+03,	 3.0747679576798328e+04,	 8.5019094088874920e+02,	 7.2893785254660726e-02 
5.9142062500000003e-01,	 2.1916810000000002e-02,	 5.9281445087530242e-02,	 -1.8676839727552629e+01,	 -5.1888692769848092e+01,	 1.7950240862780063e+03,	 3.0613924000309638e+04,	 8.5028423470982591e+02,	 6.4857873276276706e-02 
5.9258502499999999e-01,	 3.0042090000000000e-02,	 5.9253727786744086e-02,	 -1.3558876943211368e+01,	 -5.1614919195675995e+01,	 1.7951161654248383e+03,	 3.0601179990026620e+04,	 8.5030604289710004e+02,	 6.2761076339859209e-02 
5.9343437499999996e-01,	 3.8901537500000000e-02,	 5.9292999587570651e-02,	 -1.0252206917399963e+01,	 -5.3110382384911297e+01,	 1.7950733872582821e+03,	 3.0620731922549374e+04,	 8.5029591131037205e+02,	 6.3614152521095590e-02 
5.9396857499999989e-01,	 4.8259095000000002e-02,	 5.9340007343027412e-02,	 -8.0343066313070963e+00,	 -5.4757748743628561e+01,	 1.7950012941866098e+03,	 3.0643777422416315e+04,	 8.5027883650440435e+02,	 6.5089265862838294e-02 
5.9436849999999997e-01,	 5.7917352499999998e-02,	 5.9343425540858814e-02,	 -7.2087099709676661e+00,	 -5.6017546756212695e+01,	 1.7949344863450281e+03,	 3.0644402023071190e+04,	 8.5026301316696163e+02,	 6.6425886652546631e-02 
5.9506815000000002e-01,	 6.7785380000000006e-02,	 5.9119465911847587e-02,	 -9.2537223767034860e+00,	 -5.9088418301283447e+01,	 1.7947389285119762e+03,	 3.0525425216923923e+04,	 8.5021669389380270e+02,	 7.0345164016275163e-02 
5.9593034999999994e-01,	 7.7390935000000008e-02,	 5.9692033736302608e-02,	 -3.3948732512815218e+00,	 -6.6477394971057919e+01,	 1.7943118628696500e+03,	 3.0813727789350716e+04,	 8.5011553156442767e+02,	 7.8299973231239023e-02 
5.9640702499999998e-01,	 8.6932260000000011e-02,	 6.0513709496038202e-02,	 3.0967911341697678e+00,	 -6.0811580469968263e+01,	 1.7946680466453495e+03,	 3.1244087396388124e+04,	 8.5019990439300557e+02,	 7.1618898287296270e-02 
5.9657467499999994e-01,	 9.6863277500000011e-02,	 6.1103759751479490e-02,	 7.9771248268204218e+00,	 -4.0798137632957129e+01,	 1.7956478555841034e+03,	 3.1565962929169647e+04,	 8.5043195839286079e+02,	 4.8881857097025416e-02 
5.9667360000000003e-01,	 1.0689532500000000e-01,	 6.1428947489824096e-02,	 1.1098542510303677e+01,	 -1.1336495903439650e+01,	 1.7963777363506749e+03,	 3.1746852607945373e+04,	 8.5060477926775275e+02,	 1.8651270792721240e-02 
5.9677352499999992e-01,	 1.1692975000000000e-01,	 6.1596523616693662e-02,	 1.3010764235013887e+01,	 2.3629571676271954e+01,	 1.7961390402307482e+03,	 3.1829227052977974e+04,	 8.5054826476041546e+02,	 3.1714532803460489e-02 
5.9688812499999999e-01,	 1.2694195000000000e-01,	 6.1652466542700672e-02,	 1.4353476280737850e+01,	 6.1536353311134633e+01,	 1.7945161153467313e+03,	 3.1829349020983431e+04,	 8.5016391592434525e+02,	 7.4324692749244789e-02 
5.9701365000000006e-01,	 1.3693207499999999e-01,	 6.1588986303961431e-02,	 1.5518173170019073e+01,	 1.0195388248224361e+02,	 1.7912163352127079e+03,	 3.1738108079584232e+04,	 8.4938190990220289e+02,	 1.2141548174892576e-01 
5.9714149999999999e-01,	 1.4691255000000000e-01,	 6.1390602828143334e-02,	 1.6746075375654989e+01,	 1.4534478358143232e+02,	 1.7858671807904377e+03,	 3.1541401860700313e+04,	 8.4811269633542440e+02,	 1.7250810345951845e-01 
5.9726252499999999e-01,	 1.5690219999999999e-01,	 6.1036299701025941e-02,	 1.8309864931143384e+01,	 1.9274556056814802e+02,	 1.7778811685436717e+03,	 3.1219134888121644e+04,	 8.4621428325044474e+02,	 2.2879935264544510e-01 
5.9737182499999997e-01,	 1.6692645000000000e-01,	 6.0467589353572791e-02,	 2.0581674370906221e+01,	 2.4583126281874056e+02,	 1.7662753270347180e+03,	 3.0726351529690266e+04,	 8.4344775721796771e+02,	 2.9247968658122936e-01 
5.9748460000000003e-01,	 1.7702244999999997e-01,	 5.9543454953435909e-02,	 2.4246312197507219e+01,	 3.0738039977834450e+02,	 1.7492851551469803e+03,	 2.9965710445330817e+04,	 8.3938130435649180e+02,	 3.6733626968415828e-01 
5.9769582499999996e-01,	 1.8718725000000000e-01,	 5.7922883188330908e-02,	 3.0697568476886556e+01,	 3.8314875062351371e+02,	 1.7231283980014396e+03,	 2.8714267945437361e+04,	 8.3308210652426078e+02,	 4.6139091535007676e-01 
5.9854140000000000e-01,	 1.9700907499999998e-01,	 5.4140774298612346e-02,	 5.0440686428133567e+01,	 4.8463920789806338e+02,	 1.6785996909786729e+03,	 2.6145776166427455e+04,	 8.2224748916933072e+02,	 5.9259170518749427e-01 
6.0284959999999999e-01,	 2.0193597499999999e-01,	 9.2974418691938402e-03,	 8.2006661852128207e+02,	 5.1629790571008459e+02,	 1.3301864720121987e+03,	 3.5579999356970852e+03,	 7.3195646315765612e+02,	 1.3239280316594118e+00 
6.1005072500000002e-01,	 2.0218297499999999e-01,	 5.2879323934381557e-03,	 1.0069959697193864e+03,	 3.3405510900903039e+02,	 1.2375477150353870e+03,	 1.8826855275352309e+03,	 7.0600855383229487e+02,	 1.5027563794869876e+00 
6.1719662499999994e-01,	 2.0225327499999998e-01,	 3.8356763134282921e-03,	 1.1110804691379708e+03,	 1.9641038054313074e+02,	 1.1643332716907678e+03,	 1.2848404357867764e+03,	 6.8480613203366249e+02,	 1.6476299177644962e+00 
6.2429250000000003e-01,	 2.0229569999999999e-01,	 3.2573152921745938e-03,	 1.1654048022630861e+03,	 1.0525087766466559e+02,	 1.1165794076969016e+03,	 1.0463557129670651e+03,	 6.7061581897931046e+02,	 1.7448856165988782e+00 
6.3135707500000005e-01,	 2.0234022500000001e-01,	 3.0384493871209533e-03,	 1.1919321818285712e+03,	 5.0453503448930164e+01,	 1.0897642474318548e+03,	 9.5260860365291296e+02,	 6.6251431171300248e+02,	 1.8007151096644152e+00 
6.3840245000000007e-01,	 2.0238912500000000e-01,	 2.9800847381443985e-03,	 1.2033034941601672e+03,	 2.0160186624440239e+01,	 1.0773016462576211e+03,	 9.2362541416006866e+02,	 6.5871514437674364e+02,	 1.8269996899293486e+00 
6.4543545000000002e-01,	 2.0244122500000000e-01,	 2.9958061564077003e-03,	 1.2063588151672275e+03,	 4.6680458615800111e+00,	 1.0738368290387073e+03,	 9.2551175925458210e+02,	 6.5765501156955020e+02,	 1.8343475309862920e+00 
6.5245987499999991e-01,	 2.0249629999999999e-01,	 3.0462084384773654e-03,	 1.2053335942294739e+03,	 -2.6157931719777099e+00,	 1.0750720175775500e+03,	 9.4216531567474431e+02,	 6.5803313906926985e+02,	 1.8317260348080595e+00 
6.5947834999999999e-01,	 2.0255347499999998e-01,	 3.1131403728113039e-03,	 1.2025744187832386e+03,	 -5.7927630968955395e+00,	 1.0783578331594263e+03,	 9.6580964578719454e+02,	 6.5903796754836378e+02,	 1.8247634122729737e+00 
6.6649270000000005e-01,	 2.0261155000000000e-01,	 3.1883711701858764e-03,	 1.1990358095966510e+03,	 -7.1038762310991421e+00,	 1.0825693983027186e+03,	 9.9301213875581379e+02,	 6.6032366163481277e+02,	 1.8158623158518701e+00 
6.7350425000000014e-01,	 2.0266962499999999e-01,	 3.2681978147741310e-03,	 1.1951346676787473e+03,	 -7.6202849092563527e+00,	 1.0872035081985944e+03,	 1.0222311664044353e+03,	 6.6173546243617216e+02,	 1.8060977975080135e+00 
6.8051390000000000e-01,	 2.0272727499999998e-01,	 3.3507975893393919e-03,	 1.1910603082647399e+03,	 -7.8096005351597668e+00,	 1.0920297366510140e+03,	 1.0527193273947478e+03,	 6.6320259809528693e+02,	 1.7959608641301172e+00 
6.8752232499999999e-01,	 2.0278435000000000e-01,	 3.4351515052267003e-03,	 1.1869468414814103e+03,	 -7.8652853401889136e+00,	 1.0968865950281779e+03,	 1.0840206681132540e+03,	 6.6467577572394555e+02,	 1.7857923278456465e+00 
6.9453009999999993e-01,	 2.0284089999999999e-01,	 3.5206750299198986e-03,	 1.1830038117658933e+03,	 -7.8780977404202757e+00,	 1.1015267545649795e+03,	 1.1157089774029885e+03,	 6.6608018104709197e+02,	 1.7761075570880214e+00 
7.0153770000000004e-01,	 2.0289715000000003e-01,	 3.6067650191864567e-03,	 1.1791980422195511e+03,	 -7.8533474344462570e+00,	 1.1059910317764900e+03,	 1.1476233917880963e+03,	 6.6742856401947017e+02,	 1.7668170899121940e+00 
7.0854565000000003e-01,	 2.0295350000000001e-01,	 3.6927929801269404e-03,	 1.1755380278166124e+03,	 -7.7874745236137874e+00,	 1.1102710906645345e+03,	 1.1795434160047632e+03,	 6.6871875313445855e+02,	 1.7579345823530153e+00 
7.1555455000000001e-01,	 2.0301005000000000e-01,	 3.7780943411647636e-03,	 1.1720341722167445e+03,	 -7.6755429161729882e+00,	 1.1143564409883434e+03,	 1.2112306816817338e+03,	 6.6994793125655838e+02,	 1.7494782063998817e+00 
7.2256520000000002e-01,	 2.0306584999999999e-01,	 3.8619461272146544e-03,	 1.1686403542915380e+03,	 -7.5088474779346619e+00,	 1.1183022925356931e+03,	 1.2424970432117848e+03,	 6.7113300050211012e+02,	 1.7413306697945208e+00 
7.2957864999999988e-01,	 2.0311997499999998e-01,	 3.9438467641100530e-03,	 1.1653689743567295e+03,	 -7.2965570262280899e+00,	 1.1220953131627364e+03,	 1.2731504215819650e+03,	 6.7227020036558702e+02,	 1.7335169935247285e+00 
7.3659612499999993e-01,	 2.0317279999999999e-01,	 4.0234776497785696e-03,	 1.1622670770569916e+03,	 -7.0535654417820499e+00,	 1.1256822618970871e+03,	 1.3030088136966681e+03,	 6.7334385012115911e+02,	 1.7261440495621074e+00 
7.4361917500000008e-01,	 2.0322517500000001e-01,	 4.1005984181379787e-03,	 1.1593747178033466e+03,	 -6.7908832585957901e+00,	 1.1290184895367661e+03,	 1.3319202799015643e+03,	 6.7434091938540166e+02,	 1.7193003904276296e+00 
7.5064960000000003e-01,	 2.0327897499999997e-01,	 4.1752603698425421e-03,	 1.1568088194262300e+03,	 -6.5326322056725017e+00,	 1.1319713091340632e+03,	 1.3597182298060636e+03,	 6.7522217458903629e+02,	 1.7132542562679773e+00 
7.5769089999999995e-01,	 2.0333684999999999e-01,	 4.2476478136643306e-03,	 1.1546772272228836e+03,	 -6.2963648003558008e+00,	 1.1344194450262571e+03,	 1.3862836475742481e+03,	 6.7595193815713662e+02,	 1.7082492536914162e+00 
7.6475317500000006e-01,	 2.0340259999999999e-01,	 4.3185330435891655e-03,	 1.1532452721813772e+03,	 -6.1237487565397268e+00,	 1.1360615635608794e+03,	 1.4114582971305285e+03,	 6.7644099527413005e+02,	 1.7048959757322155e+00 
7.7191517500000006e-01,	 2.0343524999999998e-01,	 4.3794043056934592e-03,	 1.1492442713783503e+03,	 -5.1341237289495059e+00,	 1.1406415687808274e+03,	 1.4371237716475525e+03,	 6.7780315168556194e+02,	 1.6955597455289331e+00 
7.7927200000000008e-01,	 2.0343012499999999e-01,	 4.4371549035914747e-03,	 1.1455703928825899e+03,	 -4.6772623326186258e+00,	 1.1448302605587926e+03,	 1.4614219575731377e+03,	 6.7904653386631230e+02,	 1.6870418802432343e+00 
5.9442975000000000e-03,	 1.0891830999999999e-02,	 1.1586407740522199e-02,	 1.7360000000000000e+03,	 7.9951579777893292e-15,	 3.0000000000000000e+02,	 1.0000000000000000e+03,	 3.4760788074254771e+02,	 4.9941330337264445e+00 
1.7828220000000002e-02,	 1.0895000250000000e-02,	 1.1586407740522199e-02,	 1.7360000000000000e+03,	 0.0000000000000000e+00,	 3.0000000000000000e+02,	 1.0000000000000000e+03,	 3.4760788074254771e+02,	 4.9941330337264445e+00 
2.9703242500000001e-02,	 1.0901225750000000e-02,	 1.1586407740522199e-02,	 1.7360000000000000e+03,	 -7.0004656856157374e-15,	 3.0000000000000000e+02,	 1.0000000000000000e+03,	 3.4760788074254771e+02,	 4.9941330337264445e+00 
4.1571742500000002e-02,	 1.0908085000000000e-02,	 1.1586407740522199e-02,	 1.7360000000000000e+03,	 -6.5706256962896929e-15,	 3.0000000000000000e+02,	 1.0000000000000000e+03,	 3.4760788074254771e+02,	 4.9941330337264445e+00 
5.3436027500000004e-02,	 1.0914399000000000e-02,	 1.1586407740522199e-02,	 1.7360000000000000e+03,	 0.0000000000000000e+00,	 3.0000000000000000e+02,	 1.0000000000000000e+03,	 3.4760788074254771e+02,	 4.9941330337264445e+00 
6.5297407500000001e-02,	 1.0920061500000001e-02,	 1.1586407740522199e-02,	 1.7360000000000000e+03,	 0.0000000000000000e+00,	 3.0000000000000000e+02,	 1.0000000000000000e+03,	 3.4760788074254771e+02,	 4.9941330337264445e+00 
7.7157030000000001e-02,	 1.0925277750000000e-02,	 1.1586407740522199e-02,	 1.7360000000000000e+03,	 -1.3290566151059418e-14,	 3.0000000000000000e+02,	 1.0000000000000000e+03,	 3.4760788074254771e+02,	 4.9941330337264445e+00 
8.9015332499999988e-02,	 1.0930369249999999e-02,	 1.1586407740522199e-02,	 1.7360000000000000e+03,	 -7.2911020396782553e-15,	 3.0000000000000000e+02,	 1.0000000000000000e+03,	 3.4760788074254771e+02,	 4.9941330337264445e+00 
1.0087238000000000e-01,	 1.0935657499999999e-02,	 1.1586407740522199e-02,	 1.7360000000000000e+03,	 -4.2907084538208377e-15,	 3.0000000000000000e+02,	 1.0000000000000000e+03,	 3.4760788074254771e+02,	 4.9941330337264445e+00 
1.1272797499999999e-01,	 1.0941356749999999e-02,	 1.1586407740522199e-02,	 1.7360000000000000e+03,	 8.6562094787281657e-15,	 3.0000000000000000e+02,	 1.0000000000000000e+03,	 3.4760788074254771e+02,	 4.9941330337264445e+00 
1.2458210000000002e-01,	 1.0947746749999999e-02,	 1.1586407740522199e-02,	 1.7360000000000000e+03,	 7.1556335875139177e-16,	 3.0000000000000000e+02,	 1.0000000000000000e+03,	 3.4760788074254771e+02,	 4.9941330337264445e+00 
1.3643474999999999e-01,	 1.0955151500000000e-02,	 1.1586407740522199e-02,	 1.7360000000000000e+03,	 4.8660489303584801e-15,	 3.0000000000000000e+02,	 1.0000000000000000e+03,	 3.4760788074254771e+02,	 4.9941330337264445e+00 
1.4828582499999998e-01,	 1.0963828000000000e-02,	 1.1586407740522199e-02,	 1.7360000000000000e+03,	 -9.0861998759248471e-15,	 3.0000000000000000e+02,	 1.0000000000000000e+03,	 3.4760788074254771e+02,	 4.9941330337264445e+00 
1.6013517500000002e-01,	 1.0973946250000000e-02,	 1.1586407740522199e-02,	 1.7360000000000000e+03,	 4.7195994990126022e-15,	 3.0000000000000000e+02,	 1.0000000000000000e+03,	 3.4760788074254771e+02,	 4.9941330337264445e+00 
1.7198262500000000e-01,	 1.0985616750000000e-02,	 1.1586407740522199e-02,	 1.7360000000000000e+03,	 2.5007345866396256e-15,	 3.0000000000000000e+02,	 1.0000000000000000e+03,	 3.4760788074254771e+02,	 4.9941330337264445e+00 
1.8382795000000002e-01,	 1.0998970250000000e-02,	 1.1586407740522199e-02,	 1.7360000000000000e+03,	 0.0000000000000000e+00,	 3.0000000000000000e+02,	 1.0000000000000000e+03,	 3.4760788074254771e+02,	 4.9941330337264445e+00 
1.9567099999999998e-01,	 1.1014202500000000e-02,	 1.1586407740522199e-02,	 1.7360000000000000e+03,	 0.0000000000000000e+00,	 3.0000000000000000e+02,	 1.0000000000000000e+03,	 3.4760788074254771e+02,	 4.9941330337264445e+00 
2.0751167500000001e-01,	 1.1031500749999999e-02,	 1.1586407740522199e-02,	 1.7360000000000000e+03,	 0.0000000000000000e+00,	 3.0000000000000000e+02,	 1.0000000000000000e+03,	 3.4760788074254771e+02,	 4.9941330337264445e+00 
2.1934972500000000e-01,	 1.1051016250000000e-02,	 1.1586407740522199e-02,	 1.7360000000000000e+03,	 0.0000000000000000e+00,	 3.0000000000000000e+02,	 1.0000000000000000e+03,	 3.4760788074254771e+02,	 4.9941330337264445e+00 
2.3118497499999999e-01,	 1.1072878000000001e-02,	 1.1586407740522199e-02,	 1.7360000000000000e+03,	 -9.3327476073913021e-15,	 3.0000000000000000e+02,	 1.0000000000000000e+03,	 3.4760788074254771e+02,	 4.9941330337264445e+00 
2.4301727499999998e-01,	 1.1097273000000001e-02,	 1.1586407740522199e-02,	 1.7360000000000000e+03,	 -1.0284901524563140e-14,	 3.0000000000000000e+02,	 1.0000000000000000e+03,	 3.4760788074254771e+02,	 4.9941330337264445e+00 
2.5484635000000000e-01,	 1.1124479499999999e-02,	 1.1586407740522199e-02,	 1.7360000000000000e+03,	 -4.8398439095894999e-15,	 3.0000000000000000e+02,	 1.0000000000000000e+03,	 3.4760788074254771e+02,	 4.9941330337264445e+00 
2.6667190000000002e-01,	 1.1154801750000000e-02,	 1.1586407740522199e-02,	 1.7360000000000000e+03,	 -1.9821313124198818e-14,	 3.0000000000000000e+02,	 1.0000000000000000e+03,	 3.4760788074254771e+02,	 4.9941330337264445e+00 
2.7849367500000000e-01,	 1.1188603500000000e-02,	 1.1586407740522199e-02,	 1.7360000000000000e+03,	 -1.9637574688964186e-14,	 3.0000000000000000e+02,	 1.0000000000000000e+03,	 3.4760788074254771e+02,	 4.9941330337264445e+00 
2.9031134999999997e-01,	 1.1226279500000000e-02,	 1.1586407740522199e-02,	 1.7360000000000000e+03,	 7.9271689262566459e-15,	 3.0000000000000000e+02,	 1.0000000000000000e+03,	 3.4760788074254771e+02,	 4.9941330337264445e+00 
3.0212475000000000e-01,	 1.1268222000000000e-02,	 1.1586407740522199e-02,	 1.7360000000000000e+03,	 -4.7202057535717975e-15,	 3.0000000000000000e+02,	 1.0000000000000000e+03,	 3.4760788074254771e+02,	 4.9941330337264445e+00 
3.1393370000000004e-01,	 1.1314864499999999e-02,	 1.1586407740522199e-02,	 1.7360000000000000e+03,	 0.0000000000000000e+00,	 3.0000000000000000e+02,	 1.0000000000000000e+03,	 3.4760788074254771e+02,	 4.9941330337264445e+00 
3.2573797500000001e-01,	 1.1366744500000000e-02,	 1.1586407740522199e-02,	 1.7360000000000000e+03,	 0.0000000000000000e+00,	 3.0000000000000000e+02,	 1.0000000000000000e+03,	 3.4760788074254771e+02,	 4.9941330337264445e+00 
3.3753705000000001e-01,	 1.1424455750000000e-02,	 1.1586407740522199e-02,	 1.7360000000000000e+03,	 0.0000000000000000e+00,	 3.0000000000000000e+02,	 1.0000000000000000e+03,	 3.4760788074254771e+02,	 4.9941330337264445e+00 
3.4933045000000001e-01,	 1.1488618250000001e-02,	 1.1586407740522199e-02,	 1.7360000000000000e+03,	 3.0172777114043373e-15,	 3.0000000000000000e+02,	 1.0000000000000000e+03,	 3.4760788074254771e+02,	 4.9941330337264445e+00 
3.6111712499999998e-01,	 1.1559611250000001e-02,	 1.1586407740522199e-02,	 1.7360000000000000e+03,	 9.1186169709947011e-15,	 3.0000000000000000e+02,	 1.0000000000000000e+03,	 3.4760788074254771e+02,	 4.9941330337264445e+00 
3.7289442499999997e-01,	 1.1637820000000000e-02,	 1.1586407740522199e-02,	 1.7360000000000000e+03,	 1.2489021773884671e-14,	 3.0000000000000000e+02,	 1.0000000000000000e+03,	 3.4760788074254771e+02,	 4.9941330337264445e+00 
3.8465300000000002e-01,	 1.1723726750000002e-02,	 1.1586407740522199e-02,	 1.7360000000000000e+03,	 0.0000000000000000e+00,	 3.0000000000000000e+02,	 1.0000000000000000e+03,	 3.4760788074254771e+02,	 4.9941330337264445e+00 