TITLE = "Final State"
VARIABLES = "X", "Y", "rho", "u", "v", "T", "p", "c", "M"
ZONE I=100, J=69, DATAPACKING=POINT
5.1880774999999999e-03,	 5.0729302499999995e-01,	 1.1586407740522199e-02,	 1.7360000000000000e+03,	 0.0000000000000000e+00,	 3.0000000000000000e+02,	 1.0000000000000000e+03,	 3.4760788074254771e+02,	 4.9941330337264445e+00 
1.5322269999999999e-02,	 5.0724442499999989e-01,	 1.1586407740522199e-02,	 1.7360000000000000e+03,	 -5.5969535240603023e-15,	 3.0000000000000000e+02,	 1.0000000000000000e+03,	 3.4760788074254771e+02,	 4.9941330337264445e+00 
2.5061927499999997e-02,	 5.0712124999999997e-01,	 1.1586407740522199e-02,	 1.7360000000000000e+03,	 0.0000000000000000e+00,	 3.0000000000000000e+02,	 1.0000000000000000e+03,	 3.4760788074254771e+02,	 4.9941330337264445e+00 
3.4565732500000002e-02,	 5.0695382499999997e-01,	 1.1586407740522199e-02,	 1.7360000000000000e+03,	 3.5884931926932377e-15,	 3.0000000000000000e+02,	 1.0000000000000000e+03,	 3.4760788074254771e+02,	 4.9941330337264445e+00 
4.3927147499999999e-02,	 5.0676022499999995e-01,	 1.1586407740522199e-02,	 1.7360000000000000e+03,	 0.0000000000000000e+00,	 3.0000000000000000e+02,	 1.0000000000000000e+03,	 3.4760788074254771e+02,	 4.9941330337264445e+00 
5.3198044999999999e-02,	 5.0654935000000001e-01,	 1.1586407740522199e-02,	 1.7360000000000000e+03,	 -2.5239276337096228e-15,	 3.0000000000000000e+02,	 1.0000000000000000e+03,	 3.4760788074254771e+02,	 4.9941330337264445e+00 
6.2418517500000006e-02,	 5.0632849999999996e-01,	 1.1586407740522199e-02,	 1.7360000000000000e+03,	 0.0000000000000000e+00,	 3.0000000000000000e+02,	 1.0000000000000000e+03,	 3.4760788074254771e+02,	 4.9941330337264445e+00 
7.1608945000000007e-02,	 5.0610354999999996e-01,	 1.1586407740522199e-02,	 1.7360000000000000e+03,	 -1.8232846796868964e-14,	 3.0000000000000000e+02,	 1.0000000000000000e+03,	 3.4760788074254771e+02,	 4.9941330337264445e+00 
8.0779644999999997e-02,	 5.0588034999999998e-01,	 1.1586407740522199e-02,	 1.7360000000000000e+03,	 -1.9224882066896857e-14,	 3.0000000000000000e+02,	 1.0000000000000000e+03,	 3.4760788074254771e+02,	 4.9941330337264445e+00 
8.9935569999999992e-02,	 5.0566354999999996e-01,	 1.1586407740522199e-02,	 1.7360000000000000e+03,	 -3.5700911593746772e-15,	 3.0000000000000000e+02,	 1.0000000000000000e+03,	 3.4760788074254771e+02,	 4.9941330337264445e+00 
9.9080447500000002e-02,	 5.0545585000000004e-01,	 1.1586407740522199e-02,	 1.7360000000000000e+03,	 -1.0407151940045755e-14,	 3.0000000000000000e+02,	 1.0000000000000000e+03,	 3.4760788074254771e+02,	 4.9941330337264445e+00 
1.0821532500000000e-01,	 5.0526032500000007e-01,	 1.1586407740522199e-02,	 1.7360000000000000e+03,	 5.7517471261558250e-16,	 3.0000000000000000e+02,	 1.0000000000000000e+03,	 3.4760788074254771e+02,	 4.9941330337264445e+00 
1.1734030000000001e-01,	 5.0508025000000001e-01,	 1.1586407740522199e-02,	 1.7360000000000000e+03,	 -4.6708959233409168e-15,	 3.0000000000000000e+02,	 1.0000000000000000e+03,	 3.4760788074254771e+02,	 4.9941330337264445e+00 
1.2645420000000002e-01,	 5.0491890000000006e-01,	 1.1586407740522199e-02,	 1.7360000000000000e+03,	 5.3826624957124433e-15,	 3.0000000000000000e+02,	 1.0000000000000000e+03,	 3.4760788074254771e+02,	 4.9941330337264445e+00 
1.3555507500000000e-01,	 5.0477912500000000e-01,	 1.1586407740522199e-02,	 1.7360000000000000e+03,	 2.9523782352749456e-15,	 3.0000000000000000e+02,	 1.0000000000000000e+03,	 3.4760788074254771e+02,	 4.9941330337264445e+00 
1.4464107500000001e-01,	 5.0466404999999992e-01,	 1.1586407740522199e-02,	 1.7360000000000000e+03,	 0.0000000000000000e+00,	 3.0000000000000000e+02,	 1.0000000000000000e+03,	 3.4760788074254771e+02,	 4.9941330337264445e+00 
1.5371074999999998e-01,	 5.0457682500000001e-01,	 1.1586407740522199e-02,	 1.7360000000000000e+03,	 6.2494044785899815e-15,	 3.0000000000000000e+02,	 1.0000000000000000e+03,	 3.4760788074254771e+02,	 4.9941330337264445e+00 
1.6276209999999999e-01,	 5.0452017499999990e-01,	 1.1586407740522199e-02,	 1.7360000000000000e+03,	 2.1956055083131210e-15,	 3.0000000000000000e+02,	 1.0000000000000000e+03,	 3.4760788074254771e+02,	 4.9941330337264445e+00 
1.7179227499999999e-01,	 5.0449639999999996e-01,	 1.1586407740522199e-02,	 1.7360000000000000e+03,	 0.0000000000000000e+00,	 3.0000000000000000e+02,	 1.0000000000000000e+03,	 3.4760788074254771e+02,	 4.9941330337264445e+00 
1.8079892500000000e-01,	 5.0450784999999998e-01,	 1.1586407740522199e-02,	 1.7360000000000000e+03,	 0.0000000000000000e+00,	 3.0000000000000000e+02,	 1.0000000000000000e+03,	 3.4760788074254771e+02,	 4.9941330337264445e+00 
1.8977954999999999e-01,	 5.0455682499999999e-01,	 1.1586407740522199e-02,	 1.7360000000000000e+03,	 0.0000000000000000e+00,	 3.0000000000000000e+02,	 1.0000000000000000e+03,	 3.4760788074254771e+02,	 4.9941330337264445e+00 
1.9873160000000001e-01,	 5.0464559999999992e-01,	 1.1586407740522199e-02,	 1.7360000000000000e+03,	 5.3588542267027862e-15,	 3.0000000000000000e+02,	 1.0000000000000000e+03,	 3.4760788074254771e+02,	 4.9941330337264445e+00 
2.0765244999999999e-01,	 5.0477620000000001e-01,	 1.1586407740522199e-02,	 1.7360000000000000e+03,	 5.3788856791315329e-15,	 3.0000000000000000e+02,	 1.0000000000000000e+03,	 3.4760788074254771e+02,	 4.9941330337264445e+00 
2.1653934999999999e-01,	 5.0495062499999999e-01,	 1.1586407740522199e-02,	 1.7360000000000000e+03,	 8.9574904130562407e-15,	 3.0000000000000000e+02,	 1.0000000000000000e+03,	 3.4760788074254771e+02,	 4.9941330337264445e+00 
2.2538967499999998e-01,	 5.0517067500000001e-01,	 1.1586407740522199e-02,	 1.7360000000000000e+03,	 4.3659983966420627e-15,	 3.0000000000000000e+02,	 1.0000000000000000e+03,	 3.4760788074254771e+02,	 4.9941330337264445e+00 
2.3420050000000001e-01,	 5.0543819999999995e-01,	 1.1586407740522199e-02,	 1.7360000000000000e+03,	 1.9940620766823246e-16,	 3.0000000000000000e+02,	 1.0000000000000000e+03,	 3.4760788074254771e+02,	 4.9941330337264445e+00 
2.4296877500000000e-01,	 5.0575504999999998e-01,	 1.1586407740522199e-02,	 1.7360000000000000e+03,	 -1.7370506708006756e-15,	 3.0000000000000000e+02,	 1.0000000000000000e+03,	 3.4760788074254771e+02,	 4.9941330337264445e+00 
2.5169170000000002e-01,	 5.0612270000000004e-01,	 1.1586407740522199e-02,	 1.7360000000000000e+03,	 0.0000000000000000e+00,	 3.0000000000000000e+02,	 1.0000000000000000e+03,	 3.4760788074254771e+02,	 4.9941330337264445e+00 
2.6036692500000003e-01,	 5.0654217499999998e-01,	 1.1586407740522199e-02,	 1.7360000000000000e+03,	 2.9052832335311500e-15,	 3.0000000000000000e+02,	 1.0000000000000000e+03,	 3.4760788074254771e+02,	 4.9941330337264445e+00 
2.6899160000000000e-01,	 5.0701459999999998e-01,	 1.1586407740522199e-02,	 1.7360000000000000e+03,	 0.0000000000000000e+00,	 3.0000000000000000e+02,	 1.0000000000000000e+03,	 3.4760788074254771e+02,	 4.9941330337264445e+00 
2.7756310000000001e-01,	 5.0754089999999996e-01,	 1.1586407740522199e-02,	 1.7360000000000000e+03,	 0.0000000000000000e+00,	 3.0000000000000000e+02,	 1.0000000000000000e+03,	 3.4760788074254771e+02,	 4.9941330337264445e+00 
2.8607962500000000e-01,	 5.0812162500000002e-01,	 1.1586407740522199e-02,	 1.7360000000000000e+03,	 -8.6123687482735213e-15,	 3.0000000000000000e+02,	 1.0000000000000000e+03,	 3.4760788074254771e+02,	 4.9941330337264445e+00 
2.9454010000000003e-01,	 5.0875697500000006e-01,	 1.1586407740522199e-02,	 1.7360000000000000e+03,	 -3.6768876457491143e-15,	 3.0000000000000000e+02,	 1.0000000000000000e+03,	 3.4760788074254771e+02,	 4.9941330337264445e+00 
3.0294130000000002e-01,	 5.0944785000000004e-01,	 1.1586407740522199e-02,	 1.7360000000000000e+03,	 0.0000000000000000e+00,	 3.0000000000000000e+02,	 1.0000000000000000e+03,	 3.4760788074254771e+02,	 4.9941330337264445e+00 
3.1052805000000000e-01,	 5.1012495000000002e-01,	 1.1586407740522199e-02,	 1.7360000000000000e+03,	 8.5176996605335307e-15,	 3.0000000000000000e+02,	 1.0000000000000000e+03,	 3.4760788074254771e+02,	 4.9941330337264445e+00 
3.1730985000000000e-01,	 5.1078265000000000e-01,	 1.1586407740522199e-02,	 1.7360000000000000e+03,	 1.2732585172734969e-14,	 3.0000000000000000e+02,	 1.0000000000000000e+03,	 3.4760788074254771e+02,	 4.9941330337264445e+00 
3.2404864999999994e-01,	 5.1148522499999993e-01,	 1.1586407740522199e-02,	 1.7360000000000000e+03,	 1.0026869972861116e-14,	 3.0000000000000000e+02,	 1.0000000000000000e+03,	 3.4760788074254771e+02,	 4.9941330337264445e+00 
3.3074527500000001e-01,	 5.1223189999999996e-01,	 1.1586407740522199e-02,	 1.7360000000000000e+03,	 4.8691813833194814e-15,	 3.0000000000000000e+02,	 1.0000000000000000e+03,	 3.4760788074254771e+02,	 4.9941330337264445e+00 
3.3740072499999996e-01,	 5.1302194999999995e-01,	 1.1586407740522199e-02,	 1.7360000000000000e+03,	 -7.7296002508698879e-15,	 3.0000000000000000e+02,	 1.0000000000000000e+03,	 3.4760788074254771e+02,	 4.9941330337264445e+00 
3.4401677500000000e-01,	 5.1385455000000002e-01,	 1.1586407740522199e-02,	 1.7360000000000000e+03,	 -3.5556349347977649e-15,	 3.0000000000000000e+02,	 1.0000000000000000e+03,	 3.4760788074254771e+02,	 4.9941330337264445e+00 
3.5059570000000001e-01,	 5.1472892500000000e-01,	 1.1586407740522199e-02,	 1.7360000000000000e+03,	 1.4754313601583987e-15,	 3.0000000000000000e+02,	 1.0000000000000000e+03,	 3.4760788074254771e+02,	 4.9941330337264445e+00 
3.5714010000000002e-01,	 5.1564432500000001e-01,	 1.1586407740522199e-02,	 1.7360000000000000e+03,	 0.0000000000000000e+00,	 3.0000000000000000e+02,	 1.0000000000000000e+03,	 3.4760788074254771e+02,	 4.9941330337264445e+00 
3.6365267499999998e-01,	 5.1660022499999991e-01,	 1.1586407740522199e-02,	 1.7360000000000000e+03,	 -7.3673117454454475e-15,	 3.0000000000000000e+02,	 1.0000000000000000e+03,	 3.4760788074254771e+02,	 4.9941330337264445e+00 
3.7013612499999998e-01,	 5.1759610000000000e-01,	 1.1586407740522199e-02,	 1.7360000000000000e+03,	 -3.1794829278286525e-15,	 3.0000000000000000e+02,	 1.0000000000000000e+03,	 3.4760788074254771e+02,	 4.9941330337264445e+00 
3.7659300000000001e-01,	 5.1863124999999999e-01,	 1.1586407740522199e-02,	 1.7360000000000000e+03,	 -4.7000076185328907e-15,	 3.0000000000000000e+02,	 1.0000000000000000e+03,	 3.4760788074254771e+02,	 4.9941330337264445e+00 
3.8302592499999999e-01,	 5.1970499999999997e-01,	 1.1586407740522199e-02,	 1.7360000000000000e+03,	 -1.8330260699745948e-15,	 3.0000000000000000e+02,	 1.0000000000000000e+03,	 3.4760788074254771e+02,	 4.9941330337264445e+00 
3.8943755000000002e-01,	 5.2081682499999993e-01,	 1.1586407740522199e-02,	 1.7360000000000000e+03,	 3.5424820638929335e-15,	 3.0000000000000000e+02,	 1.0000000000000000e+03,	 3.4760788074254771e+02,	 4.9941330337264445e+00 
3.9583045000000000e-01,	 5.2196617499999998e-01,	 1.1586407740522199e-02,	 1.7360000000000000e+03,	 -9.2343351951014699e-17,	 3.0000000000000000e+02,	 1.0000000000000000e+03,	 3.4760788074254771e+02,	 4.9941330337264445e+00 
4.0220717500000003e-01,	 5.2315255000000005e-01,	 1.1586407740522199e-02,	 1.7360000000000000e+03,	 -4.7712701216821559e-15,	 3.0000000000000000e+02,	 1.0000000000000000e+03,	 3.4760788074254771e+02,	 4.9941330337264445e+00 
4.0857032500000001e-01,	 5.2437577499999999e-01,	 1.1586407740522199e-02,	 1.7360000000000000e+03,	 9.2915113099956379e-16,	 3.0000000000000000e+02,	 1.0000000000000000e+03,	 3.4760788074254771e+02,	 4.9941330337264445e+00 
4.1492267500000002e-01,	 5.2563597500000003e-01,	 1.1586407740522199e-02,	 1.7360000000000000e+03,	 0.0000000000000000e+00,	 3.0000000000000000e+02,	 1.0000000000000000e+03,	 3.4760788074254771e+02,	 4.9941330337264445e+00 
4.2126687499999999e-01,	 5.2693337500000004e-01,	 1.1586407740522199e-02,	 1.7360000000000000e+03,	 0.0000000000000000e+00,	 3.0000000000000000e+02,	 1.0000000000000000e+03,	 3.4760788074254771e+02,	 4.9941330337264445e+00 
4.2760550000000003e-01,	 5.2826835000000005e-01,	 1.1586407740522199e-02,	 1.7360000000000000e+03,	 3.2265836131811532e-15,	 3.0000000000000000e+02,	 1.0000000000000000e+03,	 3.4760788074254771e+02,	 4.9941330337264445e+00 
4.3394102500000004e-01,	 5.2964137499999997e-01,	 1.1586407740522199e-02,	 1.7360000000000000e+03,	 9.3665933139730135e-17,	 3.0000000000000000e+02,	 1.0000000000000000e+03,	 3.4760788074254771e+02,	 4.9941330337264445e+00 
4.4042419999999999e-01,	 5.3108635000000004e-01,	 1.1586407740522199e-02,	 1.7360000000000000e+03,	 -4.9270517562380158e-16,	 3.0000000000000000e+02,	 1.0000000000000000e+03,	 3.4760788074254771e+02,	 4.9941330337264445e+00 
4.4705812500000003e-01,	 5.3260462500000005e-01,	 1.1586407740522199e-02,	 1.7360000000000000e+03,	 0.0000000000000000e+00,	 3.0000000000000000e+02,	 1.0000000000000000e+03,	 3.4760788074254771e+02,	 4.9941330337264445e+00 
4.5369762499999999e-01,	 5.3416425000000001e-01,	 1.1586407740522199e-02,	 1.7360000000000000e+03,	 0.0000000000000000e+00,	 3.0000000000000000e+02,	 1.0000000000000000e+03,	 3.4760788074254771e+02,	 4.9941330337264445e+00 
4.6034502500000002e-01,	 5.3576460000000004e-01,	 1.1586407740522199e-02,	 1.7360000000000000e+03,	 0.0000000000000000e+00,	 3.0000000000000000e+02,	 1.0000000000000000e+03,	 3.4760788074254771e+02,	 4.9941330337264445e+00 
4.6700267499999998e-01,	 5.3740434999999998e-01,	 1.1586407740522199e-02,	 1.7360000000000000e+03,	 0.0000000000000000e+00,	 3.0000000000000000e+02,	 1.0000000000000000e+03,	 3.4760788074254771e+02,	 4.9941330337264445e+00 
4.7367307500000000e-01,	 5.3908230000000001e-01,	 1.1586407740522199e-02,	 1.7360000000000000e+03,	 -5.6019486882332605e-15,	 3.0000000000000000e+02,	 1.0000000000000000e+03,	 3.4760788074254771e+02,	 4.9941330337264445e+00 
4.8035927499999997e-01,	 5.4079770000000005e-01,	 1.1586407740522199e-02,	 1.7360000000000000e+03,	 -2.2384357408509215e-15,	 3.0000000000000000e+02,	 1.0000000000000000e+03,	 3.4760788074254771e+02,	 4.9941330337264445e+00 
4.8706459999999996e-01,	 5.4254942500000003e-01,	 1.1586407740522199e-02,	 1.7360000000000000e+03,	 -4.5598735924713251e-15,	 3.0000000000000000e+02,	 1.0000000000000000e+03,	 3.4760788074254771e+02,	 4.9941330337264445e+00 
4.9379249999999997e-01,	 5.4433587500000002e-01,	 1.1586407740522199e-02,	 1.7360000000000000e+03,	 -1.6507891427229476e-15,	 3.0000000000000000e+02,	 1.0000000000000000e+03,	 3.4760788074254771e+02,	 4.9941330337264445e+00 
5.0054710000000002e-01,	 5.4615552500000009e-01,	 1.1586407740522199e-02,	 1.7360000000000000e+03,	 0.0000000000000000e+00,	 3.0000000000000000e+02,	 1.0000000000000000e+03,	 3.4760788074254771e+02,	 4.9941330337264445e+00 
5.0733267500000001e-01,	 5.4800572500000000e-01,	 1.1586407740522199e-02,	 1.7360000000000000e+03,	 0.0000000000000000e+00,	 3.0000000000000000e+02,	 1.0000000000000000e+03,	 3.4760788074254771e+02,	 4.9941330337264445e+00 
5.1415467500000001e-01,	 5.4988075000000003e-01,	 1.1586407740522199e-02,	 1.7360000000000000e+03,	 -5.1686559844539195e-15,	 3.0000000000000000e+02,	 1.0000000000000000e+03,	 3.4760788074254771e+02,	 4.9941330337264445e+00 
5.2101867499999999e-01,	 5.5176910000000001e-01,	 1.1586407740522199e-02,	 1.7360000000000000e+03,	 -1.0111629630370318e-15,	 3.0000000000000000e+02,	 1.0000000000000000e+03,	 3.4760788074254771e+02,	 4.9941330337264445e+00 
5.2792952500000001e-01,	 5.5365342500000003e-01,	 1.1586407740522199e-02,	 1.7360000000000000e+03,	 0.0000000000000000e+00,	 3.0000000000000000e+02,	 1.0000000000000000e+03,	 3.4760788074254771e+02,	 4.9941330337264445e+00 
5.3489022500000005e-01,	 5.5550750000000004e-01,	 1.1586407740522199e-02,	 1.7360000000000000e+03,	 0.0000000000000000e+00,	 3.0000000000000000e+02,	 1.0000000000000000e+03,	 3.4760788074254771e+02,	 4.9941330337264445e+00 
5.4190424999999998e-01,	 5.5731699999999995e-01,	 1.1586407740522199e-02,	 1.7360000000000000e+03,	 -1.7700412169374902e-15,	 3.0000000000000000e+02,	 1.0000000000000000e+03,	 3.4760788074254771e+02,	 4.9941330337264445e+00 
5.4897037500000001e-01,	 5.5905019999999994e-01,	 1.1586407740522199e-02,	 1.7360000000000000e+03,	 2.1460001656468179e-16,	 3.0000000000000000e+02,	 1.0000000000000000e+03,	 3.4760788074254771e+02,	 4.9941330337264445e+00 
5.5608429999999998e-01,	 5.6060097499999995e-01,	 1.1586407740522199e-02,	 1.7360000000000000e+03,	 -3.3250577556236691e-15,	 3.0000000000000000e+02,	 1.0000000000000000e+03,	 3.4760788074254771e+02,	 4.9941330337264445e+00 
5.6323930000000000e-01,	 5.6171640000000000e-01,	 1.1586407740522199e-02,	 1.7360000000000000e+03,	 6.6007671575227116e-15,	 3.0000000000000000e+02,	 1.0000000000000000e+03,	 3.4760788074254771e+02,	 4.9941330337264445e+00 
5.7042900000000007e-01,	 5.6194412500000013e-01,	 1.1586407740522199e-02,	 1.7360000000000000e+03,	 2.1754207749249699e-15,	 3.0000000000000000e+02,	 1.0000000000000000e+03,	 3.4760788074254771e+02,	 4.9941330337264445e+00 
5.7768160000000002e-01,	 5.6294624999999998e-01,	 1.1586407740522199e-02,	 1.7360000000000000e+03,	 0.0000000000000000e+00,	 3.0000000000000000e+02,	 1.0000000000000000e+03,	 3.4760788074254771e+02,	 4.9941330337264445e+00 
5.8501072499999995e-01,	 5.6523345000000003e-01,	 1.1586407740522199e-02,	 1.7360000000000000e+03,	 -4.6030382832028016e-15,	 3.0000000000000000e+02,	 1.0000000000000000e+03,	 3.4760788074254771e+02,	 4.9941330337264445e+00 
5.9239350000000002e-01,	 5.6739767499999993e-01,	 1.1586407740522199e-02,	 1.7360000000000000e+03,	 2.4948557646940189e-16,	 3.0000000000000000e+02,	 1.0000000000000000e+03,	 3.4760788074254771e+02,	 4.9941330337264445e+00 
5.9982022500000010e-01,	 5.6945317500000003e-01,	 1.1586407740522199e-02,	 1.7360000000000000e+03,	 7.6874147232773399e-15,	 3.0000000000000000e+02,	 1.0000000000000000e+03,	 3.4760788074254771e+02,	 4.9941330337264445e+00 
6.0728817499999999e-01,	 5.7139945000000003e-01,	 1.1586407740522199e-02,	 1.7360000000000000e+03,	 1.5207036665577192e-14,	 3.0000000000000000e+02,	 1.0000000000000000e+03,	 3.4760788074254771e+02,	 4.9941330337264445e+00 
6.1479422500000003e-01,	 5.7323722499999996e-01,	 1.1586407740522199e-02,	 1.7360000000000000e+03,	 1.4801361762009726e-14,	 3.0000000000000000e+02,	 1.0000000000000000e+03,	 3.4760788074254771e+02,	 4.9941330337264445e+00 
6.2233522500000005e-01,	 5.7496769999999997e-01,	 1.1586407740522199e-02,	 1.7360000000000000e+03,	 8.9530081472466264e-15,	 3.0000000000000000e+02,	 1.0000000000000000e+03,	 3.4760788074254771e+02,	 4.9941330337264445e+00 
6.2990767500000000e-01,	 5.7659415000000003e-01,	 1.1586407740522199e-02,	 1.7360000000000000e+03,	 6.5651481532011283e-15,	 3.0000000000000000e+02,	 1.0000000000000000e+03,	 3.4760788074254771e+02,	 4.9941330337264445e+00 
6.3750812499999998e-01,	 5.7812042499999994e-01,	 1.1586407740522199e-02,	 1.7360000000000000e+03,	 -2.5839508878476226e-15,	 3.0000000000000000e+02,	 1.0000000000000000e+03,	 3.4760788074254771e+02,	 4.9941330337264445e+00 
6.4513330000000002e-01,	 5.7955057499999996e-01,	 1.1586407740522199e-02,	 1.7360000000000000e+03,	 0.0000000000000000e+00,	 3.0000000000000000e+02,	 1.0000000000000000e+03,	 3.4760788074254771e+02,	 4.9941330337264445e+00 
6.5277937499999994e-01,	 5.8089259999999987e-01,	 1.1586407740522199e-02,	 1.7360000000000000e+03,	 -6.4217791332905612e-16,	 3.0000000000000000e+02,	 1.0000000000000000e+03,	 3.4760788074254771e+02,	 4.9941330337264445e+00 
6.6044274999999997e-01,	 5.8215567499999998e-01,	 1.1586407740522199e-02,	 1.7360000000000000e+03,	 -1.4416625310215705e-15,	 3.0000000000000000e+02,	 1.0000000000000000e+03,	 3.4760788074254771e+02,	 4.9941330337264445e+00 
6.6812069999999990e-01,	 5.8334672499999995e-01,	 1.1586407740522199e-02,	 1.7360000000000000e+03,	 0.0000000000000000e+00,	 3.0000000000000000e+02,	 1.0000000000000000e+03,	 3.4760788074254771e+02,	 4.9941330337264445e+00 
6.7581122500000002e-01,	 5.8447077500000000e-01,	 1.1586407740522199e-02,	 1.7360000000000000e+03,	 3.0326992790739509e-15,	 3.0000000000000000e+02,	 1.0000000000000000e+03,	 3.4760788074254771e+02,	 4.9941330337264445e+00 
6.8351230000000007e-01,	 5.8553417500000005e-01,	 1.1586407740522199e-02,	 1.7360000000000000e+03,	 5.4995892195374925e-15,	 3.0000000000000000e+02,	 1.0000000000000000e+03,	 3.4760788074254771e+02,	 4.9941330337264445e+00 
6.9122200000000000e-01,	 5.8654407499999994e-01,	 1.1586407740522199e-02,	 1.7360000000000000e+03,	 1.7356222306437682e-14,	 3.0000000000000000e+02,	 1.0000000000000000e+03,	 3.4760788074254771e+02,	 4.9941330337264445e+00 
6.9893915000000006e-01,	 5.8750459999999993e-01,	 1.1586407740522199e-02,	 1.7360000000000000e+03,	 1.9009778645841466e-14,	 3.0000000000000000e+02,	 1.0000000000000000e+03,	 3.4760788074254771e+02,	 4.9941330337264445e+00 
7.0666277500000008e-01,	 5.8841872499999992e-01,	 1.1586407740522199e-02,	 1.7360000000000000e+03,	 9.5364850492251068e-16,	 3.0000000000000000e+02,	 1.0000000000000000e+03,	 3.4760788074254771e+02,	 4.9941330337264445e+00 
7.1439217499999996e-01,	 5.8928859999999994e-01,	 1.1586407740522199e-02,	 1.7360000000000000e+03,	 1.2625986453070730e-14,	 3.0000000000000000e+02,	 1.0000000000000000e+03,	 3.4760788074254771e+02,	 4.9941330337264445e+00 
7.2212662500000002e-01,	 5.9011704999999992e-01,	 1.1586407740522199e-02,	 1.7360000000000000e+03,	 -7.3800952488167680e-15,	 3.0000000000000000e+02,	 1.0000000000000000e+03,	 3.4760788074254771e+02,	 4.9941330337264445e+00 
7.2986547499999999e-01,	 5.9090632499999995e-01,	 1.1586407740522199e-02,	 1.7360000000000000e+03,	 -1.1102990853492710e-15,	 3.0000000000000000e+02,	 1.0000000000000000e+03,	 3.4760788074254771e+02,	 4.9941330337264445e+00 
7.3760835000000002e-01,	 5.9165677500000002e-01,	 1.1586407740522199e-02,	 1.7360000000000000e+03,	 -6.4994429203088406e-15,	 3.0000000000000000e+02,	 1.0000000000000000e+03,	 3.4760788074254771e+02,	 4.9941330337264445e+00 
7.4535494999999996e-01,	 5.9236827500000000e-01,	 1.1586407740522199e-02,	 1.7360000000000000e+03,	 1.4329090668636121e-14,	 3.0000000000000000e+02,	 1.0000000000000000e+03,	 3.4760788074254771e+02,	 4.9941330337264445e+00 
7.5310507500000001e-01,	 5.9303954999999997e-01,	 1.1586407740522199e-02,	 1.7360000000000000e+03,	 6.7024380662794294e-13,	 3.0000000000000000e+02,	 1.0000000000000000e+03,	 3.4760788074254771e+02,	 4.9941330337264445e+00 
7.6100067500000002e-01,	 5.9371704999999997e-01,	 1.1586407740522310e-02,	 1.7360000000000000e+03,	 8.1166774003231770e-12,	 3.0000000000000006e+02,	 1.0000000000000098e+03,	 3.4760788074254771e+02,	 4.9941330337264445e+00 
7.6902202499999994e-01,	 5.9439597499999997e-01,	 1.1586407740524027e-02,	 1.7359999999999977e+03,	 7.3617300119633961e-11,	 3.0000000000002905e+02,	 1.0000000000002548e+03,	 3.4760788074256453e+02,	 4.9941330337261967e+00 
5.1774874999999995e-03,	 5.1448815000000003e-01,	 1.1586407740522199e-02,	 1.7360000000000000e+03,	 -1.1544601783739644e-14,	 3.0000000000000000e+02,	 1.0000000000000000e+03,	 3.4760788074254771e+02,	 4.9941330337264445e+00 
1.5292467500000000e-02,	 5.1444145000000008e-01,	 1.1586407740522199e-02,	 1.7360000000000000e+03,	 5.1209727559349638e-15,	 3.0000000000000000e+02,	 1.0000000000000000e+03,	 3.4760788074254771e+02,	 4.9941330337264445e+00 
2.5016117500000001e-02,	 5.1432042499999997e-01,	 1.1586407740522199e-02,	 1.7360000000000000e+03,	 -5.3429094126189945e-15,	 3.0000000000000000e+02,	 1.0000000000000000e+03,	 3.4760788074254771e+02,	 4.9941330337264445e+00 
3.4505812500000003e-02,	 5.1415527500000002e-01,	 1.1586407740522199e-02,	 1.7360000000000000e+03,	 0.0000000000000000e+00,	 3.0000000000000000e+02,	 1.0000000000000000e+03,	 3.4760788074254771e+02,	 4.9941330337264445e+00 
4.3854257499999993e-02,	 5.1396405000000001e-01,	 1.1586407740522199e-02,	 1.7360000000000000e+03,	 -3.5883757768304737e-15,	 3.0000000000000000e+02,	 1.0000000000000000e+03,	 3.4760788074254771e+02,	 4.9941330337264445e+00 
5.3112912499999998e-02,	 5.1375562500000005e-01,	 1.1586407740522199e-02,	 1.7360000000000000e+03,	 4.3605745240704718e-16,	 3.0000000000000000e+02,	 1.0000000000000000e+03,	 3.4760788074254771e+02,	 4.9941330337264445e+00 
6.2321547500000005e-02,	 5.1353722499999999e-01,	 1.1586407740522199e-02,	 1.7360000000000000e+03,	 3.7535011932358309e-16,	 3.0000000000000000e+02,	 1.0000000000000000e+03,	 3.4760788074254771e+02,	 4.9941330337264445e+00 
7.1500392500000010e-02,	 5.1331474999999993e-01,	 1.1586407740522199e-02,	 1.7360000000000000e+03,	 -9.2192537244101989e-15,	 3.0000000000000000e+02,	 1.0000000000000000e+03,	 3.4760788074254771e+02,	 4.9941330337264445e+00 
8.0659702500000000e-02,	 5.1309394999999991e-01,	 1.1586407740522199e-02,	 1.7360000000000000e+03,	 4.7759832034437890e-15,	 3.0000000000000000e+02,	 1.0000000000000000e+03,	 3.4760788074254771e+02,	 4.9941330337264445e+00 
8.9804417499999997e-02,	 5.1287939999999999e-01,	 1.1586407740522199e-02,	 1.7360000000000000e+03,	 2.3914472427357786e-15,	 3.0000000000000000e+02,	 1.0000000000000000e+03,	 3.4760788074254771e+02,	 4.9941330337264445e+00 
9.8938240000000011e-02,	 5.1267377500000000e-01,	 1.1586407740522199e-02,	 1.7360000000000000e+03,	 1.0714362189457923e-14,	 3.0000000000000000e+02,	 1.0000000000000000e+03,	 3.4760788074254771e+02,	 4.9941330337264445e+00 
1.0806227500000001e-01,	 5.1248009999999999e-01,	 1.1586407740522199e-02,	 1.7360000000000000e+03,	 1.2049018852695757e-14,	 3.0000000000000000e+02,	 1.0000000000000000e+03,	 3.4760788074254771e+02,	 4.9941330337264445e+00 
1.1717662500000001e-01,	 5.1230160000000002e-01,	 1.1586407740522199e-02,	 1.7360000000000000e+03,	 2.2484100491923055e-14,	 3.0000000000000000e+02,	 1.0000000000000000e+03,	 3.4760788074254771e+02,	 4.9941330337264445e+00 
1.2628012499999999e-01,	 5.1214152499999999e-01,	 1.1586407740522199e-02,	 1.7360000000000000e+03,	 -3.8596408345211673e-15,	 3.0000000000000000e+02,	 1.0000000000000000e+03,	 3.4760788074254771e+02,	 4.9941330337264445e+00 
1.3537092500000000e-01,	 5.1200265000000000e-01,	 1.1586407740522199e-02,	 1.7360000000000000e+03,	 -8.3620226994192584e-15,	 3.0000000000000000e+02,	 1.0000000000000000e+03,	 3.4760788074254771e+02,	 4.9941330337264445e+00 
1.4444722500000001e-01,	 5.1188800000000001e-01,	 1.1586407740522199e-02,	 1.7360000000000000e+03,	 -3.3002058411209055e-15,	 3.0000000000000000e+02,	 1.0000000000000000e+03,	 3.4760788074254771e+02,	 4.9941330337264445e+00 
1.5350759999999999e-01,	 5.1180072499999996e-01,	 1.1586407740522199e-02,	 1.7360000000000000e+03,	 1.2717059781130381e-15,	 3.0000000000000000e+02,	 1.0000000000000000e+03,	 3.4760788074254771e+02,	 4.9941330337264445e+00 
1.6255010000000000e-01,	 5.1174352499999998e-01,	 1.1586407740522199e-02,	 1.7360000000000000e+03,	 -2.3579776762962359e-15,	 3.0000000000000000e+02,	 1.0000000000000000e+03,	 3.4760788074254771e+02,	 4.9941330337264445e+00 
1.7157194999999997e-01,	 5.1171864999999994e-01,	 1.1586407740522199e-02,	 1.7360000000000000e+03,	 -1.7888702008663639e-15,	 3.0000000000000000e+02,	 1.0000000000000000e+03,	 3.4760788074254771e+02,	 4.9941330337264445e+00 
1.8057082499999999e-01,	 5.1172837499999990e-01,	 1.1586407740522199e-02,	 1.7360000000000000e+03,	 -7.3066108069324549e-15,	 3.0000000000000000e+02,	 1.0000000000000000e+03,	 3.4760788074254771e+02,	 4.9941330337264445e+00 
1.8954430000000000e-01,	 5.1177497500000002e-01,	 1.1586407740522199e-02,	 1.7360000000000000e+03,	 2.4420138950996612e-15,	 3.0000000000000000e+02,	 1.0000000000000000e+03,	 3.4760788074254771e+02,	 4.9941330337264445e+00 
1.9848987499999998e-01,	 5.1186069999999995e-01,	 1.1586407740522199e-02,	 1.7360000000000000e+03,	 1.8054529796568621e-15,	 3.0000000000000000e+02,	 1.0000000000000000e+03,	 3.4760788074254771e+02,	 4.9941330337264445e+00 
2.0740495000000000e-01,	 5.1198752500000000e-01,	 1.1586407740522199e-02,	 1.7360000000000000e+03,	 -4.7243520890842453e-15,	 3.0000000000000000e+02,	 1.0000000000000000e+03,	 3.4760788074254771e+02,	 4.9941330337264445e+00 
2.1628685000000000e-01,	 5.1215742500000005e-01,	 1.1586407740522199e-02,	 1.7360000000000000e+03,	 -1.0721169375897212e-14,	 3.0000000000000000e+02,	 1.0000000000000000e+03,	 3.4760788074254771e+02,	 4.9941330337264445e+00 
2.2513302499999999e-01,	 5.1237217499999987e-01,	 1.1586407740522199e-02,	 1.7360000000000000e+03,	 5.8730314339243945e-16,	 3.0000000000000000e+02,	 1.0000000000000000e+03,	 3.4760788074254771e+02,	 4.9941330337264445e+00 
2.3394060000000000e-01,	 5.1263359999999991e-01,	 1.1586407740522199e-02,	 1.7360000000000000e+03,	 -1.9669063281708972e-16,	 3.0000000000000000e+02,	 1.0000000000000000e+03,	 3.4760788074254771e+02,	 4.9941330337264445e+00 
2.4270657500000001e-01,	 5.1294350000000000e-01,	 1.1586407740522199e-02,	 1.7360000000000000e+03,	 -1.3209223042259929e-15,	 3.0000000000000000e+02,	 1.0000000000000000e+03,	 3.4760788074254771e+02,	 4.9941330337264445e+00 
2.5142822500000001e-01,	 5.1330332499999998e-01,	 1.1586407740522199e-02,	 1.7360000000000000e+03,	 -9.9377952299450676e-15,	 3.0000000000000000e+02,	 1.0000000000000000e+03,	 3.4760788074254771e+02,	 4.9941330337264445e+00 
2.6010322499999999e-01,	 5.1371412500000002e-01,	 1.1586407740522199e-02,	 1.7360000000000000e+03,	 -6.1963433153257974e-15,	 3.0000000000000000e+02,	 1.0000000000000000e+03,	 3.4760788074254771e+02,	 4.9941330337264445e+00 
2.6872877499999998e-01,	 5.1417700000000000e-01,	 1.1586407740522199e-02,	 1.7360000000000000e+03,	 -1.7429991696150862e-15,	 3.0000000000000000e+02,	 1.0000000000000000e+03,	 3.4760788074254771e+02,	 4.9941330337264445e+00 
2.7730230000000000e-01,	 5.1469282500000002e-01,	 1.1586407740522199e-02,	 1.7360000000000000e+03,	 2.0240241275788337e-16,	 3.0000000000000000e+02,	 1.0000000000000000e+03,	 3.4760788074254771e+02,	 4.9941330337264445e+00 
2.8582202499999998e-01,	 5.1526214999999986e-01,	 1.1586407740522199e-02,	 1.7360000000000000e+03,	 6.1130211349160014e-16,	 3.0000000000000000e+02,	 1.0000000000000000e+03,	 3.4760788074254771e+02,	 4.9941330337264445e+00 
2.9428690000000002e-01,	 5.1588519999999993e-01,	 1.1586407740522199e-02,	 1.7360000000000000e+03,	 -2.4618291379847572e-15,	 3.0000000000000000e+02,	 1.0000000000000000e+03,	 3.4760788074254771e+02,	 4.9941330337264445e+00 