TITLE = "Final State"
VARIABLES = "X", "Y", "rho", "u", "v", "T", "p", "c", "M"
ZONE I=100, J=70, DATAPACKING=POINT
7.8674827500000000e-01,	 2.0342652500000000e-01,	 4.4908380372166642e-03,	 1.1422397936681725e+03,	 -4.2611284203287392e+00,	 1.1486158184293361e+03,	 1.4839939243379704e+03,	 6.8016829337458785e+02,	 1.6793604654055689e+00 
7.9423082500000008e-01,	 2.0342487500000000e-01,	 4.5403764904471591e-03,	 1.1392525662628379e+03,	 -3.8623347745765124e+00,	 1.1520016843945866e+03,	 1.5047866091367073e+03,	 6.8117004869676794e+02,	 1.6725032398831898e+00 
8.0170592500000004e-01,	 2.0342432499999999e-01,	 4.5857492654576186e-03,	 1.1365366388522909e+03,	 -3.4824992624325417e+00,	 1.1550722813613702e+03,	 1.5238752120665572e+03,	 6.8207725517392544e+02,	 1.6662950796829752e+00 
8.0917554999999997e-01,	 2.0342382500000000e-01,	 4.6270810693414153e-03,	 1.1340706080106399e+03,	 -3.1281296532435321e+00,	 1.1578539121880929e+03,	 1.5413129010386901e+03,	 6.8289804633446568e+02,	 1.6606796992333248e+00 
8.1664245000000002e-01,	 2.0342315000000000e-01,	 4.6645103846711328e-03,	 1.1318378442988151e+03,	 -2.7987872332619488e+00,	 1.1603671335264883e+03,	 1.5571534812110328e+03,	 6.8363878901510338e+02,	 1.6556130560090427e+00 
8.2410802499999991e-01,	 2.0342227500000001e-01,	 4.6982017385270823e-03,	 1.1298303643246913e+03,	 -2.4935497561599966e+00,	 1.1626224817514319e+03,	 1.5714490885475736e+03,	 6.8430284395544595e+02,	 1.6510717819589602e+00 
8.3157294999999998e-01,	 2.0342130000000000e-01,	 4.7283293730044328e-03,	 1.1280396663617048e+03,	 -2.2111178062224797e+00,	 1.1646308533367562e+03,	 1.5842581514084864e+03,	 6.8489363821493509e+02,	 1.6470321382339057e+00 
8.3903752499999995e-01,	 2.0342025000000000e-01,	 4.7550664161883360e-03,	 1.1264516806286520e+03,	 -1.9493975108609591e+00,	 1.1664091680649130e+03,	 1.5956493121970495e+03,	 6.8541633253491852e+02,	 1.6434586016364847e+00 
8.4650199999999998e-01,	 2.0341904999999999e-01,	 4.7785888624318346e-03,	 1.1250504807518614e+03,	 -1.7065285507011161e+00,	 1.1679761991421610e+03,	 1.6056970034195861e+03,	 6.8587659477468640e+02,	 1.6403122421627150e+00 
8.5396642499999986e-01,	 2.0341777500000002e-01,	 4.7991042682373180e-03,	 1.1238323093321114e+03,	 -1.4832229091468416e+00,	 1.1693369324437986e+03,	 1.6144692957398154e+03,	 6.8627601363777558e+02,	 1.6375820599441997e+00 
8.6143082500000001e-01,	 2.0341652500000001e-01,	 4.8168074353725559e-03,	 1.1227824141809558e+03,	 -1.2778751552076510e+00,	 1.1705084969385175e+03,	 1.6220483395963809e+03,	 6.8661971924674674e+02,	 1.6352328805937688e+00 
8.6889525000000001e-01,	 2.0341524999999999e-01,	 4.8318914094427822e-03,	 1.1218864510265071e+03,	 -1.0892231224707811e+00,	 1.1715074133637765e+03,	 1.6285164287615069e+03,	 6.8691263871184401e+02,	 1.6332309475126654e+00 
8.7635962499999998e-01,	 2.0341392500000000e-01,	 4.8445511001520732e-03,	 1.1211322219531905e+03,	 -9.1648448534462434e-01,	 1.1723476841499521e+03,	 1.6339543110058635e+03,	 6.8715894067918805e+02,	 1.6315477106959160e+00 
8.8382399999999994e-01,	 2.0341254999999997e-01,	 4.8549779425920824e-03,	 1.1205079002384120e+03,	 -7.5879016982273195e-01,	 1.1730427974344411e+03,	 1.6384419384053331e+03,	 6.8736262706532261e+02,	 1.6301557766425201e+00 
8.9128837500000002e-01,	 2.0341112499999997e-01,	 4.8633573716317545e-03,	 1.1200022604109126e+03,	 -6.1527699301151562e-01,	 1.1736054885328992e+03,	 1.6420570930660510e+03,	 6.8752746608967141e+02,	 1.6290293619586989e+00 
8.9875275000000010e-01,	 2.0340967500000001e-01,	 4.8698710066414786e-03,	 1.1196063134542635e+03,	 -4.8529667227837453e-01,	 1.1740459375198448e+03,	 1.6448734297507756e+03,	 6.8765646700709988e+02,	 1.6281478795710052e+00 
9.0621717500000010e-01,	 2.0340820000000001e-01,	 4.8746844758161736e-03,	 1.1193087520619151e+03,	 -3.6756121829733568e-01,	 1.1743768488458563e+03,	 1.6469633274988937e+03,	 6.8775337006431266e+02,	 1.6274857545337085e+00 
9.1368160000000009e-01,	 2.0340670000000000e-01,	 4.8779596494919501e-03,	 1.1191032640588851e+03,	 -2.6152691602511891e-01,	 1.1746053295011275e+03,	 1.6483905192189909e+03,	 6.8782026967092122e+02,	 1.6270286642655167e+00 
9.2114602499999998e-01,	 2.0340519999999998e-01,	 4.8798485786504999e-03,	 1.1189862145559944e+03,	 -1.6667253891078887e-01,	 1.1747354789673238e+03,	 1.6492115548117949e+03,	 6.8785837479401073e+02,	 1.6267683406544182e+00 
9.2861044999999998e-01,	 2.0340367500000001e-01,	 4.8804966289707043e-03,	 1.1189588469009477e+03,	 -8.2778797654529349e-02,	 1.1747659494483287e+03,	 1.6494733554790100e+03,	 6.8786729562768278e+02,	 1.6267074435364941e+00 
9.3607487499999997e-01,	 2.0340212499999999e-01,	 4.8800389298798048e-03,	 1.1190167372051451e+03,	 -8.6537155437383176e-03,	 1.1747016672979234e+03,	 1.6492284165463618e+03,	 6.8784847562618359e+02,	 1.6268361083738798e+00 
9.4353935000000000e-01,	 2.0340057500000000e-01,	 4.8785926825505553e-03,	 1.1191521517217991e+03,	 5.7225292062877603e-02,	 1.1745512155861586e+03,	 1.6485284867022513e+03,	 6.8780442559319158e+02,	 1.6271371796127039e+00 
9.5100379999999995e-01,	 2.0339902499999998e-01,	 4.8762577608041325e-03,	 1.1193577767393522e+03,	 1.1620270663503675e-01,	 1.1743226948536019e+03,	 1.6474189074844969e+03,	 6.8773751270979881e+02,	 1.6275944849373027e+00 
9.5846825000000002e-01,	 2.0339747499999999e-01,	 4.8731204648904507e-03,	 1.1196270864838582e+03,	 1.6934731198730232e-01,	 1.1740233193033589e+03,	 1.6459392740416836e+03,	 6.8764984305941050e+02,	 1.6281936374910184e+00 
9.6593272500000005e-01,	 2.0339590000000002e-01,	 4.8692508719196861e-03,	 1.1199546825470061e+03,	 2.1770246540996624e-01,	 1.1736590429218552e+03,	 1.6441219878981233e+03,	 6.8754315266137667e+02,	 1.6289227801497010e+00 
9.7339717500000000e-01,	 2.0339432499999999e-01,	 4.8647180561379967e-03,	 1.1203353641986807e+03,	 2.6174651397443310e-01,	 1.1732355958713681e+03,	 1.6419988303415348e+03,	 6.8741911136221779e+02,	 1.6297705086418042e+00 
9.8086164999999992e-01,	 2.0339274999999998e-01,	 4.8595673781406503e-03,	 1.1207655699963996e+03,	 3.0253282162877865e-01,	 1.1727568822776843e+03,	 1.6395910378315159e+03,	 6.8727885374926962e+02,	 1.6307290770177421e+00 
9.8832615000000001e-01,	 2.0339115000000002e-01,	 4.8538481261848950e-03,	 1.1212415526609707e+03,	 3.4034619885469469e-01,	 1.1722270116659727e+03,	 1.6369214719700406e+03,	 6.8712357433210980e+02,	 1.6317903302995500e+00 
9.9579065000000000e-01,	 2.0338954999999997e-01,	 4.8475992920848348e-03,	 1.1217603222129658e+03,	 3.7566743722815887e-01,	 1.1716492502417611e+03,	 1.6340083435810755e+03,	 6.8695422043560859e+02,	 1.6329478031381190e+00 
1.0032551999999999e+00,	 2.0338794999999998e-01,	 4.8408539349355413e-03,	 1.1223210236033788e+03,	 4.0881140139300937e-01,	 1.1710244850261461e+03,	 1.6308645478381882e+03,	 6.8677104175349689e+02,	 1.6341997985146193e+00 
1.0107195000000000e+00,	 2.0338634999999999e-01,	 4.8336458247332931e-03,	 1.1229220877132400e+03,	 4.3991101256775783e-01,	 1.1703543959864712e+03,	 1.6275043327516851e+03,	 6.8657451998700390e+02,	 1.6355430345759014e+00 
1.0181840000000000e+00,	 2.0338475000000000e-01,	 4.8260016339725419e-03,	 1.1235611998172917e+03,	 4.6930132591268636e-01,	 1.1696414937317682e+03,	 1.6239407088963114e+03,	 6.8636538030912970e+02,	 1.6369725660153560e+00 
1.0256487500000000e+00,	 2.0338312500000000e-01,	 4.8179438852892185e-03,	 1.1242363758677350e+03,	 4.9739703338424984e-01,	 1.1688879209434833e+03,	 1.6201847709312146e+03,	 6.8614424006562183e+02,	 1.6384841848882166e+00 
1.0331132500000000e+00,	 2.0338149999999999e-01,	 4.8094994355930339e-03,	 1.1249453238773226e+03,	 5.2402273070163985e-01,	 1.1680961659038924e+03,	 1.6162495389561691e+03,	 6.8591181821559042e+02,	 1.6400729890529882e+00 
1.0405777500000002e+00,	 2.0337987499999999e-01,	 4.8006813664820333e-03,	 1.1256868439121911e+03,	 5.4989362055780355e-01,	 1.1672674984635185e+03,	 1.6121417023200529e+03,	 6.8566847625026821e+02,	 1.6417365202184824e+00 
1.0480422500000000e+00,	 2.0337824999999998e-01,	 4.7915131065804422e-03,	 1.1264589707246191e+03,	 5.7456891344468874e-01,	 1.1664040455153267e+03,	 1.6078726029146430e+03,	 6.8541482745286760e+02,	 1.6434705993229035e+00 
1.0555067499999999e+00,	 2.0337662499999998e-01,	 4.7820052911914518e-03,	 1.1272607341661478e+03,	 5.9869720802577142e-01,	 1.1655068224395131e+03,	 1.6034477399849941e+03,	 6.8515115882551493e+02,	 1.6452732782134203e+00 
1.0629712499999999e+00,	 2.0337497500000001e-01,	 4.7721797879623261e-03,	 1.1280903430520486e+03,	 6.2171833566551504e-01,	 1.1645777655453062e+03,	 1.5988776385536153e+03,	 6.8487802815923249e+02,	 1.6471407579042541e+00 
1.0704357500000001e+00,	 2.0337335000000001e-01,	 4.7620540829998821e-03,	 1.1289463183373748e+03,	 6.4398961463478865e-01,	 1.1636184641306625e+03,	 1.5941708544077560e+03,	 6.8459589164779868e+02,	 1.6490699342306627e+00 
1.0779000000000001e+00,	 2.0337172500000000e-01,	 4.7516388502589577e-03,	 1.1298276996773411e+03,	 6.6553802280600627e-01,	 1.1626299285428381e+03,	 1.5893328518084650e+03,	 6.8430503548900799e+02,	 1.6510588657167531e+00 
1.0853645000000001e+00,	 2.0337007500000001e-01,	 4.7409536358147420e-03,	 1.1307329262170758e+03,	 6.8615921846244610e-01,	 1.1616138450310832e+03,	 1.5843729725800958e+03,	 6.8400594502601757e+02,	 1.6531042495018102e+00 
1.0928290000000001e+00,	 2.0336842500000002e-01,	 4.7300158843215784e-03,	 1.1316605067224677e+03,	 7.0598653370322673e-01,	 1.1605718251968367e+03,	 1.5792997251650640e+03,	 6.8369908415399141e+02,	 1.6552029294256716e+00 
1.1002935000000000e+00,	 2.0336680000000001e-01,	 4.7188420471653220e-03,	 1.1326090959539620e+03,	 7.2487715301509525e-01,	 1.1595053205753552e+03,	 1.5741210399799870e+03,	 6.8338487015578369e+02,	 1.6573520681819967e+00 
1.1077580000000000e+00,	 2.0336517500000001e-01,	 4.7074449203287801e-03,	 1.1335775603220836e+03,	 7.4312945549380094e-01,	 1.1584155477825404e+03,	 1.5688432826241472e+03,	 6.8306365157486016e+02,	 1.6595492986516187e+00 
1.1152225000000000e+00,	 2.0336352499999999e-01,	 4.6958422018923973e-03,	 1.1345644814255413e+03,	 7.6041885056390590e-01,	 1.1573040479612250e+03,	 1.5634748665687503e+03,	 6.8273587311285041e+02,	 1.6617915960388401e+00 
1.1226870000000000e+00,	 2.0336187500000000e-01,	 4.6840519192611167e-03,	 1.1355683288368270e+03,	 7.7685080021421282e-01,	 1.1561724927457815e+03,	 1.5580244555875631e+03,	 6.8240201863747177e+02,	 1.6640756673447010e+00 
1.1301515000000000e+00,	 2.0336022500000001e-01,	 4.6720873013228635e-03,	 1.1365880013022993e+03,	 7.9239650166772180e-01,	 1.1550220746522300e+03,	 1.5524984356906059e+03,	 6.8206243132824648e+02,	 1.6663991818269703e+00 
1.1376162500000000e+00,	 2.0335857499999999e-01,	 4.6599647428184768e-03,	 1.1376221021257227e+03,	 8.0716768496945934e-01,	 1.1538543235280140e+03,	 1.5469046680689523e+03,	 6.8171755454861682e+02,	 1.6687591230219558e+00 
1.1450807500000000e+00,	 2.0335692499999999e-01,	 4.6476993207369387e-03,	 1.1386693700877852e+03,	 8.2092524430831015e-01,	 1.1526706213850373e+03,	 1.5412503409226679e+03,	 6.8136778873496280e+02,	 1.6711527677664477e+00 
1.1525452500000002e+00,	 2.0335527500000000e-01,	 4.6353044688441630e-03,	 1.1397286622959962e+03,	 8.3408866911690771e-01,	 1.1514722204602645e+03,	 1.5355418891920847e+03,	 6.8101349665873545e+02,	 1.6735776502136266e+00 
1.1600097500000000e+00,	 2.0335362499999998e-01,	 4.6227961906263682e-03,	 1.1407986432639257e+03,	 8.4618038203607326e-01,	 1.1502605962703478e+03,	 1.5297868622584608e+03,	 6.8065510781313935e+02,	 1.6760308473312970e+00 
1.1674742499999999e+00,	 2.0335197500000002e-01,	 4.6101862403772880e-03,	 1.1418782818307257e+03,	 8.5772119050236995e-01,	 1.1490368836968632e+03,	 1.5239909123223867e+03,	 6.8029295167964597e+02,	 1.6785101200148522e+00 
1.1749385000000001e+00,	 2.0335032500000000e-01,	 4.5974889311745015e-03,	 1.1429663573855107e+03,	 8.6832864279617072e-01,	 1.1478024375403511e+03,	 1.5181607966695642e+03,	 6.7992742351233017e+02,	 1.6810127782790731e+00 
1.1824030000000001e+00,	 2.0334864999999999e-01,	 4.5847127641377161e-03,	 1.1440621283644393e+03,	 8.7826459528254208e-01,	 1.1465580728207099e+03,	 1.5123006051598793e+03,	 6.7955875939881810e+02,	 1.6835372212494504e+00 
1.1898675000000001e+00,	 2.0334697499999999e-01,	 4.5718778698729274e-03,	 1.1451639357676902e+03,	 8.8730197427729163e-01,	 1.1453056513784641e+03,	 1.5064196136951541e+03,	 6.7918750628573150e+02,	 1.6860797186659020e+00 
1.1973319999999998e+00,	 2.0334532499999999e-01,	 4.5589902390116011e-03,	 1.1462712232603492e+03,	 8.9564589280427842e-01,	 1.1440457865781875e+03,	 1.5005207512106294e+03,	 6.7881384189360983e+02,	 1.6886390677771337e+00 
1.2047965000000000e+00,	 2.0334367500000000e-01,	 4.5460626229194331e-03,	 1.1473828813403495e+03,	 9.0337404598979187e-01,	 1.1427797245410045e+03,	 1.4946099798751145e+03,	 6.7843813213295573e+02,	 1.6912127762656217e+00 
1.2122610000000000e+00,	 2.0334199999999999e-01,	 4.5331016134113611e-03,	 1.1484983517332082e+03,	 9.1045400352371220e-01,	 1.1415080876156032e+03,	 1.4886903889387868e+03,	 6.7806055844266643e+02,	 1.6937996146612744e+00 
1.2197255000000000e+00,	 2.0334032499999999e-01,	 4.5201244785610731e-03,	 1.1496162030365729e+03,	 9.1673019779444531e-01,	 1.1402324975166880e+03,	 1.4827698508746248e+03,	 6.7768159962940194e+02,	 1.6963963152843269e+00 
1.2271900000000000e+00,	 2.0333867500000000e-01,	 4.5071339267909669e-03,	 1.1507361411582829e+03,	 9.2246089545803567e-01,	 1.1389532822027115e+03,	 1.4768497404339882e+03,	 6.7730135088171357e+02,	 1.6990022379179726e+00 
1.2346545000000000e+00,	 2.0333700000000002e-01,	 4.4941399999136513e-03,	 1.1518572815063073e+03,	 9.2770337699218053e-01,	 1.1376714465672112e+03,	 1.4709346990254444e+03,	 6.7692010898416777e+02,	 1.7016153602231654e+00 
1.2421190000000000e+00,	 2.0333532500000001e-01,	 4.4811532895903212e-03,	 1.1529787892941379e+03,	 9.3216082900784514e-01,	 1.1363879427611300e+03,	 1.4650294500238560e+03,	 6.7653815568502023e+02,	 1.7042337618689851e+00 
1.2495835000000000e+00,	 2.0333367499999999e-01,	 4.4681806774711673e-03,	 1.1540999990732178e+03,	 9.3617959468078771e-01,	 1.1351035319424225e+03,	 1.4591372298583317e+03,	 6.7615571648107982e+02,	 1.7068559070730209e+00 
1.2570479999999999e+00,	 2.0333199999999998e-01,	 4.4552252836460521e-03,	 1.1552206325118450e+03,	 9.3972880258051905e-01,	 1.1338185344779756e+03,	 1.4532594614308309e+03,	 6.7577288601913051e+02,	 1.7094811565082615e+00 
1.2645124999999999e+00,	 2.0333032500000001e-01,	 4.4423013756317792e-03,	 1.1563395124487427e+03,	 9.4262361437272346e-01,	 1.1325343042897118e+03,	 1.4474025112203349e+03,	 6.7539006734156669e+02,	 1.7121067551432292e+00 
1.2719767500000001e+00,	 2.0332865000000000e-01,	 4.4294071268733814e-03,	 1.1574567045298691e+03,	 9.4525917472611132e-01,	 1.1312507714102221e+03,	 1.4415656521508461e+03,	 6.7500723959397442e+02,	 1.7147328541365423e+00 
1.2794412499999999e+00,	 2.0332697499999999e-01,	 4.4165549572766230e-03,	 1.1585712113907123e+03,	 9.4709054112716551e-01,	 1.1299690895372034e+03,	 1.4357543470270807e+03,	 6.7462474715671226e+02,	 1.7173570987128999e+00 
1.2869057500000001e+00,	 2.0332529999999999e-01,	 4.4037446688699319e-03,	 1.1596829565004950e+03,	 9.4888828399483527e-01,	 1.1286893550074155e+03,	 1.4299685865362471e+03,	 6.7424261937467384e+02,	 1.7199792943685108e+00 
1.2943702500000001e+00,	 2.0332362500000001e-01,	 4.3909860892143810e-03,	 1.1607911589368925e+03,	 9.4993137130812022e-01,	 1.1274124779008682e+03,	 1.4242126401138580e+03,	 6.7386112884838337e+02,	 1.7225975767557922e+00 
1.3018347500000000e+00,	 2.0332195000000000e-01,	 4.3782792685862666e-03,	 1.1618957330300018e+03,	 9.5093756512646144e-01,	 1.1261385680948949e+03,	 1.4184865739997636e+03,	 6.7348030951649014e+02,	 1.7252117185207272e+00 
1.3092992500000000e+00,	 2.0332027499999999e-01,	 4.3656331518061907e-03,	 1.1629959631628174e+03,	 9.5121984276288929e-01,	 1.1248684647137989e+03,	 1.4127942473492838e+03,	 6.7310041357646958e+02,	 1.7278199934343197e+00 
1.3167637500000000e+00,	 2.0331859999999999e-01,	 4.3530463311233416e-03,	 1.1640918837359716e+03,	 9.5153821479685763e-01,	 1.1236021415107411e+03,	 1.4071350641434790e+03,	 6.7272143473544713e+02,	 1.7304224490650422e+00 
1.3242282500000000e+00,	 2.0331692499999998e-01,	 4.3405276614106800e-03,	 1.1651827940776366e+03,	 9.5115448758202592e-01,	 1.1223404240489174e+03,	 1.4015128085719512e+03,	 6.7234362182316011e+02,	 1.7330173805146625e+00 
1.3316927500000000e+00,	 2.0331525000000000e-01,	 4.3280757167050059e-03,	 1.1662687299448587e+03,	 9.5081054564776868e-01,	 1.1210832864972597e+03,	 1.3959268645802451e+03,	 6.7196696906478473e+02,	 1.7356048306156606e+00 
1.3391572500000000e+00,	 2.0331354999999998e-01,	 4.3156955776305714e-03,	 1.1673492803058416e+03,	 9.4992726821730145e-01,	 1.1198312220136959e+03,	 1.3903793596683631e+03,	 6.7159162629206128e+02,	 1.7381837728549538e+00 
1.3466217500000002e+00,	 2.0331187500000000e-01,	 4.3033921872071791e-03,	 1.1684240301926577e+03,	 9.4885706355143540e-01,	 1.1185847291259590e+03,	 1.3848723699507798e+03,	 6.7121774527585558e+02,	 1.7407531664521929e+00 
1.3540862500000002e+00,	 2.0331020000000000e-01,	 4.2911632898630812e-03,	 1.1694930867803448e+03,	 9.4749669366836620e-01,	 1.1173437020271660e+03,	 1.3794048980138834e+03,	 6.7084529669734866e+02,	 1.7433132144742918e+00 
1.3615507499999999e+00,	 2.0330852500000002e-01,	 4.2790145864152682e-03,	 1.1705560068214666e+03,	 9.4600427706017021e-01,	 1.1161086739780474e+03,	 1.3739792933616143e+03,	 6.7047444311525851e+02,	 1.7458628007461758e+00 
1.3690150000000001e+00,	 2.0330685000000001e-01,	 4.2669449694976887e-03,	 1.1716128092018657e+03,	 9.4425979777477165e-01,	 1.1148796425464857e+03,	 1.3685950494450392e+03,	 6.7010518644680258e+02,	 1.7484019127305821e+00 
1.3764794999999999e+00,	 2.0330514999999999e-01,	 4.2549565876305977e-03,	 1.1726633416204802e+03,	 9.4225737018515099e-01,	 1.1136568043796317e+03,	 1.3632529489941769e+03,	 6.6973758846375586e+02,	 1.7509301260381147e+00 
1.3839440000000001e+00,	 2.0330347500000001e-01,	 4.2430556814990281e-03,	 1.1737070621189364e+03,	 9.3997655905518707e-01,	 1.1124408108290627e+03,	 1.3579556345755714e+03,	 6.6937184786270984e+02,	 1.7534460737509678e+00 
1.3914084999999998e+00,	 2.0330180000000000e-01,	 4.2312354904540514e-03,	 1.1747444720231620e+03,	 9.3771183457279372e-01,	 1.1112310979398653e+03,	 1.3527000962386487e+03,	 6.6900779792765456e+02,	 1.7559509020898170e+00 
1.3988730000000000e+00,	 2.0330010000000001e-01,	 4.2195034345730307e-03,	 1.1757749693016647e+03,	 9.3519690447378201e-01,	 1.1100283884328298e+03,	 1.3474894325486007e+03,	 6.6864565909208375e+02,	 1.7584430934916482e+00 
1.4063375000000000e+00,	 2.0329840000000002e-01,	 4.2078563870536273e-03,	 1.1767987980354596e+03,	 9.3254161777313049e-01,	 1.1088324181860262e+03,	 1.3423221639030348e+03,	 6.6828535487063596e+02,	 1.7609231729378776e+00 
1.4138020000000000e+00,	 2.0329672500000001e-01,	 4.1962995953574037e-03,	 1.1778155048728643e+03,	 9.2969247419869716e-01,	 1.1076437378654416e+03,	 1.3372004717645787e+03,	 6.6792705426254554e+02,	 1.7633899754116305e+00 
1.4212662500000000e+00,	 2.0329505000000000e-01,	 4.1848280808385735e-03,	 1.1788254587628135e+03,	 9.2680622922309319e-01,	 1.1064619369769334e+03,	 1.3321221117988555e+03,	 6.6757063666060344e+02,	 1.7658443292121229e+00 
1.4287307500000002e+00,	 2.0329335000000001e-01,	 4.1734449587967418e-03,	 1.1798284140170340e+03,	 9.2391415463306814e-01,	 1.1052873236834482e+03,	 1.3270882895295979e+03,	 6.6721619809505000e+02,	 1.7682855709144216e+00 
1.4361952500000001e+00,	 2.0329167500000001e-01,	 4.1621519772234179e-03,	 1.1808242198293240e+03,	 9.2062682409016605e-01,	 1.1041200961054171e+03,	 1.3220996372110967e+03,	 6.6686380155161669e+02,	 1.7707132640339296e+00 
1.4436597499999999e+00,	 2.0329000000000000e-01,	 4.1509457747875185e-03,	 1.1818130969500794e+03,	 9.1756482339074630e-01,	 1.1029600157953564e+03,	 1.3171546406953810e+03,	 6.6651337822293078e+02,	 1.7731278797458720e+00 
1.4511242500000001e+00,	 2.0328830000000001e-01,	 4.1398291458440871e-03,	 1.1827948362975358e+03,	 9.1413355949450836e-01,	 1.1018073493084642e+03,	 1.3122543471979291e+03,	 6.6616501180403566e+02,	 1.7755288383316785e+00 
1.4585887500000001e+00,	 2.0328660000000001e-01,	 4.1288009544022293e-03,	 1.1837695051254057e+03,	 9.1083704372524754e-01,	 1.1006620379986946e+03,	 1.3073981670981934e+03,	 6.6581868778530213e+02,	 1.7779162364444021e+00 
1.4660530000000001e+00,	 2.0328492500000001e-01,	 4.1178640310801113e-03,	 1.1847368670588614e+03,	 9.0722069055980337e-01,	 1.0995243809210631e+03,	 1.3025871926508519e+03,	 6.6547449985524020e+02,	 1.7802894245713039e+00 
1.4735174999999998e+00,	 2.0328325000000000e-01,	 4.1070122814296081e-03,	 1.1856973828219573e+03,	 9.0371746570320877e-01,	 1.0983938562352637e+03,	 1.2978187195524272e+03,	 6.6513229332979859e+02,	 1.7826494655442702e+00 
1.4809820000000000e+00,	 2.0328155000000001e-01,	 4.0962506672038842e-03,	 1.1866506487962024e+03,	 9.0010527952364738e-01,	 1.0972709593762156e+03,	 1.2930947480608554e+03,	 6.6479222135083933e+02,	 1.7849952993756544e+00 
1.4884465000000000e+00,	 2.0327985000000001e-01,	 4.0855760603477455e-03,	 1.1875969254883346e+03,	 8.9641612669152171e-01,	 1.0961554036729055e+03,	 1.2884137965684376e+03,	 6.6445420031041169e+02,	 1.7873274986413004e+00 
1.4959110000000000e+00,	 2.0327814999999999e-01,	 4.0749910205761094e-03,	 1.1885359723073016e+03,	 8.9266534903919803e-01,	 1.0950474927842781e+03,	 1.2837768760700169e+03,	 6.6411832542086040e+02,	 1.7896454020870518e+00 
1.5033755000000000e+00,	 2.0327647500000001e-01,	 4.0644934557002056e-03,	 1.1894679779958733e+03,	 8.8881703326780670e-01,	 1.0939470240267929e+03,	 1.2791829356188987e+03,	 6.6378453844794387e+02,	 1.7919494070417374e+00 
1.5108400000000000e+00,	 2.0327480000000001e-01,	 4.0540820909067679e-03,	 1.1903929813218838e+03,	 8.8508760061861513e-01,	 1.0928539709143272e+03,	 1.2746313930028141e+03,	 6.6345283450335660e+02,	 1.7942395426730819e+00 
1.5183045000000002e+00,	 2.0327310000000001e-01,	 4.0437567245436169e-03,	 1.1913110440627017e+03,	 8.8122048784855922e-01,	 1.0917682798973137e+03,	 1.2701219746300198e+03,	 6.6312320045039223e+02,	 1.7965158950490174e+00 
1.5257689999999999e+00,	 2.0327139999999999e-01,	 4.0335193832842162e-03,	 1.1922219636499156e+03,	 8.7729318563614511e-01,	 1.0906902097204390e+03,	 1.2656554704985842e+03,	 6.6279571799495773e+02,	 1.7987778949951001e+00 
7.8663210000000006e-01,	 2.0985204999999998e-01,	 4.9027330723381678e-03,	 1.2281001464970584e+03,	 -1.3100187736475998e+01,	 1.0474795566916246e+03,	 1.4774532308891721e+03,	 6.4953381334841595e+02,	 1.8908484660120033e+00 
7.9413607499999994e-01,	 2.0984982500000002e-01,	 4.9581423552237441e-03,	 1.2254902053008152e+03,	 -1.1889219573676620e+01,	 1.0506744367199060e+03,	 1.4987082401253465e+03,	 6.5052361913658740e+02,	 1.8839406289585372e+00 
8.0162760000000000e-01,	 2.0985039999999999e-01,	 5.0090045540159053e-03,	 1.2231336038025072e+03,	 -1.0759572215653805e+01,	 1.0535525264132862e+03,	 1.5182299584372784e+03,	 6.5141399242792431e+02,	 1.8777320438526977e+00 
8.0910799999999994e-01,	 2.0985134999999999e-01,	 5.0554220878964535e-03,	 1.2210018838091237e+03,	 -9.7016947803053863e+00,	 1.0561504793909412e+03,	 1.5360776124429030e+03,	 6.5221665811237369e+02,	 1.8721392827251477e+00 
8.1658209999999998e-01,	 2.0985192499999999e-01,	 5.0975139994277234e-03,	 1.2190742438685231e+03,	 -8.7108071762875063e+00,	 1.0584951758936438e+03,	 1.5523056838901871e+03,	 6.5294023033941471e+02,	 1.8671010117727123e+00 
8.2405275000000011e-01,	 2.0985200000000001e-01,	 5.1354662763290100e-03,	 1.2173438295617436e+03,	 -7.7850857694413236e+00,	 1.0605962865334843e+03,	 1.5669672557334577e+03,	 6.5358795154153552e+02,	 1.8625935802482860e+00 
8.3152142500000004e-01,	 2.0985175000000000e-01,	 5.1694571588612346e-03,	 1.2157981775811659e+03,	 -6.9216606155037583e+00,	 1.0624700762478537e+03,	 1.5801255127955556e+03,	 6.5416505422925843e+02,	 1.8585796847663463e+00 
8.3898902500000005e-01,	 2.0985117500000000e-01,	 5.1996776884716987e-03,	 1.2144261239766111e+03,	 -6.1185557867556577e+00,	 1.0641310326711280e+03,	 1.5918475372479957e+03,	 6.5467618172287223e+02,	 1.8550263032673393e+00 
8.4645612500000000e-01,	 2.0985014999999999e-01,	 5.2263206290703215e-03,	 1.2132139707050401e+03,	 -5.3732071246544395e+00,	 1.0655965278723461e+03,	 1.6022075868569852e+03,	 6.5512682862461440e+02,	 1.8518946505375551e+00 
8.5392289999999993e-01,	 2.0984882499999999e-01,	 5.2496237960435793e-03,	 1.2121561999312021e+03,	 -4.6837796740284920e+00,	 1.0668739184225274e+03,	 1.6112807452078423e+03,	 6.5551937972286498e+02,	 1.8491676775260368e+00 
8.6138942499999993e-01,	 2.0984739999999999e-01,	 5.2697943916389083e-03,	 1.2112407183617058e+03,	 -4.0480671959017780e+00,	 1.0679783617420753e+03,	 1.6191461889770169e+03,	 6.5585859352991088e+02,	 1.8468119420564713e+00 
8.6885577500000011e-01,	 2.0984577500000001e-01,	 5.2870420442317333e-03,	 1.2104555788300668e+03,	 -3.4636705608411522e+00,	 1.0689247179775896e+03,	 1.6258849888681009e+03,	 6.5614911366332456e+02,	 1.8447948937090055e+00 
8.7632197499999998e-01,	 2.0984392499999999e-01,	 5.3015852692879584e-03,	 1.2097912583945867e+03,	 -2.9282227092135229e+00,	 1.0697248297352071e+03,	 1.6315777148889179e+03,	 6.5639463816407670e+02,	 1.8430906223754020e+00 
8.8378805000000005e-01,	 2.0984187499999998e-01,	 5.3136342092203036e-03,	 1.2092375077362422e+03,	 -2.4390289725119625e+00,	 1.0703913293495775e+03,	 1.6363046862784206e+03,	 6.5659909198129515e+02,	 1.8416717023510605e+00 
8.9125399999999999e-01,	 2.0983964999999999e-01,	 5.3233957441628094e-03,	 1.2087856273640909e+03,	 -1.9935412184195869e+00,	 1.0709349151349963e+03,	 1.6401432026155776e+03,	 6.5676579392509927e+02,	 1.8405149635195246e+00 
8.9871987499999995e-01,	 2.0983727499999999e-01,	 5.3310619438065414e-03,	 1.2084252409962091e+03,	 -1.5885692024838303e+00,	 1.0713682400010798e+03,	 1.6431697612071468e+03,	 6.5689865175020645e+02,	 1.8395931882720882e+00 
9.0618569999999998e-01,	 2.0983472499999997e-01,	 5.3368123977592975e-03,	 1.2081474538993598e+03,	 -1.2214922119204212e+00,	 1.0717021264626303e+03,	 1.6454548361892282e+03,	 6.5700100333795569e+02,	 1.8388831451600183e+00 
9.1365147499999999e-01,	 2.0983204999999999e-01,	 5.3408259445800093e-03,	 1.2079457878582546e+03,	 -8.8963493935812021e-01,	 1.0719444581212806e+03,	 1.6470646471555028e+03,	 6.5707527917438358e+02,	 1.8383679218273956e+00 
9.2111720000000008e-01,	 2.0982927500000001e-01,	 5.3432427661727500e-03,	 1.2078075497140981e+03,	 -5.9012867129631308e-01,	 1.0721105427534137e+03,	 1.6480652820084895e+03,	 6.5712618007621381e+02,	 1.8380148752267824e+00 
9.2858287500000003e-01,	 2.0982637500000001e-01,	 5.3441915474363054e-03,	 1.2077235604140647e+03,	 -3.2175788930194893e-01,	 1.0722114452315759e+03,	 1.6485130597267696e+03,	 6.5715710230734703e+02,	 1.8378004270736479e+00 
9.3604850000000006e-01,	 2.0982337499999998e-01,	 5.3438341312594421e-03,	 1.2077050784895187e+03,	 -8.2598523254626410e-02,	 1.0722337004453043e+03,	 1.6484370230607201e+03,	 6.5716392236879074e+02,	 1.8377531696518650e+00 
9.4351409999999991e-01,	 2.0982030000000002e-01,	 5.3423132954436570e-03,	 1.2077500261935068e+03,	 1.3050460331279762e-01,	 1.0721798244340539e+03,	 1.6478850792115991e+03,	 6.5714741206155998e+02,	 1.8378677463790554e+00 
9.5097965000000007e-01,	 2.0981714999999998e-01,	 5.3397440253368667e-03,	 1.2078522563299766e+03,	 3.2154596056414603e-01,	 1.0720571978036451e+03,	 1.6469041843373489e+03,	 6.5710983157588180e+02,	 1.8381284849035944e+00 
9.5844512500000001e-01,	 2.0981392499999998e-01,	 5.3362294485389027e-03,	 1.2080061804834072e+03,	 4.9370488800024870e-01,	 1.0718725185100213e+03,	 1.6455366858727366e+03,	 6.5705323020864478e+02,	 1.8385211818940759e+00 
9.6591055000000003e-01,	 2.0981059999999999e-01,	 5.3318495906946170e-03,	 1.2082059338050060e+03,	 6.4975303592274525e-01,	 1.0716328079663356e+03,	 1.6438183650160147e+03,	 6.5697975533585577e+02,	 1.8390309575072472e+00 
9.7337597499999995e-01,	 2.0980722499999999e-01,	 5.3266913749792479e-03,	 1.2084500090372862e+03,	 7.9260138041630879e-01,	 1.0713398529733408e+03,	 1.6417791381954335e+03,	 6.5688994908240511e+02,	 1.8396540709019185e+00 
9.8084137500000002e-01,	 2.0980379999999998e-01,	 5.3208068393476599e-03,	 1.2087324722566229e+03,	 9.2391019075196323e-01,	 1.0710007486212196e+03,	 1.6394463339659794e+03,	 6.5678598026732084e+02,	 1.8403754977624696e+00 
9.8830675000000001e-01,	 2.0980027500000001e-01,	 5.3142564183526076e-03,	 1.2090517064184326e+03,	 1.0456968372351370e+00,	 1.0706174066435867e+03,	 1.6368419364807880e+03,	 6.5666842844946677e+02,	 1.8411912408817814e+00 
9.9577212500000001e-01,	 2.0979672500000002e-01,	 5.3070887269961228e-03,	 1.2094051488044381e+03,	 1.1593505801068296e+00,	 1.0701928719622899e+03,	 1.6339860330879667e+03,	 6.5653822032753101e+02,	 1.8420948956860368e+00 
1.0032373999999999e+00,	 2.0979312499999997e-01,	 5.2993381289515714e-03,	 1.2097897429475859e+03,	 1.2662068127638657e+00,	 1.0697307818872835e+03,	 1.6308952257170042e+03,	 6.5639646431373922e+02,	 1.8430787966532529e+00 
1.0107024999999998e+00,	 2.0978947500000000e-01,	 5.2910408798223525e-03,	 1.2102028665857601e+03,	 1.3668317943651913e+00,	 1.0692342537628845e+03,	 1.6275858958941351e+03,	 6.5624410956270913e+02,	 1.8441363828134725e+00 
1.0181677500000001e+00,	 2.0978579999999999e-01,	 5.2822240910171585e-03,	 1.2106433532273065e+03,	 1.4621788838010621e+00,	 1.0687046554470087e+03,	 1.6240689388253697e+03,	 6.5608156855728544e+02,	 1.8452648180273796e+00 
1.0256332500000001e+00,	 2.0978205000000000e-01,	 5.2729114673239772e-03,	 1.2111085923674875e+03,	 1.5527850843244235e+00,	 1.0681450915685332e+03,	 1.6203568377221332e+03,	 6.5590978694628950e+02,	 1.8464575645884058e+00 