TITLE = "MeshVolumeStats"
VARIABLES = "X", "Y", "VOL"
ZONE I=100, J=69, DATAPACKING=POINT
1.532430,	0.604713,	0.000043
1.539899,	0.604714,	0.000043
1.547369,	0.604714,	0.000043
1.554838,	0.604714,	0.000043
1.562307,	0.604713,	0.000043
1.569776,	0.604713,	0.000043
1.577245,	0.604713,	0.000043
1.584714,	0.604713,	0.000043
1.592183,	0.604713,	0.000043
1.599652,	0.604712,	0.000043
1.607121,	0.604712,	0.000043
1.614590,	0.604712,	0.000043
1.622059,	0.604711,	0.000043
1.629528,	0.604711,	0.000043
1.636996,	0.604710,	0.000043
1.644465,	0.604710,	0.000043
1.651934,	0.604709,	0.000043
1.659403,	0.604709,	0.000043
1.666871,	0.604709,	0.000043
1.674340,	0.604708,	0.000043
1.681809,	0.604707,	0.000043
1.689278,	0.604707,	0.000043
1.696746,	0.604706,	0.000043
1.704215,	0.604706,	0.000043
1.711683,	0.604705,	0.000043
1.719152,	0.604705,	0.000043
1.726621,	0.604704,	0.000043
1.734089,	0.604704,	0.000043
1.741558,	0.604703,	0.000043
1.749026,	0.604702,	0.000043
1.756495,	0.604702,	0.000043
1.763964,	0.604701,	0.000043
1.771432,	0.604700,	0.000043
1.778901,	0.604700,	0.000043
1.786369,	0.604699,	0.000043
1.793838,	0.604699,	0.000043
1.801306,	0.604698,	0.000043
1.808775,	0.604697,	0.000043
1.816244,	0.604697,	0.000043
1.823712,	0.604696,	0.000043
1.831181,	0.604695,	0.000043
1.838649,	0.604695,	0.000043
1.846117,	0.604694,	0.000043
1.853586,	0.604693,	0.000043
1.861055,	0.604693,	0.000043
1.868523,	0.604692,	0.000043
1.875992,	0.604691,	0.000043
1.883460,	0.604691,	0.000043
1.890929,	0.604690,	0.000043
1.898397,	0.604689,	0.000043
1.905866,	0.604689,	0.000043
1.913334,	0.604688,	0.000043
1.920803,	0.604687,	0.000043
1.928271,	0.604687,	0.000043
1.935740,	0.604686,	0.000043
1.943208,	0.604685,	0.000043
1.950677,	0.604685,	0.000043
1.958145,	0.604684,	0.000043
1.965614,	0.604683,	0.000043
1.973082,	0.604683,	0.000043
1.980551,	0.604682,	0.000043
1.988019,	0.604681,	0.000043
1.995488,	0.604680,	0.000043
2.002956,	0.604680,	0.000043
2.010425,	0.604679,	0.000043
2.017893,	0.604678,	0.000043
2.025362,	0.604678,	0.000043
2.032830,	0.604677,	0.000043
2.040299,	0.604676,	0.000043
2.047767,	0.604676,	0.000043
2.055236,	0.604675,	0.000043
2.062704,	0.604674,	0.000043
2.070173,	0.604674,	0.000043
2.077641,	0.604673,	0.000043
2.085110,	0.604672,	0.000043
2.092578,	0.604672,	0.000043
2.100047,	0.604671,	0.000043
2.107515,	0.604670,	0.000043
2.114984,	0.604670,	0.000043
2.122452,	0.604669,	0.000043
2.129921,	0.604668,	0.000043
2.137389,	0.604667,	0.000043
2.144858,	0.604667,	0.000043
2.152326,	0.604666,	0.000043
2.159795,	0.604665,	0.000043
2.167263,	0.604665,	0.000043
2.174732,	0.604664,	0.000043
2.182200,	0.604663,	0.000043
2.189669,	0.604663,	0.000043
2.197137,	0.604662,	0.000043
2.204606,	0.604661,	0.000043
2.212074,	0.604661,	0.000043
2.219543,	0.604660,	0.000043
2.227011,	0.604659,	0.000043
2.234480,	0.604658,	0.000043
2.241948,	0.604658,	0.000043
2.249417,	0.604657,	0.000043
2.256885,	0.604656,	0.000043
2.264354,	0.604656,	0.000043
2.271822,	0.604655,	0.000043
1.532427,	0.610473,	0.000043
1.539897,	0.610473,	0.000043
1.547366,	0.610473,	0.000043
1.554835,	0.610473,	0.000043
1.562304,	0.610473,	0.000043
1.569773,	0.610473,	0.000043
1.577243,	0.610473,	0.000043
1.584712,	0.610472,	0.000043
1.592180,	0.610472,	0.000043
1.599649,	0.610472,	0.000043
1.607118,	0.610472,	0.000043
1.614587,	0.610471,	0.000043
1.622056,	0.610471,	0.000043
1.629525,	0.610471,	0.000043
1.636994,	0.610470,	0.000043
1.644462,	0.610470,	0.000043
1.651931,	0.610470,	0.000043
1.659400,	0.610469,	0.000043
1.666869,	0.610469,	0.000043
1.674337,	0.610468,	0.000043
1.681806,	0.610468,	0.000043
1.689275,	0.610467,	0.000043
1.696744,	0.610467,	0.000043
1.704212,	0.610467,	0.000043
1.711681,	0.610466,	0.000043
1.719150,	0.610465,	0.000043
1.726618,	0.610465,	0.000043
1.734087,	0.610464,	0.000043
1.741555,	0.610464,	0.000043
1.749024,	0.610463,	0.000043
1.756493,	0.610463,	0.000043
1.763961,	0.610462,	0.000043
1.771430,	0.610462,	0.000043
1.778898,	0.610461,	0.000043
1.786367,	0.610461,	0.000043
1.793835,	0.610460,	0.000043
1.801304,	0.610459,	0.000043
1.808772,	0.610459,	0.000043
1.816241,	0.610458,	0.000043
1.823710,	0.610458,	0.000043
1.831178,	0.610457,	0.000043
1.838647,	0.610457,	0.000043
1.846115,	0.610456,	0.000043
1.853584,	0.610455,	0.000043
1.861052,	0.610455,	0.000043
1.868521,	0.610454,	0.000043
1.875989,	0.610454,	0.000043
1.883458,	0.610453,	0.000043
1.890926,	0.610452,	0.000043
1.898395,	0.610452,	0.000043
1.905864,	0.610451,	0.000043
1.913332,	0.610451,	0.000043
1.920801,	0.610450,	0.000043
1.928269,	0.610449,	0.000043
1.935737,	0.610449,	0.000043
1.943206,	0.610448,	0.000043
1.950674,	0.610448,	0.000043
1.958143,	0.610447,	0.000043
1.965612,	0.610446,	0.000043
1.973080,	0.610446,	0.000043
1.980549,	0.610445,	0.000043
1.988017,	0.610445,	0.000043
1.995486,	0.610444,	0.000043
2.002954,	0.610443,	0.000043
2.010423,	0.610443,	0.000043
2.017892,	0.610442,	0.000043
2.025360,	0.610442,	0.000043
2.032828,	0.610441,	0.000043
2.040297,	0.610440,	0.000043
2.047765,	0.610440,	0.000043
2.055234,	0.610439,	0.000043
2.062703,	0.610438,	0.000043
2.070171,	0.610438,	0.000043
2.077640,	0.610437,	0.000043
2.085108,	0.610437,	0.000043
2.092576,	0.610436,	0.000043
2.100045,	0.610435,	0.000043
2.107514,	0.610435,	0.000043
2.114982,	0.610434,	0.000043
2.122451,	0.610434,	0.000043
2.129919,	0.610433,	0.000043
2.137387,	0.610432,	0.000043
2.144856,	0.610432,	0.000043
2.152324,	0.610431,	0.000043
2.159793,	0.610430,	0.000043
2.167261,	0.610430,	0.000043
2.174730,	0.610429,	0.000043
2.182199,	0.610429,	0.000043
2.189667,	0.610428,	0.000043
2.197136,	0.610427,	0.000043
2.204604,	0.610427,	0.000043
2.212073,	0.610426,	0.000043
2.219541,	0.610426,	0.000043
2.227010,	0.610425,	0.000043
2.234478,	0.610424,	0.000043
2.241947,	0.610424,	0.000043
2.249415,	0.610423,	0.000043
2.256884,	0.610422,	0.000043
2.264352,	0.610422,	0.000043
2.271821,	0.610421,	0.000043
1.532424,	0.616232,	0.000043
1.539894,	0.616232,	0.000043
1.547363,	0.616232,	0.000043
1.554832,	0.616232,	0.000043
1.562302,	0.616232,	0.000043
1.569771,	0.616232,	0.000043
1.577240,	0.616232,	0.000043
1.584709,	0.616232,	0.000043
1.592178,	0.616232,	0.000043
1.599647,	0.616232,	0.000043
1.607116,	0.616232,	0.000043
1.614584,	0.616231,	0.000043
1.622053,	0.616231,	0.000043
1.629522,	0.616231,	0.000043
1.636991,	0.616231,	0.000043
1.644460,	0.616230,	0.000043
1.651929,	0.616230,	0.000043
1.659397,	0.616230,	0.000043
1.666866,	0.616229,	0.000043
1.674335,	0.616229,	0.000043
1.681804,	0.616229,	0.000043
1.689272,	0.616228,	0.000043
1.696741,	0.616228,	0.000043
1.704210,	0.616227,	0.000043
1.711679,	0.616227,	0.000043
1.719147,	0.616227,	0.000043
1.726616,	0.616226,	0.000043
1.734084,	0.616226,	0.000043
1.741553,	0.616225,	0.000043
1.749022,	0.616225,	0.000043
1.756490,	0.616224,	0.000043
1.763959,	0.616224,	0.000043
1.771428,	0.616223,	0.000043
1.778896,	0.616223,	0.000043
1.786364,	0.616222,	0.000043
1.793833,	0.616222,	0.000043
1.801302,	0.616221,	0.000043
1.808771,	0.616221,	0.000043
1.816239,	0.616220,	0.000043
1.823708,	0.616220,	0.000043
1.831176,	0.616219,	0.000043
1.838645,	0.616219,	0.000043
1.846113,	0.616218,	0.000043
1.853581,	0.616218,	0.000043
1.861050,	0.616217,	0.000043
1.868519,	0.616217,	0.000043
1.875987,	0.616216,	0.000043
1.883456,	0.616216,	0.000043
1.890925,	0.616215,	0.000043
1.898393,	0.616215,	0.000043
1.905862,	0.616214,	0.000043
1.913330,	0.616214,	0.000043
1.920798,	0.616213,	0.000043
1.928267,	0.616212,	0.000043
1.935735,	0.616212,	0.000043
1.943204,	0.616211,	0.000043
1.950673,	0.616211,	0.000043
1.958141,	0.616210,	0.000043
1.965610,	0.616210,	0.000043
1.973078,	0.616209,	0.000043
1.980547,	0.616209,	0.000043
1.988015,	0.616208,	0.000043
1.995484,	0.616208,	0.000043
2.002953,	0.616207,	0.000043
2.010421,	0.616207,	0.000043
2.017889,	0.616206,	0.000043
2.025358,	0.616206,	0.000043
2.032826,	0.616205,	0.000043
2.040295,	0.616204,	0.000043
2.047764,	0.616204,	0.000043
2.055232,	0.616203,	0.000043
2.062701,	0.616203,	0.000043
2.070169,	0.616202,	0.000043
2.077638,	0.616202,	0.000043
2.085106,	0.616201,	0.000043
2.092575,	0.616201,	0.000043
2.100043,	0.616200,	0.000043
2.107512,	0.616200,	0.000043
2.114980,	0.616199,	0.000043
2.122449,	0.616199,	0.000043
2.129917,	0.616198,	0.000043
2.137386,	0.616197,	0.000043
2.144854,	0.616197,	0.000043
2.152323,	0.616196,	0.000043
2.159791,	0.616196,	0.000043
2.167260,	0.616195,	0.000043
2.174728,	0.616195,	0.000043
2.182197,	0.616194,	0.000043
2.189666,	0.616194,	0.000043
2.197134,	0.616193,	0.000043
2.204603,	0.616193,	0.000043
2.212071,	0.616192,	0.000043
2.219540,	0.616191,	0.000043
2.227008,	0.616191,	0.000043
2.234477,	0.616190,	0.000043
2.241945,	0.616190,	0.000043
2.249414,	0.616189,	0.000043
2.256882,	0.616189,	0.000043
2.264351,	0.616188,	0.000043
2.271819,	0.616188,	0.000043
1.532422,	0.621992,	0.000043
1.539891,	0.621992,	0.000043
1.547360,	0.621992,	0.000043
1.554830,	0.621992,	0.000043
1.562299,	0.621992,	0.000043
1.569768,	0.621992,	0.000043
1.577237,	0.621992,	0.000043
1.584707,	0.621992,	0.000043
1.592175,	0.621992,	0.000043
1.599644,	0.621992,	0.000043
1.607114,	0.621992,	0.000043
1.614582,	0.621992,	0.000043
1.622051,	0.621992,	0.000043
1.629520,	0.621992,	0.000043
1.636989,	0.621991,	0.000043
1.644458,	0.621991,	0.000043
1.651926,	0.621991,	0.000043
1.659395,	0.621991,	0.000043
1.666864,	0.621990,	0.000043
1.674333,	0.621990,	0.000043
1.681801,	0.621990,	0.000043
1.689270,	0.621989,	0.000043
1.696739,	0.621989,	0.000043
1.704207,	0.621989,	0.000043
1.711676,	0.621988,	0.000043
1.719145,	0.621988,	0.000043
1.726614,	0.621988,	0.000043
1.734082,	0.621987,	0.000043
1.741551,	0.621987,	0.000043
1.749019,	0.621986,	0.000043
1.756488,	0.621986,	0.000043
1.763956,	0.621985,	0.000043
1.771425,	0.621985,	0.000043
1.778894,	0.621985,	0.000043
1.786362,	0.621984,	0.000043
1.793831,	0.621984,	0.000043
1.801299,	0.621983,	0.000043
1.808768,	0.621983,	0.000043
1.816237,	0.621983,	0.000043
1.823705,	0.621982,	0.000043
1.831174,	0.621982,	0.000043
1.838642,	0.621981,	0.000043
1.846111,	0.621981,	0.000043
1.853580,	0.621980,	0.000043
1.861048,	0.621980,	0.000043
1.868516,	0.621979,	0.000043
1.875986,	0.621979,	0.000043
1.883454,	0.621979,	0.000043
1.890923,	0.621978,	0.000043
1.898391,	0.621978,	0.000043
1.905859,	0.621977,	0.000043
1.913328,	0.621977,	0.000043
1.920796,	0.621976,	0.000043
1.928265,	0.621976,	0.000043
1.935733,	0.621975,	0.000043
1.943202,	0.621975,	0.000043
1.950671,	0.621974,	0.000043
1.958140,	0.621974,	0.000043
1.965608,	0.621973,	0.000043
1.973076,	0.621973,	0.000043
1.980545,	0.621973,	0.000043
1.988013,	0.621972,	0.000043
1.995482,	0.621972,	0.000043
2.002950,	0.621971,	0.000043
2.010419,	0.621971,	0.000043
2.017888,	0.621970,	0.000043
2.025356,	0.621970,	0.000043
2.032825,	0.621969,	0.000043
2.040293,	0.621969,	0.000043
2.047762,	0.621968,	0.000043
2.055230,	0.621968,	0.000043
2.062699,	0.621967,	0.000043
2.070168,	0.621967,	0.000043
2.077636,	0.621966,	0.000043
2.085104,	0.621966,	0.000043
2.092573,	0.621965,	0.000043
2.100042,	0.621965,	0.000043
2.107510,	0.621965,	0.000043
2.114979,	0.621964,	0.000043
2.122447,	0.621964,	0.000043
2.129916,	0.621963,	0.000043
2.137384,	0.621963,	0.000043
2.144853,	0.621962,	0.000043
2.152321,	0.621962,	0.000043
2.159790,	0.621961,	0.000043
2.167258,	0.621961,	0.000043
2.174727,	0.621960,	0.000043
2.182196,	0.621960,	0.000043
2.189664,	0.621959,	0.000043
2.197133,	0.621959,	0.000043
2.204601,	0.621958,	0.000043
2.212070,	0.621958,	0.000043
2.219538,	0.621958,	0.000043
2.227007,	0.621957,	0.000043
2.234475,	0.621957,	0.000043
2.241944,	0.621956,	0.000043
2.249412,	0.621956,	0.000043
2.256881,	0.621955,	0.000043
2.264349,	0.621955,	0.000043
2.271818,	0.621954,	0.000043
1.532419,	0.627751,	0.000043
1.539889,	0.627752,	0.000043
1.547358,	0.627752,	0.000043
1.554827,	0.627752,	0.000043
1.562297,	0.627752,	0.000043
1.569765,	0.627752,	0.000043
1.577235,	0.627753,	0.000043
1.584704,	0.627753,	0.000043
1.592173,	0.627753,	0.000043
1.599642,	0.627753,	0.000043
1.607111,	0.627753,	0.000043
1.614580,	0.627752,	0.000043
1.622048,	0.627752,	0.000043
1.629518,	0.627752,	0.000043
1.636986,	0.627752,	0.000043
1.644455,	0.627752,	0.000043
1.651924,	0.627752,	0.000043
1.659393,	0.627752,	0.000043
1.666861,	0.627751,	0.000043
1.674330,	0.627751,	0.000043
1.681799,	0.627751,	0.000043
1.689268,	0.627751,	0.000043
1.696736,	0.627750,	0.000043
1.704206,	0.627750,	0.000043
1.711674,	0.627750,	0.000043
1.719143,	0.627749,	0.000043
1.726611,	0.627749,	0.000043
1.734080,	0.627749,	0.000043
1.741549,	0.627748,	0.000043
1.749017,	0.627748,	0.000043
1.756486,	0.627748,	0.000043
1.763955,	0.627747,	0.000043
1.771423,	0.627747,	0.000043
1.778892,	0.627747,	0.000043
1.786360,	0.627746,	0.000043
1.793829,	0.627746,	0.000043
1.801298,	0.627746,	0.000043
1.808766,	0.627745,	0.000043
1.816234,	0.627745,	0.000043
1.823704,	0.627745,	0.000043
1.831172,	0.627744,	0.000043
1.838641,	0.627744,	0.000043
1.846109,	0.627743,	0.000043
1.853577,	0.627743,	0.000043
1.861046,	0.627743,	0.000043
1.868515,	0.627742,	0.000043
1.875984,	0.627742,	0.000043
1.883452,	0.627742,	0.000043
1.890920,	0.627741,	0.000043
1.898389,	0.627741,	0.000043
1.905857,	0.627740,	0.000043
1.913326,	0.627740,	0.000043
1.920795,	0.627740,	0.000043
1.928263,	0.627739,	0.000043
1.935732,	0.627739,	0.000043
1.943201,	0.627738,	0.000043
1.950669,	0.627738,	0.000043
1.958137,	0.627738,	0.000043
1.965606,	0.627737,	0.000043
1.973074,	0.627737,	0.000043
1.980543,	0.627736,	0.000043
1.988012,	0.627736,	0.000043
1.995480,	0.627736,	0.000043
2.002949,	0.627735,	0.000043
2.010417,	0.627735,	0.000043
2.017886,	0.627734,	0.000043
2.025354,	0.627734,	0.000043
2.032823,	0.627734,	0.000043
2.040292,	0.627733,	0.000043
2.047760,	0.627733,	0.000043
2.055229,	0.627733,	0.000043
2.062697,	0.627732,	0.000043
2.070166,	0.627732,	0.000043
2.077634,	0.627731,	0.000043
2.085103,	0.627731,	0.000043
2.092572,	0.627730,	0.000043
2.100040,	0.627730,	0.000043
2.107509,	0.627730,	0.000043
2.114977,	0.627729,	0.000043
2.122446,	0.627729,	0.000043
2.129914,	0.627729,	0.000043
2.137383,	0.627728,	0.000043
2.144851,	0.627728,	0.000043
2.152320,	0.627727,	0.000043
2.159788,	0.627727,	0.000043
2.167257,	0.627726,	0.000043
2.174726,	0.627726,	0.000043
2.182194,	0.627726,	0.000043
2.189663,	0.627725,	0.000043
2.197131,	0.627725,	0.000043
2.204600,	0.627725,	0.000043
2.212068,	0.627724,	0.000043
2.219537,	0.627724,	0.000043
2.227005,	0.627723,	0.000043
2.234474,	0.627723,	0.000043
2.241942,	0.627722,	0.000043
2.249411,	0.627722,	0.000043
2.256880,	0.627722,	0.000043
2.264348,	0.627721,	0.000043
2.271817,	0.627721,	0.000043
1.532417,	0.633512,	0.000043
1.539887,	0.633512,	0.000043
1.547356,	0.633512,	0.000043
1.554825,	0.633513,	0.000043
1.562294,	0.633513,	0.000043
1.569764,	0.633513,	0.000043
1.577233,	0.633513,	0.000043
1.584701,	0.633513,	0.000043
1.592170,	0.633513,	0.000043
1.599640,	0.633513,	0.000043
1.607108,	0.633513,	0.000043
1.614577,	0.633513,	0.000043
1.622046,	0.633513,	0.000043
1.629515,	0.633513,	0.000043
1.636985,	0.633513,	0.000043
1.644453,	0.633513,	0.000043
1.651922,	0.633513,	0.000043
1.659390,	0.633513,	0.000043
1.666859,	0.633513,	0.000043
1.674329,	0.633512,	0.000043
1.681797,	0.633512,	0.000043
1.689265,	0.633512,	0.000043
1.696734,	0.633512,	0.000043
1.704203,	0.633512,	0.000043
1.711672,	0.633511,	0.000043
1.719140,	0.633511,	0.000043
1.726610,	0.633511,	0.000043
1.734078,	0.633511,	0.000043
1.741546,	0.633510,	0.000043
1.749015,	0.633510,	0.000043
1.756483,	0.633510,	0.000043
1.763953,	0.633510,	0.000043
1.771421,	0.633509,	0.000043
1.778889,	0.633509,	0.000043
1.786359,	0.633509,	0.000043
1.793827,	0.633508,	0.000043
1.801295,	0.633508,	0.000043
1.808764,	0.633508,	0.000043
1.816233,	0.633508,	0.000043
1.823702,	0.633507,	0.000043
1.831170,	0.633507,	0.000043
1.838638,	0.633507,	0.000043
1.846107,	0.633506,	0.000043
1.853576,	0.633506,	0.000043
1.861044,	0.633506,	0.000043
1.868513,	0.633505,	0.000043
1.875981,	0.633505,	0.000043
1.883450,	0.633505,	0.000043
1.890918,	0.633504,	0.000043
1.898387,	0.633504,	0.000043
1.905856,	0.633504,	0.000043
1.913324,	0.633503,	0.000043
1.920793,	0.633503,	0.000043
1.928262,	0.633503,	0.000043
1.935730,	0.633502,	0.000043
1.943199,	0.633502,	0.000043
1.950667,	0.633502,	0.000043
1.958136,	0.633502,	0.000043
1.965604,	0.633501,	0.000043
1.973073,	0.633501,	0.000043
1.980541,	0.633501,	0.000043
1.988010,	0.633500,	0.000043
1.995479,	0.633500,	0.000043
2.002947,	0.633500,	0.000043
2.010416,	0.633499,	0.000043
2.017884,	0.633499,	0.000043
2.025353,	0.633499,	0.000043
2.032821,	0.633498,	0.000043
2.040290,	0.633498,	0.000043
2.047759,	0.633498,	0.000043
2.055227,	0.633497,	0.000043
2.062696,	0.633497,	0.000043
2.070164,	0.633497,	0.000043
2.077633,	0.633496,	0.000043
2.085101,	0.633496,	0.000043
2.092570,	0.633496,	0.000043
2.100039,	0.633495,	0.000043
2.107507,	0.633495,	0.000043
2.114976,	0.633495,	0.000043
2.122444,	0.633494,	0.000043
2.129913,	0.633494,	0.000043
2.137381,	0.633494,	0.000043
2.144850,	0.633493,	0.000043
2.152319,	0.633493,	0.000043
2.159787,	0.633493,	0.000043
2.167256,	0.633492,	0.000043
2.174724,	0.633492,	0.000043
2.182193,	0.633492,	0.000043
2.189661,	0.633491,	0.000043
2.197130,	0.633491,	0.000043
2.204599,	0.633491,	0.000043
2.212067,	0.633490,	0.000043
2.219536,	0.633490,	0.000043
2.227004,	0.633490,	0.000043
2.234473,	0.633489,	0.000043
2.241941,	0.633489,	0.000043
2.249410,	0.633489,	0.000043
2.256878,	0.633488,	0.000043
2.264347,	0.633488,	0.000043
2.271816,	0.633488,	0.000043
1.532415,	0.639272,	0.000043
1.539884,	0.639272,	0.000043
1.547353,	0.639273,	0.000043
1.554823,	0.639273,	0.000043
1.562292,	0.639273,	0.000043
1.569762,	0.639274,	0.000043
1.577230,	0.639274,	0.000043
1.584699,	0.639274,	0.000043
1.592169,	0.639274,	0.000043
1.599637,	0.639274,	0.000043
1.607107,	0.639274,	0.000043
1.614575,	0.639274,	0.000043
1.622044,	0.639274,	0.000043
1.629513,	0.639274,	0.000043
1.636983,	0.639274,	0.000043
1.644451,	0.639274,	0.000043
1.651919,	0.639274,	0.000043
1.659389,	0.639274,	0.000043
1.666857,	0.639274,	0.000043
1.674327,	0.639274,	0.000043
1.681795,	0.639274,	0.000043
1.689264,	0.639274,	0.000043
1.696732,	0.639274,	0.000043
1.704201,	0.639273,	0.000043
1.711669,	0.639273,	0.000043
1.719139,	0.639273,	0.000043
1.726607,	0.639273,	0.000043
1.734076,	0.639273,	0.000043
1.741544,	0.639272,	0.000043
1.749013,	0.639272,	0.000043
1.756482,	0.639272,	0.000043
1.763950,	0.639272,	0.000043
1.771419,	0.639272,	0.000043
1.778888,	0.639271,	0.000043
1.786356,	0.639271,	0.000043
1.793825,	0.639271,	0.000043
1.801293,	0.639271,	0.000043
1.808763,	0.639271,	0.000043
1.816231,	0.639270,	0.000043
1.823699,	0.639270,	0.000043
1.831168,	0.639270,	0.000043
1.838637,	0.639270,	0.000043
1.846105,	0.639269,	0.000043
1.853574,	0.639269,	0.000043
1.861042,	0.639269,	0.000043
1.868511,	0.639269,	0.000043
1.875980,	0.639268,	0.000043
1.883448,	0.639268,	0.000043
1.890917,	0.639268,	0.000043
1.898385,	0.639268,	0.000043
1.905854,	0.639267,	0.000043
1.913323,	0.639267,	0.000043
1.920791,	0.639267,	0.000043
1.928260,	0.639267,	0.000043
1.935728,	0.639266,	0.000043
1.943197,	0.639266,	0.000043
1.950665,	0.639266,	0.000043
1.958134,	0.639266,	0.000043
1.965603,	0.639265,	0.000043
1.973071,	0.639265,	0.000043
1.980540,	0.639265,	0.000043
1.988008,	0.639265,	0.000043
1.995477,	0.639264,	0.000043
2.002946,	0.639264,	0.000043
2.010414,	0.639264,	0.000043
2.017883,	0.639263,	0.000043
2.025351,	0.639263,	0.000043
2.032820,	0.639263,	0.000043
2.040289,	0.639263,	0.000043
2.047757,	0.639262,	0.000043
2.055226,	0.639262,	0.000043
2.062694,	0.639262,	0.000043
2.070163,	0.639262,	0.000043
2.077631,	0.639261,	0.000043
2.085100,	0.639261,	0.000043
2.092569,	0.639261,	0.000043
2.100037,	0.639261,	0.000043
2.107506,	0.639260,	0.000043
2.114974,	0.639260,	0.000043
2.122443,	0.639260,	0.000043
2.129911,	0.639260,	0.000043
2.137380,	0.639259,	0.000043
2.144849,	0.639259,	0.000043
2.152317,	0.639259,	0.000043
2.159786,	0.639258,	0.000043
2.167254,	0.639258,	0.000043
2.174723,	0.639258,	0.000043
2.182192,	0.639258,	0.000043
2.189660,	0.639257,	0.000043
2.197129,	0.639257,	0.000043
2.204597,	0.639257,	0.000043
2.212066,	0.639257,	0.000043
2.219534,	0.639256,	0.000043
2.227003,	0.639256,	0.000043
2.234472,	0.639256,	0.000043
2.241940,	0.639256,	0.000043
2.249409,	0.639255,	0.000043
2.256877,	0.639255,	0.000043
2.264346,	0.639255,	0.000043
2.271814,	0.639255,	0.000043
1.532412,	0.645032,	0.000043
1.539882,	0.645033,	0.000043
1.547351,	0.645033,	0.000043
1.554820,	0.645034,	0.000043
1.562290,	0.645034,	0.000043
1.569759,	0.645034,	0.000043
1.577229,	0.645035,	0.000043
1.584697,	0.645035,	0.000043
1.592167,	0.645035,	0.000043
1.599635,	0.645035,	0.000043
1.607104,	0.645035,	0.000043
1.614574,	0.645036,	0.000043
1.622043,	0.645036,	0.000043
1.629512,	0.645036,	0.000043
1.636980,	0.645036,	0.000043
1.644449,	0.645036,	0.000043
1.651918,	0.645036,	0.000043
1.659386,	0.645036,	0.000043
1.666856,	0.645036,	0.000043
1.674324,	0.645036,	0.000043
1.681793,	0.645036,	0.000043
1.689261,	0.645036,	0.000043
1.696730,	0.645035,	0.000043
1.704199,	0.645035,	0.000043
1.711668,	0.645035,	0.000043
1.719136,	0.645035,	0.000043
1.726605,	0.645035,	0.000043
1.734074,	0.645035,	0.000043
1.741542,	0.645035,	0.000043
1.749011,	0.645035,	0.000043
1.756480,	0.645035,	0.000043
1.763949,	0.645034,	0.000043
1.771417,	0.645034,	0.000043
1.778886,	0.645034,	0.000043
1.786354,	0.645034,	0.000043
1.793823,	0.645034,	0.000043
1.801292,	0.645034,	0.000043
1.808760,	0.645033,	0.000043
1.816229,	0.645033,	0.000043
1.823698,	0.645033,	0.000043
1.831166,	0.645033,	0.000043
1.838635,	0.645033,	0.000043
1.846103,	0.645033,	0.000043
1.853572,	0.645032,	0.000043
1.861041,	0.645032,	0.000043
1.868509,	0.645032,	0.000043
1.875978,	0.645032,	0.000043
1.883447,	0.645032,	0.000043
1.890915,	0.645031,	0.000043
1.898384,	0.645031,	0.000043
1.905852,	0.645031,	0.000043
1.913321,	0.645031,	0.000043
1.920790,	0.645031,	0.000043
1.928258,	0.645031,	0.000043
1.935727,	0.645030,	0.000043
1.943195,	0.645030,	0.000043
1.950664,	0.645030,	0.000043
1.958133,	0.645030,	0.000043
1.965601,	0.645030,	0.000043
1.973070,	0.645029,	0.000043
1.980538,	0.645029,	0.000043
1.988007,	0.645029,	0.000043
1.995476,	0.645029,	0.000043
2.002944,	0.645029,	0.000043
2.010413,	0.645028,	0.000043
2.017881,	0.645028,	0.000043
2.025350,	0.645028,	0.000043
2.032819,	0.645028,	0.000043
2.040287,	0.645028,	0.000043
2.047756,	0.645027,	0.000043
2.055224,	0.645027,	0.000043
2.062693,	0.645027,	0.000043
2.070161,	0.645027,	0.000043
2.077630,	0.645027,	0.000043
2.085099,	0.645026,	0.000043
2.092567,	0.645026,	0.000043
2.100036,	0.645026,	0.000043
2.107504,	0.645026,	0.000043
2.114973,	0.645026,	0.000043
2.122441,	0.645025,	0.000043
2.129910,	0.645025,	0.000043
2.137379,	0.645025,	0.000043
2.144847,	0.645025,	0.000043
2.152316,	0.645025,	0.000043
2.159785,	0.645024,	0.000043
2.167253,	0.645024,	0.000043
2.174722,	0.645024,	0.000043
2.182190,	0.645024,	0.000043
2.189659,	0.645024,	0.000043
2.197128,	0.645023,	0.000043
2.204596,	0.645023,	0.000043
2.212064,	0.645023,	0.000043
2.219533,	0.645023,	0.000043
2.227002,	0.645023,	0.000043
2.234470,	0.645023,	0.000043
2.241939,	0.645022,	0.000043
2.249407,	0.645022,	0.000043
2.256876,	0.645022,	0.000043
2.264344,	0.645022,	0.000043
2.271813,	0.645022,	0.000043
1.532410,	0.650793,	0.000043
1.539880,	0.650794,	0.000043
1.547349,	0.650794,	0.000043
1.554819,	0.650795,	0.000043
1.562288,	0.650795,	0.000043
1.569758,	0.650795,	0.000043
1.577226,	0.650796,	0.000043
1.584696,	0.650796,	0.000043
1.592164,	0.650796,	0.000043
1.599633,	0.650797,	0.000043
1.607102,	0.650797,	0.000043
1.614572,	0.650797,	0.000043
1.622040,	0.650797,	0.000043
1.629509,	0.650797,	0.000043
1.636979,	0.650797,	0.000043
1.644447,	0.650797,	0.000043
1.651916,	0.650797,	0.000043
1.659384,	0.650797,	0.000043
1.666853,	0.650798,	0.000043
1.674323,	0.650798,	0.000043
1.681791,	0.650798,	0.000043
1.689260,	0.650798,	0.000043
1.696728,	0.650798,	0.000043
1.704198,	0.650798,	0.000043
1.711666,	0.650797,	0.000043
1.719135,	0.650797,	0.000043
1.726603,	0.650797,	0.000043
1.734072,	0.650797,	0.000043
1.741541,	0.650797,	0.000043
1.749010,	0.650797,	0.000043
1.756478,	0.650797,	0.000043
1.763947,	0.650797,	0.000043
1.771415,	0.650797,	0.000043
1.778884,	0.650797,	0.000043
1.786353,	0.650797,	0.000043
1.793821,	0.650797,	0.000043
1.801290,	0.650797,	0.000043
1.808759,	0.650796,	0.000043
1.816227,	0.650796,	0.000043
1.823696,	0.650796,	0.000043
1.831165,	0.650796,	0.000043
1.838633,	0.650796,	0.000043
1.846102,	0.650796,	0.000043
1.853570,	0.650796,	0.000043
1.861039,	0.650796,	0.000043
1.868508,	0.650796,	0.000043
1.875976,	0.650795,	0.000043
1.883445,	0.650795,	0.000043
1.890914,	0.650795,	0.000043
1.898382,	0.650795,	0.000043
1.905851,	0.650795,	0.000043
1.913319,	0.650795,	0.000043
1.920788,	0.650795,	0.000043
1.928257,	0.650795,	0.000043
1.935725,	0.650794,	0.000043
1.943194,	0.650794,	0.000043
1.950662,	0.650794,	0.000043
1.958131,	0.650794,	0.000043
1.965600,	0.650794,	0.000043
1.973068,	0.650794,	0.000043
1.980537,	0.650794,	0.000043
1.988006,	0.650794,	0.000043
1.995474,	0.650793,	0.000043
2.002943,	0.650793,	0.000043
2.010411,	0.650793,	0.000043
2.017880,	0.650793,	0.000043
2.025349,	0.650793,	0.000043
2.032817,	0.650793,	0.000043
2.040286,	0.650793,	0.000043
2.047754,	0.650792,	0.000043
2.055223,	0.650792,	0.000043
2.062692,	0.650792,	0.000043
2.070160,	0.650792,	0.000043
2.077629,	0.650792,	0.000043
2.085097,	0.650792,	0.000043
2.092566,	0.650792,	0.000043
2.100035,	0.650792,	0.000043
2.107503,	0.650791,	0.000043
2.114972,	0.650791,	0.000043
2.122440,	0.650791,	0.000043
2.129909,	0.650791,	0.000043
2.137378,	0.650791,	0.000043
2.144846,	0.650791,	0.000043
2.152315,	0.650791,	0.000043
2.159783,	0.650790,	0.000043
2.167252,	0.650790,	0.000043
2.174721,	0.650790,	0.000043
2.182189,	0.650790,	0.000043
2.189658,	0.650790,	0.000043
2.197126,	0.650790,	0.000043
2.204595,	0.650790,	0.000043
2.212064,	0.650790,	0.000043
2.219532,	0.650790,	0.000043
2.227000,	0.650789,	0.000043
2.234469,	0.650789,	0.000043
2.241938,	0.650789,	0.000043
2.249407,	0.650789,	0.000043
2.256875,	0.650789,	0.000043
2.264343,	0.650789,	0.000043
2.271812,	0.650789,	0.000043
1.532409,	0.656554,	0.000043
1.539878,	0.656555,	0.000043
1.547347,	0.656555,	0.000043
1.554817,	0.656556,	0.000043
1.562286,	0.656556,	0.000043
1.569755,	0.656557,	0.000043
1.577224,	0.656557,	0.000043
1.584693,	0.656557,	0.000043
1.592163,	0.656558,	0.000043
1.599631,	0.656558,	0.000043
1.607101,	0.656558,	0.000043
1.614569,	0.656558,	0.000043
1.622039,	0.656559,	0.000043
1.629507,	0.656559,	0.000043
1.636976,	0.656559,	0.000043
1.644445,	0.656559,	0.000043
1.651914,	0.656559,	0.000043
1.659383,	0.656559,	0.000043
1.666851,	0.656559,	0.000043
1.674321,	0.656560,	0.000043
1.681789,	0.656560,	0.000043
1.689258,	0.656560,	0.000043
1.696727,	0.656560,	0.000043
1.704195,	0.656560,	0.000043
1.711664,	0.656560,	0.000043
1.719133,	0.656560,	0.000043
1.726602,	0.656560,	0.000043
1.734071,	0.656560,	0.000043
1.741539,	0.656560,	0.000043
1.749008,	0.656560,	0.000043
1.756476,	0.656560,	0.000043
1.763945,	0.656560,	0.000043
1.771414,	0.656560,	0.000043
1.778882,	0.656560,	0.000043
1.786351,	0.656560,	0.000043
1.793820,	0.656560,	0.000043
1.801288,	0.656560,	0.000043
1.808757,	0.656560,	0.000043
1.816226,	0.656560,	0.000043
1.823694,	0.656559,	0.000043
1.831163,	0.656559,	0.000043
1.838632,	0.656559,	0.000043
1.846100,	0.656559,	0.000043
1.853569,	0.656559,	0.000043
1.861038,	0.656559,	0.000043
1.868506,	0.656559,	0.000043
1.875975,	0.656559,	0.000043
1.883444,	0.656559,	0.000043
1.890912,	0.656559,	0.000043
1.898381,	0.656559,	0.000043
1.905849,	0.656559,	0.000043
1.913318,	0.656559,	0.000043
1.920787,	0.656559,	0.000043
1.928255,	0.656559,	0.000043
1.935724,	0.656559,	0.000043
1.943192,	0.656559,	0.000043
1.950661,	0.656559,	0.000043
1.958130,	0.656558,	0.000043
1.965598,	0.656558,	0.000043
1.973067,	0.656558,	0.000043
1.980536,	0.656558,	0.000043
1.988004,	0.656558,	0.000043
1.995473,	0.656558,	0.000043
2.002941,	0.656558,	0.000043
2.010410,	0.656558,	0.000043
2.017879,	0.656558,	0.000043
2.025347,	0.656558,	0.000043
2.032816,	0.656558,	0.000043
2.040284,	0.656558,	0.000043
2.047753,	0.656558,	0.000043
2.055222,	0.656558,	0.000043
2.062690,	0.656558,	0.000043
2.070159,	0.656557,	0.000043
2.077627,	0.656557,	0.000043
2.085096,	0.656557,	0.000043
2.092565,	0.656557,	0.000043
2.100033,	0.656557,	0.000043
2.107502,	0.656557,	0.000043
2.114971,	0.656557,	0.000043
2.122439,	0.656557,	0.000043
2.129908,	0.656557,	0.000043
2.137376,	0.656557,	0.000043
2.144845,	0.656557,	0.000043
2.152313,	0.656557,	0.000043
2.159782,	0.656557,	0.000043
2.167251,	0.656557,	0.000043
2.174719,	0.656557,	0.000043
2.182188,	0.656556,	0.000043
2.189656,	0.656556,	0.000043
2.197125,	0.656556,	0.000043
2.204594,	0.656556,	0.000043
2.212063,	0.656556,	0.000043
2.219531,	0.656556,	0.000043
2.227000,	0.656556,	0.000043
2.234468,	0.656556,	0.000043
2.241937,	0.656556,	0.000043
2.249405,	0.656556,	0.000043
2.256874,	0.656556,	0.000043
2.264343,	0.656556,	0.000043
2.271811,	0.656556,	0.000043
1.532407,	0.662315,	0.000043
1.539876,	0.662316,	0.000043
1.547346,	0.662316,	0.000043
1.554815,	0.662317,	0.000043
1.562285,	0.662318,	0.000043
1.569754,	0.662318,	0.000043
1.577222,	0.662318,	0.000043
1.584691,	0.662319,	0.000043
1.592161,	0.662319,	0.000043
1.599630,	0.662319,	0.000043
1.607099,	0.662320,	0.000043
1.614568,	0.662320,	0.000043
1.622036,	0.662320,	0.000043
1.629506,	0.662321,	0.000043
1.636974,	0.662321,	0.000043
1.644443,	0.662321,	0.000043
1.651912,	0.662321,	0.000043
1.659381,	0.662321,	0.000043
1.666850,	0.662322,	0.000043
1.674319,	0.662322,	0.000043
1.681788,	0.662322,	0.000043
1.689256,	0.662322,	0.000043
1.696725,	0.662322,	0.000043
1.704194,	0.662322,	0.000043
1.711662,	0.662322,	0.000043
1.719132,	0.662322,	0.000043
1.726600,	0.662322,	0.000043
1.734069,	0.662322,	0.000043
1.741537,	0.662322,	0.000043
1.749006,	0.662323,	0.000043
1.756475,	0.662323,	0.000043