TITLE = "Final State"
VARIABLES = "X", "Y", "rho", "u", "v", "T", "p", "c", "M"
ZONE I=19, J=49, DATAPACKING=POINT
-9.7368420000000011e-02,	 5.5079589999999998e-02,	 1.1724394780776894e+00,	 2.0030569685491145e+02,	 3.8201736049228063e-03,	 2.6708158756674453e+02,	 9.0087455388423841e+04,	 3.2798271841750818e+02,	 6.1072027775670590e-01 
-9.2105259999999994e-02,	 5.5079589999999998e-02,	 1.1696550253290621e+00,	 2.0074424091256157e+02,	 8.6637308505874370e-03,	 2.6736926182386361e+02,	 8.9970307655427838e+04,	 3.2815930638947788e+02,	 6.1172801499422336e-01 
-8.6842105000000003e-02,	 5.5079589999999998e-02,	 1.1671379258184758e+00,	 2.0111813014253539e+02,	 1.4296943000454010e-02,	 2.6763165462033436e+02,	 8.9864797111788139e+04,	 3.2832029258862826e+02,	 6.1256685983370984e-01 
-8.1578950000000011e-02,	 5.5079589999999998e-02,	 1.1650077139835748e+00,	 2.0140960515794217e+02,	 2.0415118264764682e-02,	 2.6785418633035141e+02,	 8.9775364457522839e+04,	 3.2845676092817359e+02,	 6.1319975762848278e-01 
-7.6315789999999994e-02,	 5.5079589999999998e-02,	 1.1633608717251074e+00,	 2.0160474512161724e+02,	 2.6721982318056149e-02,	 2.6802559329484149e+02,	 8.9705827392213119e+04,	 3.2856183819629587e+02,	 6.1359757420191252e-01 
-7.1052630000000006e-02,	 5.5079589999999998e-02,	 1.1622628751279342e+00,	 2.0169449880182339e+02,	 3.2986561042492958e-02,	 2.6813858109830238e+02,	 8.9658942092432582e+04,	 3.2863108451035174e+02,	 6.1374139880824075e-01 
-6.5789469999999989e-02,	 5.5079589999999998e-02,	 1.1617431847830815e+00,	 2.0167482266504507e+02,	 3.9113215343923889e-02,	 2.6819044121729439e+02,	 8.9636185285879663e+04,	 3.2866286289729953e+02,	 6.1362219229773962e-01 
-6.0526314999999997e-02,	 5.5079589999999998e-02,	 1.1617931229932259e+00,	 2.0154579803290744e+02,	 4.5247509925504720e-02,	 2.6818358073693673e+02,	 8.9637745301095667e+04,	 3.2865865916892494e+02,	 6.1323746534364987e-01 
-5.5263159999999999e-02,	 5.5079589999999998e-02,	 1.1623671508546285e+00,	 2.0130933881831979e+02,	 5.1955016252435454e-02,	 2.6812598120178939e+02,	 8.9662772626706326e+04,	 3.2862336319273436e+02,	 6.1258379065602597e-01 
-5.0000000000000003e-02,	 5.5079589999999998e-02,	 1.1633880560644683e+00,	 2.0096476333144133e+02,	 6.0550479543395042e-02,	 2.6803167403275933e+02,	 8.9709958772382248e+04,	 3.2856556524167200e+02,	 6.1164283087767646e-01 
-4.4736840000000000e-02,	 5.5079589999999998e-02,	 1.1647562485856060e+00,	 2.0050098740673218e+02,	 7.3723371293587844e-02,	 2.6792143742620925e+02,	 8.9778521914319688e+04,	 3.2849799173941335e+02,	 6.1035685453952382e-01 
-3.9473684999999994e-02,	 5.5079589999999998e-02,	 1.1663629146728449e+00,	 1.9988284498250005e+02,	 9.6758678942295867e-02,	 2.6782425012224599e+02,	 8.9869750828848628e+04,	 3.2843840574613699e+02,	 6.0858555182587071e-01 
-3.4210530000000003e-02,	 5.5079589999999998e-02,	 1.1681067614346714e+00,	 1.9902654891657767e+02,	 1.3992187263070344e-01,	 2.6778053539390390e+02,	 8.9989425822421414e+04,	 3.2841160051548042e+02,	 6.0602791676328360e-01 
-2.8947370000000000e-02,	 5.5079589999999998e-02,	 1.1699137541786553e+00,	 1.9775478324781886e+02,	 2.2306961550222262e-01,	 2.6784908957867964e+02,	 9.0151707920763161e+04,	 3.2845363596206437e+02,	 6.0207861143340891e-01 
-2.3684209999999997e-02,	 5.5079589999999998e-02,	 1.1717572567434393e+00,	 1.9571488708010955e+02,	 3.8426174714659173e-01,	 2.6812062623117612e+02,	 9.0385302187663867e+04,	 3.2862008156886600e+02,	 5.9556696404664411e-01 
-1.8421050000000001e-02,	 5.5079589999999998e-02,	 1.1736675535526864e+00,	 1.9223654024011699e+02,	 6.9469369795938674e-01,	 2.6874095080990895e+02,	 9.0742112464926671e+04,	 3.2900001008296078e+02,	 5.8430939078157895e-01 
-1.3157894999999999e-02,	 5.5079589999999998e-02,	 1.1756899100538967e+00,	 1.8611168106959641e+02,	 1.2808785645355556e+00,	 2.6994132313321848e+02,	 9.1304482810597110e+04,	 3.2973395571363483e+02,	 5.6444319881232818e-01 
-7.8947390000000013e-03,	 5.5079589999999998e-02,	 1.1776483843396048e+00,	 1.7533102395275563e+02,	 2.3483211765979290e+00,	 2.7205973260449218e+02,	 9.2174299322879160e+04,	 3.3102524831081632e+02,	 5.2970808248098322e-01 
-2.6315790000000002e-03,	 5.5079589999999998e-02,	 1.1770073910312939e+00,	 1.5694141344838317e+02,	 4.1557576060672945e+00,	 2.7590951683019290e+02,	 9.3427732402120659e+04,	 3.3335910918357280e+02,	 4.7095285845505408e-01 
-9.7368420000000011e-02,	 5.7038775000000000e-02,	 1.1724466775974862e+00,	 2.0030493196162408e+02,	 1.1212936781038602e-02,	 2.6707992119711400e+02,	 9.0087446507224260e+04,	 3.2798169524459166e+02,	 6.1071985168591036e-01 
-9.2105259999999994e-02,	 5.7038775000000000e-02,	 1.1696734633323751e+00,	 2.0074225469415785e+02,	 2.5500645761185020e-02,	 2.6736626499922937e+02,	 8.9970717460065105e+04,	 3.2815746728755124e+02,	 6.1172539504624968e-01 
-8.6842105000000003e-02,	 5.7038775000000000e-02,	 1.1671661527271184e+00,	 2.0111529379973814e+02,	 4.2139108531351797e-02,	 2.6762749021841802e+02,	 8.9865572119124918e+04,	 3.2831773821407882e+02,	 6.1256299860120378e-01 
-8.1578950000000011e-02,	 5.7038775000000000e-02,	 1.1650439372168164e+00,	 2.0140632390315773e+02,	 6.0215332151301391e-02,	 2.6784907251788877e+02,	 8.9776441791281599e+04,	 3.2845362550154931e+02,	 6.1319564549494820e-01 
-7.6315789999999994e-02,	 5.7038775000000000e-02,	 1.1634029375446608e+00,	 2.0160153935861871e+02,	 7.8835450634548845e-02,	 2.6801977443161593e+02,	 8.9707123460783114e+04,	 3.2855827162127053e+02,	 6.1359451940733178e-01 
-7.1052630000000006e-02,	 5.7038775000000000e-02,	 1.1623083159639302e+00,	 2.0169214409265192e+02,	 9.7282347248506082e-02,	 2.6813228378507921e+02,	 8.9660341727208463e+04,	 3.2862722548898978e+02,	 6.1374150377734782e-01 
-6.5789469999999989e-02,	 5.7038775000000000e-02,	 1.1617892741569276e+00,	 2.0167463664866693e+02,	 1.1520496074100640e-01,	 2.6818379825596008e+02,	 8.9637521048836948e+04,	 3.2865879245355006e+02,	 6.1362931460933201e-01 
-6.0526314999999997e-02,	 5.7038775000000000e-02,	 1.1618369035212037e+00,	 2.0155024081991169e+02,	 1.3289363142661309e-01,	 2.6817649165848326e+02,	 8.9638753627944097e+04,	 3.2865431531161283e+02,	 6.1325920653438981e-01 
-5.5263159999999999e-02,	 5.7038775000000000e-02,	 1.1624053894531137e+00,	 2.0132327605353103e+02,	 1.5172794635191778e-01,	 2.6811784222980145e+02,	 8.9663000473235050e+04,	 3.2861837546899113e+02,	 6.1263565356421135e-01 
-5.0000000000000003e-02,	 5.7038775000000000e-02,	 1.1634170442468394e+00,	 2.0099813622906382e+02,	 1.7497313000016113e-01,	 2.6802083450936561e+02,	 8.9708566009607093e+04,	 3.2855892138110556e+02,	 6.1175697662706641e-01 
-4.4736840000000000e-02,	 5.7038775000000000e-02,	 1.1647713309142493e+00,	 2.0057446909964258e+02,	 2.0926245964336437e-01,	 2.6790407457069028e+02,	 8.9773866206952982e+04,	 3.2848734728401962e+02,	 6.1060062106312396e-01 
-3.9473684999999994e-02,	 5.7038775000000000e-02,	 1.1663575025906006e+00,	 2.0003980929388212e+02,	 2.6741173352039821e-01,	 2.6779202039626546e+02,	 8.9858519027342685e+04,	 3.2841864316247484e+02,	 6.0910058608289741e-01 
-3.4210530000000003e-02,	 5.7038775000000000e-02,	 1.1680704449532471e+00,	 1.9935825735377040e+02,	 3.7380666860806072e-01,	 2.6771567317303067e+02,	 8.9964831345873259e+04,	 3.2837182392041177e+02,	 6.0711240515827103e-01 
-2.8947370000000000e-02,	 5.7038775000000000e-02,	 1.1698286890769034e+00,	 1.9845276653383439e+02,	 5.7461362559459628e-01,	 2.6771432955029030e+02,	 9.0099799178079338e+04,	 3.2837099989618065e+02,	 6.0435787107419303e-01 
-2.3684209999999997e-02,	 5.7038775000000000e-02,	 1.1715907326864603e+00,	 1.9717732152250585e+02,	 9.5646743622636210e-01,	 2.6783919106611029e+02,	 9.0277596856248201e+04,	 3.2844756681229205e+02,	 6.0033826171379012e-01 
-1.8421050000000001e-02,	 5.7038775000000000e-02,	 1.1733540555483799e+00,	 1.9527506908437121e+02,	 1.6780877073516232e+00,	 2.6815946134328635e+02,	 9.0521583147919664e+04,	 3.2864387969250186e+02,	 5.9420634706597264e-01 
-1.3157894999999999e-02,	 5.7038775000000000e-02,	 1.1750787554250639e+00,	 1.9232454308218246e+02,	 3.0151502489830335e+00,	 2.6876974660261612e+02,	 9.0860954320105695e+04,	 3.2901763590867591e+02,	 5.8461357540475078e-01 
-7.8947390000000013e-03,	 5.7038775000000000e-02,	 1.1763550241190257e+00,	 1.8770395609249076e+02,	 5.4005791176579931e+00,	 2.6979231817380526e+02,	 9.1305708107872561e+04,	 3.2964293819900519e+02,	 5.6965161521424956e-01 
-2.6315790000000002e-03,	 5.7038775000000000e-02,	 1.1751013943721484e+00,	 1.8070629380086288e+02,	 9.3203932517532468e+00,	 2.7148213222950960e+02,	 9.1779678186848323e+04,	 3.3067366761888360e+02,	 5.4720563969657554e-01 
-9.7368420000000011e-02,	 5.8997960000000002e-02,	 1.1724598061894551e+00,	 2.0030284823160122e+02,	 1.8145830829027817e-02,	 2.6707725783430084e+02,	 9.0087556894461130e+04,	 3.2798005989809241e+02,	 6.1071654513317430e-01 
-9.2105259999999994e-02,	 5.8997960000000002e-02,	 1.1697088807558502e+00,	 2.0073706346895517e+02,	 4.1409999850605013e-02,	 2.6736122410950571e+02,	 8.9971745403276320e+04,	 3.2815437375329083e+02,	 6.1171535044387459e-01 
-8.6842105000000003e-02,	 5.8997960000000002e-02,	 1.1672213125018742e+00,	 2.0110761769178794e+02,	 6.8545976419181379e-02,	 2.6762035706993055e+02,	 8.9867423802949401e+04,	 3.2831336281381419e+02,	 6.1254780387211449e-01 
-8.1578950000000011e-02,	 5.8997960000000002e-02,	 1.1651155508633104e+00,	 2.0139688940615287e+02,	 9.8036593691497198e-02,	 2.6784024457901859e+02,	 8.9779001134992082e+04,	 3.2844821276595121e+02,	 6.1317707157365853e-01 
-7.6315789999999994e-02,	 5.8997960000000002e-02,	 1.1634869648866000e+00,	 2.0159124429051002e+02,	 1.2838478602596182e-01,	 2.6800972403775535e+02,	 8.9710238457604195e+04,	 3.2855211130903240e+02,	 6.1357476708546654e-01 
-7.1052630000000006e-02,	 5.8997960000000002e-02,	 1.1624000658895370e+00,	 2.0168215304810957e+02,	 1.5835070408035279e-01,	 2.6812150800019430e+02,	 8.9663815724297761e+04,	 3.2862062193529084e+02,	 6.1372355156800273e-01 
-6.5789469999999989e-02,	 5.8997960000000002e-02,	 1.1618835290882810e+00,	 2.0166657156731733e+02,	 1.8722780396425717e-01,	 2.6817274300253951e+02,	 8.9641097863127710e+04,	 3.2865201828652624e+02,	 6.1361758716749182e-01 
-6.0526314999999997e-02,	 5.8997960000000002e-02,	 1.1619280124986271e+00,	 2.0154657124226512e+02,	 2.1522385208240336e-01,	 2.6816543177069639e+02,	 8.9642085834885394e+04,	 3.2864753821250372e+02,	 6.1326090331630589e-01 
-5.5263159999999999e-02,	 5.8997960000000002e-02,	 1.1624872562889643e+00,	 2.0132811006274201e+02,	 2.4404746134461994e-01,	 2.6810668064837233e+02,	 8.9665582453606097e+04,	 3.2861153530703041e+02,	 6.1266339232506994e-01 
-5.0000000000000003e-02,	 5.8997960000000002e-02,	 1.1634828851592924e+00,	 2.0101881561122957e+02,	 2.7790323262189992e-01,	 2.6800874538863872e+02,	 8.9709596312043752e+04,	 3.2855151144735163e+02,	 6.1183406773129301e-01 
-4.4736840000000000e-02,	 5.8997960000000002e-02,	 1.1648130058931114e+00,	 2.0062477086353275e+02,	 3.2526062541569634e-01,	 2.6788883856210907e+02,	 8.9771972550047431e+04,	 3.2847800642720409e+02,	 6.1077159079252974e-01 
-3.9473684999999994e-02,	 5.8997960000000002e-02,	 1.1663641155850764e+00,	 2.0014637860797561e+02,	 4.0209681889272048e-01,	 2.6776873439349038e+02,	 8.9851214764321936e+04,	 3.2840436393996220e+02,	 6.0945226219091730e-01 
-3.4210530000000003e-02,	 5.8997960000000002e-02,	 1.1680256599324634e+00,	 1.9957349336457253e+02,	 5.3787456866552741e-01,	 2.6767421309193213e+02,	 8.9947450033814588e+04,	 3.2834639610472038e+02,	 6.0781607640345092e-01 
-2.8947370000000000e-02,	 5.8997960000000002e-02,	 1.1697061250052558e+00,	 1.9888046247173068e+02,	 7.8650065992396601e-01,	 2.6763434708022589e+02,	 9.0063443894018477e+04,	 3.2832194408795726e+02,	 6.0575304578456635e-01 
-2.3684209999999997e-02,	 5.8997960000000002e-02,	 1.1713469866399326e+00,	 1.9802289410118362e+02,	 1.2457443698059898e+00,	 2.6768040493652677e+02,	 9.0205305713050417e+04,	 3.2835019374005719e+02,	 6.0309637780376146e-01 
-1.8421050000000001e-02,	 5.8997960000000002e-02,	 1.1729215626258669e+00,	 1.9694074621852877e+02,	 2.0889897030178424e+00,	 2.6784354784365581e+02,	 9.0381614880597961e+04,	 3.2845023813003149e+02,	 5.9963976946112141e-01 
-1.3157894999999999e-02,	 5.8997960000000002e-02,	 1.1743722982207792e+00,	 1.9557838093279096e+02,	 3.6079620761860891e+00,	 2.6814911911174244e+02,	 9.0596644024469540e+04,	 3.2863754215017775e+02,	 5.9522005927265276e-01 
-7.8947390000000013e-03,	 5.8997960000000002e-02,	 1.1753474951440548e+00,	 1.9394429035365374e+02,	 6.2429650415307592e+00,	 2.6860296901238115e+02,	 9.0825340026896520e+04,	 3.2891553869676864e+02,	 5.8995310466005335e-01 
-2.6315790000000002e-03,	 5.8997960000000002e-02,	 1.1743712780897235e+00,	 1.9226895076833796e+02,	 1.0451437472779686e+01,	 2.6920383358695102e+02,	 9.0952909994837421e+04,	 3.2928322504962460e+02,	 5.8476347543413998e-01 
-9.7368420000000011e-02,	 6.0957140000000000e-02,	 1.1724787121612494e+00,	 2.0029955327375529e+02,	 2.4657113708908947e-02,	 2.6707361790586037e+02,	 9.0087781760387588e+04,	 3.2797782491180936e+02,	 6.1071066266530150e-01 
-9.2105259999999994e-02,	 6.0957140000000000e-02,	 1.1697606195931181e+00,	 2.0072891631042842e+02,	 5.6442678384072631e-02,	 2.6735418076223056e+02,	 8.9973354739755930e+04,	 3.2815005128572972e+02,	 6.1169859172493624e-01 
-8.6842105000000003e-02,	 6.0957140000000000e-02,	 1.1673023127837252e+00,	 2.0109547534188263e+02,	 9.3573637336636484e-02,	 2.6761031790517171e+02,	 8.9870288822126284e+04,	 3.2830720479413122e+02,	 6.1252233937052258e-01 
-8.1578950000000011e-02,	 6.0957140000000000e-02,	 1.1652210864660610e+00,	 2.0138178779004443e+02,	 1.3393504167739068e-01,	 2.6782778163037563e+02,	 8.9782955363487519e+04,	 3.2844057111965327e+02,	 6.1314542123192040e-01 
-7.6315789999999994e-02,	 6.0957140000000000e-02,	 1.1636111831400719e+00,	 2.0157445630272531e+02,	 1.7542655248185163e-01,	 2.6799552773483578e+02,	 8.9715063859739923e+04,	 3.2854340959665859e+02,	 6.1354002774072569e-01 
-7.1052630000000006e-02,	 6.0957140000000000e-02,	 1.1625361476932603e+00,	 2.0166526303856858e+02,	 2.1626387777851452e-01,	 2.6810632665759550e+02,	 8.9669235177650902e+04,	 3.2861131836821568e+02,	 6.1368969273362217e-01 
-6.5789469999999989e-02,	 6.0957140000000000e-02,	 1.1620238866637269e+00,	 2.0165162415404885e+02,	 2.5532079446712402e-01,	 2.6815729701650281e+02,	 8.9646762969955686e+04,	 3.2864255344023627e+02,	 6.1359000433766786e-01 
-6.0526314999999997e-02,	 6.0957140000000000e-02,	 1.1620644534096294e+00,	 2.0153637446463532e+02,	 2.9257897139737138e-01,	 2.6815028986030802e+02,	 8.9647549955838287e+04,	 3.2863825957097771e+02,	 6.1324748707688859e-01 
-5.5263159999999999e-02,	 6.0957140000000000e-02,	 1.1626110155102849e+00,	 2.0132683132573698e+02,	 3.2978460826098327e-01,	 2.6809207492868063e+02,	 8.9670243059316868e+04,	 3.2860258425566218e+02,	 6.1267656152007854e-01 
-5.0000000000000003e-02,	 6.0957140000000000e-02,	 1.1635843610318042e+00,	 2.0103312454488653e+02,	 3.7151041397519885e-01,	 2.6799428107907386e+02,	 8.9712578535441047e+04,	 3.2854264544022959e+02,	 6.1189459149800940e-01 
-4.4736840000000000e-02,	 6.0957140000000000e-02,	 1.1648809320774631e+00,	 2.0066598911052932e+02,	 4.2696235785558628e-01,	 2.6787301402643391e+02,	 8.9771904357144624e+04,	 3.2846830447634136e+02,	 6.1091569751152797e-01 
-3.9473684999999994e-02,	 6.0957140000000000e-02,	 1.1663837406953641e+00,	 2.0023446753793831e+02,	 5.1315303732274664e-01,	 2.6774811345765568e+02,	 8.9845807010180943e+04,	 3.2839171844623894e+02,	 6.0974474639157084e-01 
-3.4210530000000003e-02,	 6.0957140000000000e-02,	 1.1679752128989347e+00,	 1.9974441848009681e+02,	 6.6054835586624128e-01,	 2.6764194837434871e+02,	 8.9932723651678549e+04,	 3.2832660652006120e+02,	 6.0837442569848665e-01 
-2.8947370000000000e-02,	 6.0957140000000000e-02,	 1.1695504654008628e+00,	 1.9919960897251693e+02,	 9.2301067666117842e-01,	 2.6757753286520636e+02,	 9.0032342235757344e+04,	 3.2828709365903632e+02,	 6.0679128494038637e-01 
-2.3684209999999997e-02,	 6.0957140000000000e-02,	 1.1710272642638795e+00,	 1.9860918376576348e+02,	 1.3947906074861944e+00,	 2.6757534438876053e+02,	 9.0145289360097930e+04,	 3.2828575115087938e+02,	 6.0500366120039883e-01 
-1.8421050000000001e-02,	 6.0957140000000000e-02,	 1.1723415758478730e+00,	 1.9800893154226648e+02,	 2.2372440957509587e+00,	 2.6764747276677258e+02,	 9.0270791724832176e+04,	 3.2832999499423170e+02,	 6.0311751328297081e-01 
-1.3157894999999999e-02,	 6.0957140000000000e-02,	 1.1733923500782211e+00,	 1.9750997264375468e+02,	 3.7128194246432704e+00,	 2.6778628697070951e+02,	 9.0398562299379249e+04,	 3.2841512742306321e+02,	 6.0150964468238943e-01 
-7.8947390000000013e-03,	 6.0957140000000000e-02,	 1.1738307482663530e+00,	 1.9739655191440528e+02,	 6.2035607960980874e+00,	 2.6794286495389844e+02,	 9.0485213566659688e+04,	 3.2851112760332501e+02,	 6.0117904871742212e-01 
-2.6315790000000002e-03,	 6.0957140000000000e-02,	 1.1724606420147221e+00,	 1.9830890837779529e+02,	 1.0086507485447465e+01,	 2.6800335425967864e+02,	 9.0400001977731139e+04,	 3.2854820694235644e+02,	 6.0437175280342392e-01 
-9.7368420000000011e-02,	 6.2916325000000009e-02,	 1.1725031645322659e+00,	 2.0029509808652543e+02,	 3.0753822188246693e-02,	 2.6706907954523604e+02,	 9.0088129679842576e+04,	 3.2797503824950002e+02,	 6.1070227025986490e-01 
-9.2105259999999994e-02,	 6.2916325000000009e-02,	 1.1698280099300919e+00,	 2.0071793505907581e+02,	 7.0597228752145955e-02,	 2.6734525370149049e+02,	 8.9975533719011190e+04,	 3.2814457271066999e+02,	 6.1167535338579604e-01 
-8.6842105000000003e-02,	 6.2916325000000009e-02,	 1.1674081187026226e+00,	 2.0107903747698268e+02,	 1.1720561167964365e-01,	 2.6759752861443627e+02,	 8.9874139435723162e+04,	 3.2829935968095913e+02,	 6.1248694432722817e-01 
-8.1578950000000011e-02,	 6.2916325000000009e-02,	 1.1653592163985513e+00,	 2.0136121508824286e+02,	 1.6787366730054867e-01,	 2.6781187085675941e+02,	 8.9788264247004365e+04,	 3.2843081518403847e+02,	 6.1310107260502889e-01 
-7.6315789999999994e-02,	 6.2916325000000009e-02,	 1.1637740605827731e+00,	 2.0155136657289236e+02,	 2.1990008739555969e-01,	 2.6797739725121130e+02,	 8.9721551530514698e+04,	 3.2853229606855894e+02,	 6.1349063378052426e-01 
-7.1052630000000006e-02,	 6.2916325000000009e-02,	 1.1627149404917638e+00,	 2.0164162227560450e+02,	 2.7094056271527672e-01,	 2.6808696922406733e+02,	 8.9676550733325072e+04,	 3.2859945518942828e+02,	 6.1364010535911528e-01 
-6.5789469999999989e-02,	 6.2916325000000009e-02,	 1.1622087922575708e+00,	 2.0162985672479829e+02,	 3.1939930787102899e-01,	 2.6813770071445060e+02,	 8.9654475682503005e+04,	 3.2863054500996299e+02,	 6.1354646658523593e-01 
-6.0526314999999997e-02,	 6.2916325000000009e-02,	 1.1622449620842235e+00,	 2.0151959557743123e+02,	 3.6492134154541234e-01,	 2.6813130804107152e+02,	 8.9655128355812296e+04,	 3.2862662754469670e+02,	 6.1321849507851778e-01 
-5.5263159999999999e-02,	 6.2916325000000009e-02,	 1.1627760444853765e+00,	 2.0131930295061440e+02,	 4.0907476922750968e-01,	 2.6807424717550276e+02,	 8.9677007674246139e+04,	 3.2859165826472821e+02,	 6.1267446540534987e-01 
-5.0000000000000003e-02,	 6.2916325000000009e-02,	 1.1637220863205282e+00,	 2.0104110453452793e+02,	 4.5640251971273177e-01,	 2.6797757893929742e+02,	 8.9717605385632705e+04,	 3.2853240744062720e+02,	 6.1193848169015941e-01 
-4.4736840000000000e-02,	 6.2916325000000009e-02,	 1.1649780488029604e+00,	 2.0069924904151171e+02,	 5.1613318017662146e-01,	 2.6785646542959893e+02,	 8.9773842316999813e+04,	 3.2845815830033075e+02,	 6.1103646730010841e-01 
-3.9473684999999994e-02,	 6.2916325000000009e-02,	 1.1664237225438197e+00,	 2.0030892419136180e+02,	 6.0506189854147041e-01,	 2.6772922406634336e+02,	 8.9842548027791607e+04,	 3.2838013437006498e+02,	 6.0999377569460078e-01 
-3.4210530000000003e-02,	 6.2916325000000009e-02,	 1.1679349347980057e+00,	 1.9988657793211297e+02,	 7.5247382252486905e-01,	 2.6761578541170780e+02,	 8.9920831341193902e+04,	 3.2831055857479583e+02,	 6.0883815354636117e-01 
-2.8947370000000000e-02,	 6.2916325000000009e-02,	 1.1693941190077233e+00,	 1.9945388041846735e+02,	 1.0084658487625777e+00,	 2.6753526235791003e+02,	 9.0006085704014185e+04,	 3.2826116209084535e+02,	 6.0761507271144155e-01 
-2.3684209999999997e-02,	 6.2916325000000009e-02,	 1.1706964978194796e+00,	 1.9904949262334509e+02,	 1.4575595161583159e+00,	 2.6750192840441940e+02,	 9.0095100441918548e+04,	 3.2824071136020905e+02,	 6.0642943493664303e-01 
-1.8421050000000001e-02,	 6.2916325000000009e-02,	 1.1717420274328423e+00,	 1.9875636642583044e+02,	 2.2390555660974116e+00,	 2.6751815838384351e+02,	 9.0181034047186433e+04,	 3.2825066878223618e+02,	 6.0554020684947540e-01 
-1.3157894999999999e-02,	 6.2916325000000009e-02,	 1.1723842061270124e+00,	 1.9875801321650337e+02,	 3.5707713676512509e+00,	 2.6756150524854587e+02,	 9.0245078528204001e+04,	 3.2827726148361080e+02,	 6.0555545314256232e-01 
-7.8947390000000013e-03,	 6.2916325000000009e-02,	 1.1722569067218345e+00,	 1.9944411026006142e+02,	 5.7553483261639435e+00,	 2.6756125834384142e+02,	 9.0235196300401381e+04,	 3.2827711001709315e+02,	 6.0780093337343677e-01 
-2.6315790000000002e-03,	 6.2916325000000009e-02,	 1.1703151491191732e+00,	 2.0159377377401628e+02,	 9.0661226499231571e+00,	 2.6736315187013116e+02,	 9.0019027455056683e+04,	 3.2815555680057560e+02,	 6.1494473739472799e-01 
-9.7368420000000011e-02,	 6.4875509999999997e-02,	 1.1725329368716373e+00,	 2.0028953454388247e+02,	 3.6442523731299192e-02,	 2.6706371524368666e+02,	 9.0088607668378536e+04,	 3.2797174440911334e+02,	 6.1069144300853162e-01 
-9.2105259999999994e-02,	 6.4875509999999997e-02,	 1.1699103906476143e+00,	 2.0070424409404498e+02,	 8.3874216272483676e-02,	 2.6733455505051256e+02,	 8.9978269001908775e+04,	 3.2813800678266347e+02,	 6.1164588517926988e-01 
-8.6842105000000003e-02,	 6.4875509999999997e-02,	 1.1675376978663572e+00,	 2.0105848186363622e+02,	 1.3943083740041709e-01,	 2.6758213758312434e+02,	 8.9878945485214863e+04,	 3.2828991837855352e+02,	 6.1244198787217941e-01 
-8.1578950000000011e-02,	 6.4875509999999997e-02,	 1.1655286042739481e+00,	 2.0133538045444016e+02,	 1.9982576441512886e-01,	 2.6779269144308597e+02,	 8.9794884052174981e+04,	 3.2841905464625967e+02,	 6.1304445271912755e-01 
-7.6315789999999994e-02,	 6.4875509999999997e-02,	 1.1639740388370030e+00,	 2.0152218763314877e+02,	 2.6176184218751963e-01,	 2.6795553599488937e+02,	 8.9729648292942584e+04,	 3.2851889517114876e+02,	 6.1342699187014160e-01 
-7.1052630000000006e-02,	 6.4875509999999997e-02,	 1.1629347675537223e+00,	 2.0161141130745256e+02,	 3.2232532713404022e-01,	 2.6806365639125136e+02,	 8.9685705560168921e+04,	 3.2858516738063867e+02,	 6.1357507574836179e-01 
-6.5789469999999989e-02,	 6.4875509999999997e-02,	 1.1624365842715711e+00,	 2.0160137624625665e+02,	 3.7941378176595858e-01,	 2.6811418519392743e+02,	 8.9664183703106843e+04,	 3.2861613434009809e+02,	 6.1348702089488871e-01 
-6.0526314999999997e-02,	 6.4875509999999997e-02,	 1.1624680696513203e+00,	 2.0149622811373499e+02,	 4.3225159890450215e-01,	 2.6810872020649282e+02,	 8.9664784638153607e+04,	 3.2861278522189468e+02,	 6.1317362199475645e-01 
-5.5263159999999999e-02,	 6.4875509999999997e-02,	 1.1629813155236675e+00,	 2.0130539439324409e+02,	 4.8206873281059376e-01,	 2.6805342123245543e+02,	 8.9685870845962665e+04,	 3.2857889433058307e+02,	 6.1265642764662365e-01 
-5.0000000000000003e-02,	 6.4875509999999997e-02,	 1.1638958448329386e+00,	 2.0104259816709745e+02,	 5.3309708853289950e-01,	 2.6795882021167620e+02,	 8.9724720095931465e+04,	 3.2852090842301226e+02,	 6.1196502203666714e-01 
-4.4736840000000000e-02,	 6.4875509999999997e-02,	 1.1651055369582333e+00,	 2.0072477764695842e+02,	 5.9411780474395803e-01,	 2.6783923965000986e+02,	 8.9777892659376041e+04,	 3.2844759660117916e+02,	 6.1113449748382198e-01 
-3.9473684999999994e-02,	 6.4875509999999997e-02,	 1.1664876364415124e+00,	 2.0037158895432836e+02,	 6.8095599204197577e-01,	 2.6771173112862056e+02,	 8.9841600458474160e+04,	 3.2836940631619990e+02,	 6.1020528161160392e-01 
-3.4210530000000003e-02,	 6.4875509999999997e-02,	 1.1679125118181060e+00,	 2.0000668415756004e+02,	 8.2055887391748872e-01,	 2.6759436853563210e+02,	 8.9911908880322924e+04,	 3.2829742121965086e+02,	 6.0922917592023440e-01 
-2.8947370000000000e-02,	 6.4875509999999997e-02,	 1.1692519764534834e+00,	 1.9966290849879439e+02,	 1.0575910790466521e+00,	 2.6750359781853552e+02,	 8.9984493745439773e+04,	 3.2824173559361435e+02,	 6.0828861109388821e-01 
-2.3684209999999997e-02,	 6.4875509999999997e-02,	 1.1703824206946873e+00,	 1.9939526363656609e+02,	 1.4646581481272101e+00,	 2.6744999526560537e+02,	 9.0053443046888133e+04,	 3.2820884729483612e+02,	 6.0754194937643513e-01 
-1.8421050000000001e-02,	 6.4875509999999997e-02,	 1.1711739407987221e+00,	 1.9930862240397090e+02,	 2.1565680197887653e+00,	 2.6743112450180365e+02,	 9.0107987160276592e+04,	 3.2819726819407015e+02,	 6.0731855099181009e-01 
-1.3157894999999999e-02,	 6.4875509999999997e-02,	 1.1714421398051487e+00,	 1.9961191061792155e+02,	 3.3045838206945599e+00,	 2.6741904610495021e+02,	 9.0124551287287293e+04,	 3.2818985667527443e+02,	 6.0830418261707420e-01 
-7.8947390000000013e-03,	 6.4875509999999997e-02,	 1.1708027407013786e+00,	 2.0071603174605551e+02,	 5.1315329034656001e+00,	 2.6733819855127780e+02,	 9.0048127244627904e+04,	 3.2814024287033459e+02,	 6.1187745825523332e-01 
-2.6315790000000002e-03,	 6.4875509999999997e-02,	 1.1683070517905345e+00,	 2.0339913166153576e+02,	 7.8069116352578769e+00,	 2.6703006995492467e+02,	 8.9752613796873455e+04,	 3.2795108444861955e+02,	 6.2066847618979060e-01 
-9.7368420000000011e-02,	 6.6834695000000000e-02,	 1.1725677994613821e+00,	 2.0028291177240135e+02,	 4.1727852252146237e-02,	 2.6705759792874949e+02,	 9.0089222632128483e+04,	 3.2796798815578188e+02,	 6.1067824712256336e-01 
-9.2105259999999994e-02,	 6.6834695000000000e-02,	 1.1700071036315796e+00,	 2.0068796203251421e+02,	 9.6273209912294683e-02,	 2.6732219816994746e+02,	 8.9981547868189358e+04,	 3.2813042300993658e+02,	 6.1161041784391690e-01 
-8.6842105000000003e-02,	 6.6834695000000000e-02,	 1.1676900204433456e+00,	 2.0103397958776651e+02,	 1.6023914705497877e-01,	 2.6756429492415100e+02,	 8.9884677519502395e+04,	 3.2827897283719318e+02,	 6.1238781671454012e-01 
-8.1578950000000011e-02,	 6.6834695000000000e-02,	 1.1657279132705112e+00,	 2.0130448676466153e+02,	 2.2976865779198655e-01,	 2.6777042474227636e+02,	 8.9802771621403284e+04,	 3.2840540050056563e+02,	 6.1297596685863076e-01 
-7.6315789999999994e-02,	 6.6834695000000000e-02,	 1.1642095530330163e+00,	 2.0148712769289799e+02,	 3.0097686432839105e-01,	 2.6793014988571144e+02,	 8.9739301150140804e+04,	 3.2850333286144172e+02,	 6.1334949248121107e-01 
-7.1052630000000006e-02,	 6.6834695000000000e-02,	 1.1631939347202322e+00,	 2.0157480990740612e+02,	 3.7037706725098440e-01,	 2.6803661153201506e+02,	 8.9696642191807638e+04,	 3.2856859153468116e+02,	 6.1349488468827051e-01 
-6.5789469999999989e-02,	 6.6834695000000000e-02,	 1.1627055639722705e+00,	 2.0156629280129070e+02,	 4.3533437894453486e-01,	 2.6808698436803610e+02,	 8.9675832617531705e+04,	 3.2859946447055790e+02,	 6.1341172066097271e-01 
-6.0526314999999997e-02,	 6.6834695000000000e-02,	 1.1627322327276424e+00,	 2.0146626739901495e+02,	 4.9459028745438055e-01,	 2.6808276415615103e+02,	 8.9676477790124438e+04,	 3.2859687806222053e+02,	 6.1311256419786453e-01 
-5.5263159999999999e-02,	 6.6834695000000000e-02,	 1.1632256512418837e+00,	 2.0128495189831685e+02,	 5.4891862630564481e-01,	 2.6802983046506813e+02,	 8.9696818627849862e+04,	 3.2856443527465541e+02,	 6.1262169229931673e-01 
-5.0000000000000003e-02,	 6.6834695000000000e-02,	 1.1641051132690006e+00,	 2.0103732160565966e+02,	 6.0204107656249373e-01,	 2.6793821654102089e+02,	 8.9733952317453848e+04,	 3.2850827799958705e+02,	 6.1197308112286286e-01 
-4.4736840000000000e-02,	 6.6834695000000000e-02,	 1.1652639379853080e+00,	 2.0074234383938102e+02,	 6.6198048669092613e-01,	 2.6782147981023780e+02,	 8.9784144556802567e+04,	 3.2843670709634728e+02,	 6.1120889045942617e-01 
-3.9473684999999994e-02,	 6.6834695000000000e-02,	 1.1665776909831511e+00,	 2.0042289755368782e+02,	 7.4314398344438659e-01,	 2.6769558181678019e+02,	 8.9843116381395332e+04,	 3.2835950196891099e+02,	 6.1038061664545817e-01 
-3.4210530000000003e-02,	 6.6834695000000000e-02,	 1.1679127310034616e+00,	 2.0010751687755351e+02,	 8.6956478310329566e-01,	 2.6757711850604466e+02,	 8.9906129730348694e+04,	 3.2828683947323799e+02,	 6.0955658938788126e-01 
-2.8947370000000000e-02,	 6.6834695000000000e-02,	 1.1691327968486542e+00,	 1.9983592651862784e+02,	 1.0798774079285907e+00,	 2.6748063525236955e+02,	 8.9967598298177181e+04,	 3.2822764712080368e+02,	 6.0884220443328385e-01 
-2.3684209999999997e-02,	 6.6834695000000000e-02,	 1.1700999107479442e+00,	 1.9967168723336826e+02,	 1.4345238661964310e+00,	 2.6741447549766275e+02,	 9.0019748691731846e+04,	 3.2818705202582640e+02,	 6.0842388217412147e-01 
-1.8421050000000001e-02,	 6.6834695000000000e-02,	 1.1706618165123936e+00,	 1.9972778131238138e+02,	 2.0247892674994095e+00,	 2.6737408734798083e+02,	 9.0049375611168667e+04,	 3.2816226771250268e+02,	 6.0865633894896276e-01 
-1.3157894999999999e-02,	 6.6834695000000000e-02,	 1.1706071233521376e+00,	 2.0021456945745021e+02,	 2.9791327553776186e+00,	 2.6733081343108569e+02,	 9.0030594901149816e+04,	 3.2813571046179197e+02,	 6.1022536148226481e-01 
-7.8947390000000013e-03,	 6.6834695000000000e-02,	 1.1695410268961624e+00,	 2.0152356172154026e+02,	 4.4494655638223417e+00,	 2.6721268985747480e+02,	 8.9908857198423822e+04,	 3.2806320695029694e+02,	 6.1443243752295373e-01 