TITLE = "Final State"
VARIABLES = "X", "Y", "rho", "u", "v", "T", "p", "c", "M"
ZONE I=29, J=49, DATAPACKING=POINT
-4.9137484999999995e-02,	 2.5214970000000004e-04,	 4.1277949573445056e+00,	 1.6480325940924476e+02,	 5.4533128793658320e-03,	 3.0865133664389200e+03,	 3.6653564518835577e+06,	 1.1149697058643901e+03,	 1.4780962983357845e-01 
-4.7412507499999999e-02,	 2.5030477500000001e-04,	 4.1361589798935023e+00,	 1.6336389546856202e+02,	 1.6340098746824873e-03,	 3.0867479208917043e+03,	 3.6730625567438677e+06,	 1.1150120701942835e+03,	 1.4651311841697720e-01 
-4.5687470000000001e-02,	 2.4842320000000002e-04,	 4.1359697641155373e+00,	 1.6343600047363861e+02,	 -2.4526721476761872e-03,	 3.0867362235001597e+03,	 3.6728806074917368e+06,	 1.1150099574942101e+03,	 1.4657806362495271e-01 
-4.3962060000000004e-02,	 2.4651795000000002e-04,	 4.1360869004446483e+00,	 1.6349836202997153e+02,	 -4.9171806709807425e-03,	 3.0867261034027101e+03,	 3.6729725863445508e+06,	 1.1150081296706030e+03,	 1.4663423319811489e-01 
-4.2236032499999999e-02,	 2.4459462499999999e-04,	 4.1361390332652768e+00,	 1.6360780401839989e+02,	 -7.0295706707227202e-03,	 3.0867083311740735e+03,	 3.6729977340094307e+06,	 1.1150049197635249e+03,	 1.4673280921855911e-01 
-4.0509455000000000e-02,	 2.4265229999999999e-04,	 4.1361737844605964e+00,	 1.6375801625899965e+02,	 -9.2226031555386837e-03,	 3.0866839177510301e+03,	 3.6729995432108874e+06,	 1.1150005103510202e+03,	 1.4686810902637837e-01 
-3.8782457499999999e-02,	 2.4068879999999997e-04,	 4.1362057823247254e+00,	 1.6395402035874079e+02,	 -1.1845711534959193e-02,	 3.0866520272887806e+03,	 3.6729900095623545e+06,	 1.1149947504522950e+03,	 1.4704465713418002e-01 
-3.7055267499999996e-02,	 2.3870409999999999e-04,	 4.1362446959758863e+00,	 1.6420676417286921e+02,	 -1.5148258663955878e-02,	 3.0866108477982193e+03,	 3.6729755628789943e+06,	 1.1149873127708627e+03,	 1.4727231690513123e-01 
-3.5328142500000000e-02,	 2.3670042499999999e-04,	 4.1362974559664449e+00,	 1.6453298678707247e+02,	 -1.9441056741029819e-02,	 3.0865576015436286e+03,	 3.6729590513511477e+06,	 1.1149776955633024e+03,	 1.4756616979007478e-01 
-3.3601087500000001e-02,	 2.3467715000000000e-04,	 4.1363720481137962e+00,	 1.6495621614773950e+02,	 -2.5100431776710404e-02,	 3.0864883630308441e+03,	 3.6729428935419945e+06,	 1.1149651897493279e+03,	 1.4794741537582837e-01 
-3.1874134999999998e-02,	 2.3263222500000000e-04,	 4.1364765585049401e+00,	 1.6550880406091619e+02,	 -3.2590741632336717e-02,	 3.0863976928005468e+03,	 3.6729277939018901e+06,	 1.1149488127407187e+03,	 1.4844520697127858e-01 
-3.0147282500000001e-02,	 2.3056560000000000e-04,	 4.1366226535504991e+00,	 1.6623476595013926e+02,	 -4.2574137087325825e-02,	 3.0862781122716005e+03,	 3.6729152067065025e+06,	 1.1149272135377837e+03,	 1.4909921417601574e-01 
-2.8420552500000001e-02,	 2.2847752500000000e-04,	 4.1368246735124883e+00,	 1.6719422356355508e+02,	 -5.5887255225242544e-02,	 3.0861192653220214e+03,	 3.6729055309455725e+06,	 1.1148985212003947e+03,	 1.4996363321401576e-01 
-2.6693945000000000e-02,	 2.2636762499999999e-04,	 4.1371039373206795e+00,	 1.6846939538058760e+02,	 -7.3779934262743541e-02,	 3.0859067316609530e+03,	 3.6729005157508021e+06,	 1.1148601303405794e+03,	 1.5111259874798028e-01 
-2.4967440000000000e-02,	 2.2422842499999999e-04,	 4.1374890075531541e+00,	 1.7017391682939800e+02,	 -9.7907495929942800e-02,	 3.0856201131204562e+03,	 3.6729012090234542e+06,	 1.1148083551199968e+03,	 1.5264860925447815e-01 
-2.3241009999999999e-02,	 2.2215249999999999e-04,	 4.1380110163619550e+00,	 1.7246472262441733e+02,	 -1.3048350757931632e-01,	 3.0852303613297945e+03,	 3.6729006116787638e+06,	 1.1147379458897258e+03,	 1.5471328720887836e-01 
-2.1514515000000001e-02,	 2.2022160000000001e-04,	 4.1387951664820175e+00,	 1.7556163311025239e+02,	 -1.7602869709501323e-01,	 3.0846951706886698e+03,	 3.6729593699882701e+06,	 1.1146412556719715e+03,	 1.5750513491705728e-01 
-1.9787954999999999e-02,	 2.1836199999999999e-04,	 4.1398447773007288e+00,	 1.7978028649951037e+02,	 -2.3870289175048232e-01,	 3.0839507949679223e+03,	 3.6730042874142728e+06,	 1.1145067590842748e+03,	 1.6130942545003782e-01 
-1.8060455000000000e-02,	 2.1682367500000001e-04,	 4.1416822022254500e+00,	 1.8561306687082927e+02,	 -3.3519375135350038e-01,	 3.0828924827087635e+03,	 3.6733734944592495e+06,	 1.1143155113223800e+03,	 1.6657164657889170e-01 
-1.6335587499999998e-02,	 2.1459969999999999e-04,	 4.1432950996706372e+00,	 1.9368283970352383e+02,	 -4.4332512338520563e-01,	 3.0813725676474678e+03,	 3.6729922813326535e+06,	 1.1140407898164224e+03,	 1.7385660277603524e-01 
-1.4614767500000000e-02,	 2.1129002500000000e-04,	 4.1497165111754040e+00,	 2.0543200759016912e+02,	 -6.6184179177053659e-01,	 3.0790439583573434e+03,	 3.6759048012047247e+06,	 1.1136197670469917e+03,	 1.8447326439113856e-01 
-1.2894530000000000e-02,	 2.0786295000000001e-04,	 4.1552948209996252e+00,	 2.2326722547022501e+02,	 -9.4058967439681318e-01,	 3.0752470788866403e+03,	 3.6763072001745254e+06,	 1.1129329330160210e+03,	 2.0061335244568226e-01 
-1.1174560000000000e-02,	 2.0448620000000002e-04,	 4.1552864223309944e+00,	 2.4864301635206016e+02,	 -1.2367389158943494e+00,	 3.0693004158529661e+03,	 3.6691908397238031e+06,	 1.1118563626606324e+03,	 2.2363148732561991e-01 
-9.4548387499999997e-03,	 2.0117710000000001e-04,	 4.1462747777770721e+00,	 2.8251039853364739e+02,	 -1.5424079018352261e+00,	 3.0603674954250218e+03,	 3.6505777117414135e+06,	 1.1102372051588454e+03,	 2.5446328738867469e-01 
-7.7354497499999997e-03,	 1.9780220000000003e-04,	 4.1241810550371749e+00,	 3.2614467962567875e+02,	 -1.8576317141107028e+00,	 3.0471792140733132e+03,	 3.6154774535314911e+06,	 1.1078424062758349e+03,	 2.9440105200756500e-01 
-6.0164219999999996e-03,	 1.9434299999999998e-04,	 4.0818729664902351e+00,	 3.8158593302574877e+02,	 -2.1863289189149211e+00,	 3.0276947932764679e+03,	 3.5555068215075755e+06,	 1.1042948163747099e+03,	 3.4555282764563106e-01 
-4.2974752500000001e-03,	 1.9099545000000000e-04,	 4.0064670437053120e+00,	 4.5214624198372468e+02,	 -2.5213504123246575e+00,	 2.9984821705280578e+03,	 3.4561531829355988e+06,	 1.0989545259740628e+03,	 4.1143947386121760e-01 
-2.5786155000000000e-03,	 1.8775200000000001e-04,	 3.8693214442336061e+00,	 5.4290261375142904e+02,	 -2.7705539631313911e+00,	 2.9536386386656195e+03,	 3.2879265598820685e+06,	 1.0907059113904256e+03,	 4.9775991622970794e-01 
-8.5962625000000003e-04,	 1.8387159999999999e-04,	 3.6101913220482515e+00,	 6.6339062285388275e+02,	 -2.7084440884735703e+00,	 2.8814668141883831e+03,	 2.9927730033099614e+06,	 1.0772978612990644e+03,	 6.1579640653180434e-01 
-4.9135840000000000e-02,	 5.5692510000000003e-04,	 4.1278032870058743e+00,	 1.6479493300193170e+02,	 1.5896141683132387e-02,	 3.0865147290817490e+03,	 3.6653654665650711e+06,	 1.1149699519843846e+03,	 1.4780212998144698e-01 
-4.7407657499999999e-02,	 5.5234902500000006e-04,	 4.1361584661567070e+00,	 1.6335795815764891e+02,	 4.5488668560285331e-03,	 3.0867488841606623e+03,	 3.6730632467641984e+06,	 1.1150122441729270e+03,	 1.4650777072152729e-01 
-4.5679294999999995e-02,	 5.4766827500000006e-04,	 4.1359714002256247e+00,	 1.6343077523710707e+02,	 -6.9416470437501767e-03,	 3.0867370716293967e+03,	 3.6728830695946692e+06,	 1.1150101106774448e+03,	 1.4657335733505888e-01 
-4.3950000000000003e-02,	 5.4291627500000004e-04,	 4.1360900379564800e+00,	 1.6349444141057083e+02,	 -1.3880972385505412e-02,	 3.0867267399903058e+03,	 3.6729761300437883e+06,	 1.1150082446468407e+03,	 1.4663070231522332e-01 
-4.2219162500000004e-02,	 5.3810467500000009e-04,	 4.1361432042522468e+00,	 1.6360535474205145e+02,	 -1.9755581614686872e-02,	 3.0867087290744503e+03,	 3.6730019114310830e+06,	 1.1150049916298653e+03,	 1.4673060404479243e-01 
-4.0486987500000002e-02,	 5.3323097500000000e-04,	 4.1361789131304700e+00,	 1.6375687830255319e+02,	 -2.5814411402809014e-02,	 3.0866841026803445e+03,	 3.6730043176223994e+06,	 1.1150005437519585e+03,	 1.4686708563045925e-01 
-3.8753889999999999e-02,	 5.2829250000000004e-04,	 4.1362116609187050e+00,	 1.6395366029215211e+02,	 -3.2984025722141867e-02,	 3.0866520856493221e+03,	 3.6729952992563904e+06,	 1.1149947609931166e+03,	 1.4704433540473838e-01 
-3.7020354999999998e-02,	 5.2328877500000006e-04,	 4.1362513297673908e+00,	 1.6420612346442641e+02,	 -4.2059095255947913e-02,	 3.0866109517820391e+03,	 3.6729815774081168e+06,	 1.1149873315520833e+03,	 1.4727174399575640e-01 
-3.5286985000000000e-02,	 5.1822160000000001e-04,	 4.1363045414653108e+00,	 1.6453026667411584e+02,	 -5.3819413442323279e-02,	 3.0865580450925468e+03,	 3.6729658709666613e+06,	 1.1149777756763599e+03,	 1.4756372643995541e-01 
-3.3553800000000002e-02,	 5.1308875000000002e-04,	 4.1363789990220177e+00,	 1.6494849930877379e+02,	 -6.9282266625044817e-02,	 3.0864896255294375e+03,	 3.6729505680719567e+06,	 1.1149654177822370e+03,	 1.4794047530816198e-01 
-3.1820874999999998e-02,	 5.0788697499999994e-04,	 4.1364824196153247e+00,	 1.6549142226011060e+02,	 -8.9704294398466139e-02,	 3.0864005467413926e+03,	 3.6729363944950369e+06,	 1.1149493282279532e+03,	 1.4842956749895497e-01 
-3.0088210000000001e-02,	 5.0261572500000001e-04,	 4.1366256424160346e+00,	 1.6620044976942950e+02,	 -1.1681572944775519e-01,	 3.0862837717268740e+03,	 3.6729245957304980e+06,	 1.1149282357849008e+03,	 1.4906833057734964e-01 
-2.8355860000000004e-02,	 4.9727360000000000e-04,	 4.1368221979714264e+00,	 1.6713167353549571e+02,	 -1.5291483686954410e-01,	 3.0861296401192612e+03,	 3.6729156804464208e+06,	 1.1149003952103378e+03,	 1.4990733181829960e-01 
-2.6623835000000002e-02,	 4.9185975000000002e-04,	 4.1370913759995842e+00,	 1.6836139753382525e+02,	 -2.0121015807361664e-01,	 3.0859247785195980e+03,	 3.6729108434953857e+06,	 1.1148633902728320e+03,	 1.5101537931618511e-01 
-2.4892077500000002e-02,	 4.8637367500000003e-04,	 4.1374593832715387e+00,	 1.6999397692839656e+02,	 -2.6613013548808540e-01,	 3.0856504781088720e+03,	 3.6729110552236517e+06,	 1.1148138404127853e+03,	 1.5248661173982306e-01 
-2.3160490000000002e-02,	 4.8105880000000003e-04,	 4.1379527575725534e+00,	 1.7217166889845768e+02,	 -3.5341115550822239e-01,	 3.0852804600995287e+03,	 3.6729085418204479e+06,	 1.1147469965547348e+03,	 1.5444942408273521e-01 
-2.1428610000000001e-02,	 4.7619477500000004e-04,	 4.1386881924580727e+00,	 1.7509332352158125e+02,	 -4.7451678727317453e-01,	 3.0847766184415264e+03,	 3.6729614139344059e+06,	 1.1146559709714147e+03,	 1.5708341503510084e-01 
-1.9696392500000000e-02,	 4.7162385000000008e-04,	 4.1396581674811026e+00,	 1.7903653247690815e+02,	 -6.4014707024838735e-01,	 3.0840831393268941e+03,	 3.6729963369791112e+06,	 1.1145306727440582e+03,	 1.6063952413158297e-01 
-1.7961287499999999e-02,	 4.6810387500000001e-04,	 4.1413327166798135e+00,	 1.8442583783726104e+02,	 -8.8622902348872012e-01,	 3.0831103000260191e+03,	 3.6733230409787064e+06,	 1.1143548758038785e+03,	 1.6550200582037816e-01 
-1.6235264999999999e-02,	 4.6136032500000002e-04,	 4.1428538897328506e+00,	 1.9178564329156413e+02,	 -1.1954099429880427e+00,	 3.0817350971663427e+03,	 3.6730332415772588e+06,	 1.1141063224296115e+03,	 1.7214637860008900e-01 
-1.4522629999999998e-02,	 4.4989912499999996e-04,	 4.1490452699635059e+00,	 2.0263878505756230e+02,	 -1.8071138729581055e+00,	 3.0796085521917589e+03,	 3.6759841309924703e+06,	 1.1137218627044251e+03,	 1.8195462396882001e-01 
-1.2811762499999999e-02,	 4.3783887500000005e-04,	 4.1542424143666317e+00,	 2.1947448959531553e+02,	 -2.5754097020053508e+00,	 3.0760780522854407e+03,	 3.6763692425605757e+06,	 1.1130832876334125e+03,	 1.9719063434513381e-01 
-1.1101625000000000e-02,	 4.2586447500000003e-04,	 4.1537466575451782e+00,	 2.4378398375624585e+02,	 -3.3872692971103135e+00,	 3.0704836096631739e+03,	 3.6692451236287556e+06,	 1.1120706484308951e+03,	 2.1923743357463910e-01 
-9.3921557500000006e-03,	 4.1403435000000004e-04,	 4.1441330748454561e+00,	 2.7657470345789102e+02,	 -4.2165303224124537e+00,	 3.0620077153345551e+03,	 3.6506475900407052e+06,	 1.1105346840136297e+03,	 2.4907537532164487e-01 
-7.6835697500000008e-03,	 4.0199995000000000e-04,	 4.1213760249858673e+00,	 3.1915694874369575e+02,	 -5.0771448388150633e+00,	 3.0494072168561038e+03,	 3.6156601411540974e+06,	 1.1082473422467604e+03,	 2.8801993706658663e-01 
-5.9759235000000008e-03,	 3.8971810000000003e-04,	 4.0783355780819175e+00,	 3.7364308422374990e+02,	 -5.9785960845540718e+00,	 3.0306581218029928e+03,	 3.5559024907907597e+06,	 1.1048350934239197e+03,	 3.3823229784206732e-01 
-4.2684109999999997e-03,	 3.7778995000000001e-04,	 4.0021680997727582e+00,	 4.4344209304279684e+02,	 -6.9021812909695717e+00,	 3.0023325270464511e+03,	 3.4568780171129168e+06,	 1.0996598843815700e+03,	 4.0330270509489219e-01 
-2.5610467500000000e-03,	 3.6618002500000003e-04,	 3.8643611078219613e+00,	 5.3374150285859128e+02,	 -7.6227247114150405e+00,	 2.9585113009626002e+03,	 3.2891287401952338e+06,	 1.0916052176557564e+03,	 4.8900089895374177e-01 
-8.5376275000000003e-04,	 3.5260584999999999e-04,	 3.6047079955522539e+00,	 6.5433002167413099e+02,	 -7.4803317376194531e+00,	 2.8873712767124694e+03,	 2.9943506680078981e+06,	 1.0784010511073409e+03,	 6.0679909144958255e-01 
-4.9133017500000001e-02,	 8.6243785000000004e-04,	 4.1278207278041110e+00,	 1.6479370195468556e+02,	 2.5235239584759060e-02,	 3.0865149303759731e+03,	 3.6653811925169332e+06,	 1.1149699883420610e+03,	 1.4780102209916504e-01 
-4.7399224999999996e-02,	 8.5662172499999993e-04,	 4.1361609645927597e+00,	 1.6336850788310608e+02,	 6.2079749377306195e-03,	 3.0867471726026879e+03,	 3.6730634288066481e+06,	 1.1150119350437374e+03,	 1.4651727292466049e-01 
-4.5665157499999998e-02,	 8.5065189999999988e-04,	 4.1359722718497043e+00,	 1.6345158690357516e+02,	 -1.1958297953420755e-02,	 3.0867336935566550e+03,	 3.6728798240846177e+06,	 1.1150095005531932e+03,	 1.4659210281161059e-01 
-4.3929930000000006e-02,	 8.4457202500000015e-04,	 4.1360911012494306e+00,	 1.6352721879730433e+02,	 -2.3156267447820858e-02,	 3.0867214173201123e+03,	 3.6729707406960693e+06,	 1.1150072833010190e+03,	 1.4666022624775818e-01 
-4.2192720000000003e-02,	 8.3839357500000008e-04,	 4.1361447328227952e+00,	 1.6365232010160301e+02,	 -3.2690930406176440e-02,	 3.0867010968439768e+03,	 3.6729941869322793e+06,	 1.1150036131421161e+03,	 1.4677290856983854e-01 
-4.0453852499999998e-02,	 8.3211315000000004e-04,	 4.1361812745986031e+00,	 1.6382062487703672e+02,	 -4.2578808146340130e-02,	 3.0866737331373538e+03,	 3.6729940753902383e+06,	 1.1149986708593333e+03,	 1.4692450734863491e-01 
-3.8714010000000000e-02,	 8.2573267500000004e-04,	 4.1362148623502177e+00,	 1.6403717524277207e+02,	 -5.4271470086973223e-02,	 3.0866384831013588e+03,	 3.6729819556452571e+06,	 1.1149923041586560e+03,	 1.4711956630442394e-01 
-3.6973667500000001e-02,	 8.1925077500000004e-04,	 4.1362552561159509e+00,	 1.6431273487687457e+02,	 -6.9053189265159673e-02,	 3.0865935591179605e+03,	 3.6729643671881515e+06,	 1.1149841901410452e+03,	 1.4736778408135992e-01 
-3.5233534999999996e-02,	 8.1266247500000007e-04,	 4.1363087815673341e+00,	 1.6466357140697463e+02,	 -8.8154931283853877e-02,	 3.0865362524213497e+03,	 3.6729437030672971e+06,	 1.1149738395140405e+03,	 1.4768381926900193e-01 
-3.3493637499999999e-02,	 8.0596382499999999e-04,	 4.1363827383156373e+00,	 1.6511220979733713e+02,	 -1.1317481187213974e-01,	 3.0864627906477581e+03,	 3.6729219546447331e+06,	 1.1149605708470895e+03,	 1.4808797091296488e-01 
-3.1754079999999997e-02,	 7.9915485000000002e-04,	 4.1364843406632037e+00,	 1.6568901165793525e+02,	 -1.4610900347729003e-01,	 3.0863680468749808e+03,	 3.6728994241449102e+06,	 1.1149434579918859e+03,	 1.4860760417192631e-01 
-3.0014869999999999e-02,	 7.9223439999999998e-04,	 4.1366234587028012e+00,	 1.6643461805222432e+02,	 -1.8964414420170272e-01,	 3.0862450829060163e+03,	 3.6728766140360855e+06,	 1.1149212475431902e+03,	 1.4927935624518310e-01 
-2.8276092499999995e-02,	 7.8519705000000008e-04,	 4.1368125174413306e+00,	 1.6740335315841563e+02,	 -2.4740972117615270e-01,	 3.0860844915229031e+03,	 3.6728533526297030e+06,	 1.1148922399515036e+03,	 1.5015221201305762e-01 
-2.6537757500000002e-02,	 7.7804320000000003e-04,	 4.1370685036308208e+00,	 1.6866828359223419e+02,	 -3.2433763287985012e-01,	 3.0858733881699391e+03,	 3.6728293722252515e+06,	 1.1148541072439039e+03,	 1.5129207878914419e-01 
-2.4799762500000003e-02,	 7.7080862499999999e-04,	 4.1374147994215269e+00,	 1.7032790306839868e+02,	 -4.2726429340323918e-01,	 3.0855939933547506e+03,	 3.6728042429875489e+06,	 1.1148036366851934e+03,	 1.5278783935992504e-01 
-2.3061950000000001e-02,	 7.6382207500000007e-04,	 4.1378727825302075e+00,	 1.7251437895024705e+02,	 -5.6479031800793245e-01,	 3.0852217075374706e+03,	 3.6727676134516615e+06,	 1.1147363825190348e+03,	 1.5475883462604839e-01 
-2.1323482499999998e-02,	 7.5759212500000001e-04,	 4.1385497251105958e+00,	 1.7541069431443901e+02,	 -7.5432445371353751e-01,	 3.0847212118453067e+03,	 3.6727725593718961e+06,	 1.1146459605916905e+03,	 1.5737043189670538e-01 
-1.9584192500000000e-02,	 7.5197692500000000e-04,	 4.1394262630404759e+00,	 1.7926586655300238e+02,	 -1.0117946375811626e+00,	 3.0840420332482054e+03,	 3.6727416223811116e+06,	 1.1145232452305763e+03,	 1.6084789853681716e-01 
-1.7840097499999999e-02,	 7.4815327499999998e-04,	 4.1409255325226866e+00,	 1.8445270590470105e+02,	 -1.3870258969282472e+00,	 3.0831048151891105e+03,	 3.6729553382938984e+06,	 1.1143538845877240e+03,	 1.6552903290396803e-01 
-1.6113640000000002e-02,	 7.3660247499999999e-04,	 4.1423361342787866e+00,	 1.9143522266977203e+02,	 -1.8887843792655201e+00,	 3.0818007195307732e+03,	 3.6726524058909421e+06,	 1.1141181842379115e+03,	 1.7183503773797262e-01 
-1.4411905000000001e-02,	 7.1441777500000001e-04,	 4.1482550162581102e+00,	 2.0175929598068720e+02,	 -2.8736910414463646e+00,	 3.0797826835264741e+03,	 3.6754917923472975e+06,	 1.1137533490329354e+03,	 1.8117095705848643e-01 
-1.2713094999999999e-02,	 6.9078284999999999e-04,	 4.1529914732805988e+00,	 2.1795678125105368e+02,	 -4.0986870669332101e+00,	 3.0764026688575650e+03,	 3.6756500485361880e+06,	 1.1131420175718397e+03,	 1.9583782877712735e-01 
-1.1015359999999998e-02,	 6.6714032500000010e-04,	 4.1519207416783432e+00,	 2.4153057662000126e+02,	 -5.3819434515431128e+00,	 3.0710179697973390e+03,	 3.6682704689894444e+06,	 1.1121674117496962e+03,	 2.1722496867966604e-01 
-9.3185572500000015e-03,	 6.4361665000000007e-04,	 4.1416385240400526e+00,	 2.7353775007550661e+02,	 -6.6802617730054470e+00,	 3.0628239724974683e+03,	 3.6494226801300733e+06,	 1.1106826949873555e+03,	 2.4635236587873191e-01 
-7.6229640000000003e-03,	 6.1977480000000008e-04,	 4.1181700568575117e+00,	 3.1531436435324150e+02,	 -8.0207877039142090e+00,	 3.0505986922459056e+03,	 3.6142591880767476e+06,	 1.1084638303020947e+03,	 2.8455268756144764e-01 
-5.9286272500000004e-03,	 5.9556932500000001e-04,	 4.0743653819867287e+00,	 3.6901853888459226e+02,	 -9.4152856806102001e+00,	 3.0323372761970741e+03,	 3.5544091264328477e+06,	 1.1051411213110734e+03,	 3.3401945226307789e-01 
-4.2342745000000003e-03,	 5.7201052500000004e-04,	 3.9974201575611779e+00,	 4.3812152378601695e+02,	 -1.0835205960697133e+01,	 3.0046269644766517e+03,	 3.4554156510317717e+06,	 1.1000799942312708e+03,	 3.9838510710297509e-01 
-2.5399242500000001e-03,	 5.4902385000000001e-04,	 3.8589835147219835e+00,	 5.2794423819108340e+02,	 -1.1938260798018060e+01,	 2.9615256506824667e+03,	 3.2878981764238784e+06,	 1.0921611800686312e+03,	 4.8351764273911430e-01 
-8.4646775000000009e-04,	 5.2280010000000006e-04,	 3.5993513469350740e+00,	 6.4853417350073835e+02,	 -1.1719943414377108e+01,	 2.8910804852071069e+03,	 2.9937419407207654e+06,	 1.0790935028470740e+03,	 6.0109718133313572e-01 
-4.9129450000000005e-02,	 1.1684059500000001e-03,	 4.1278419603587926e+00,	 1.6479560313831740e+02,	 3.3611165832953920e-02,	 3.0865146189934535e+03,	 3.6653996766064065e+06,	 1.1149699321002834e+03,	 1.4780273603925875e-01 
-4.7388512499999993e-02,	 1.1622767250000000e-03,	 4.1361659434929727e+00,	 1.6338463374036303e+02,	 6.1617105522713085e-03,	 3.0867445561745062e+03,	 3.6730647368407743e+06,	 1.1150114624832870e+03,	 1.4653179752311296e-01 
-4.5647212499999999e-02,	 1.1559720750000000e-03,	 4.1359749898871625e+00,	 1.6348048267795153e+02,	 -1.8763132870330275e-02,	 3.0867290025317079e+03,	 3.6728766559746792e+06,	 1.1150086532919959e+03,	 1.4661813006745289e-01 
-4.3904727500000004e-02,	 1.1495374500000001e-03,	 4.1360940518181737e+00,	 1.6357083644744864e+02,	 -3.4554002644803683e-02,	 3.0867143325381594e+03,	 3.6729649305142271e+06,	 1.1150060036928292e+03,	 1.4669951511959875e-01 
-4.2160150000000000e-02,	 1.1429795250000002e-03,	 4.1361484368044001e+00,	 1.6371337565038590e+02,	 -4.8172059548856914e-02,	 3.0866911713596151e+03,	 3.6729856653976189e+06,	 1.1150018204580379e+03,	 1.4682790622741659e-01 
-4.0413839999999999e-02,	 1.1362947250000001e-03,	 4.1361862683953312e+00,	 1.6390236086157557e+02,	 -6.2441603605255434e-02,	 3.0866604310363887e+03,	 3.6729826810774505e+06,	 1.1149962682988173e+03,	 1.4699813570298453e-01 
-3.8666687500000005e-02,	 1.1294922250000001e-03,	 4.1362213675471793e+00,	 1.6414341748396586e+02,	 -7.9314800601394689e-02,	 3.0866211682784638e+03,	 3.6729671282859626e+06,	 1.1149891768210268e+03,	 1.4721527352811029e-01 
-3.6919080000000000e-02,	 1.1225701000000001e-03,	 4.1362632667403840e+00,	 1.6444784302823848e+02,	 -1.0060064373775951e-01,	 3.0865715004166404e+03,	 3.6729452312443536e+06,	 1.1149802059515659e+03,	 1.4748950064006955e-01 
-3.5171697500000002e-02,	 1.1155130500000001e-03,	 4.1363180594404740e+00,	 1.6483241441020436e+02,	 -1.2799604626331668e-01,	 3.0865086233163825e+03,	 3.6729190631973250e+06,	 1.1149688491630989e+03,	 1.4783593660918271e-01 
-3.3424559999999999e-02,	 1.1083159749999999e-03,	 4.1363926802574120e+00,	 1.6532008108216382e+02,	 -1.6369708911369829e-01,	 3.0864286767071408e+03,	 3.6728901866100430e+06,	 1.1149544091327930e+03,	 1.4827526647994921e-01 
-3.1677787499999999e-02,	 1.1009858500000001e-03,	 4.1364938851774085e+00,	 1.6594138021822957e+02,	 -2.1046637512204489e-01,	 3.0863264773382912e+03,	 3.6728584294858086e+06,	 1.1149359495161723e+03,	 1.4883501941012089e-01 
-2.9931389999999999e-02,	 1.0935215250000001e-03,	 4.1366306711728340e+00,	 1.6673673821322285e+02,	 -2.7194143039080082e-01,	 3.0861950820044226e+03,	 3.6728235127881756e+06,	 1.1149122159705382e+03,	 1.4955164863012890e-01 
-2.8185477500000000e-02,	 1.0859139750000002e-03,	 4.1368144555321837e+00,	 1.6775949505369303e+02,	 -3.5311174845423515e-01,	 3.0860251885494786e+03,	 3.6727844948522816e+06,	 1.1148815278756208e+03,	 1.5047326777394668e-01 
-2.6440060000000001e-02,	 1.0781670750000000e-03,	 4.1370601901354194e+00,	 1.6908061266385587e+02,	 -4.6053662746837637e-01,	 3.0858041831223081e+03,	 3.6727396234297319e+06,	 1.1148416060887262e+03,	 1.5166391255679568e-01 
-2.4694972500000002e-02,	 1.0703678750000000e-03,	 4.1373886058469918e+00,	 1.7079429911326480e+02,	 -6.0344119372342508e-01,	 3.0855149024030993e+03,	 3.6726868488974003e+06,	 1.1147893490884237e+03,	 1.5320864455021707e-01 
-2.2950020000000002e-02,	 1.0628730250000001e-03,	 4.1378168109949431e+00,	 1.7302515461164191e+02,	 -7.9300361545700138e-01,	 3.0851339153063464e+03,	 3.6726134233646146e+06,	 1.1147205220883056e+03,	 1.5522004700600062e-01 
-2.1203972500000001e-02,	 1.0564204499999999e-03,	 4.1384434678340254e+00,	 1.7594321885478550e+02,	 -1.0519983111171929e+00,	 3.0846280374623093e+03,	 3.6725673272275850e+06,	 1.1146291264555130e+03,	 1.5785193451403590e-01 
-1.9456517499999999e-02,	 1.0509350750000002e-03,	 4.1392388865794292e+00,	 1.7977496594461817e+02,	 -1.4011833525864636e+00,	 3.0839508032026515e+03,	 3.6724667313606767e+06,	 1.1145067605722463e+03,	 1.6130940852095244e-01 
-1.7702799999999998e-02,	 1.0476008250000000e-03,	 4.1405898692492622e+00,	 1.8485367398893692e+02,	 -1.9018538734874517e+00,	 3.0830304454370194e+03,	 3.6725690178953949e+06,	 1.1143404444475279e+03,	 1.6589495445069025e-01 
-1.5976805000000000e-02,	 1.0307588500000002e-03,	 4.1419246448228240e+00,	 1.9161158315649396e+02,	 -2.6138163103955843e+00,	 3.0817655553984596e+03,	 3.6722456719203074e+06,	 1.1141118280334445e+03,	 1.7200195288373801e-01 
-1.4287979999999999e-02,	 9.9614392499999989e-04,	 4.1476356311522560e+00,	 2.0157577972465077e+02,	 -3.9854957796551060e+00,	 3.0798156530339638e+03,	 3.6749823373436141e+06,	 1.1137593104602313e+03,	 1.8102221368128829e-01 
-1.2603267499999999e-02,	 9.5888140000000000e-04,	 4.1519699757865878e+00,	 2.1733067341201794e+02,	 -5.6750906844632683e+00,	 3.0765303507184713e+03,	 3.6748984764002925e+06,	 1.1131651170462712e+03,	 1.9530324246285827e-01 
-1.0919872500000000e-02,	 9.2142557500000000e-04,	 4.1503911222643826e+00,	 2.4038223481417918e+02,	 -7.4322004529413341e+00,	 3.0712797222922122e+03,	 3.6672315753832059e+06,	 1.1122148074983957e+03,	 2.1623260282179846e-01 
-9.2375489999999994e-03,	 8.8399712500000002e-04,	 4.1395396141472407e+00,	 2.7181192335212427e+02,	 -9.1958011526557080e+00,	 3.0632714949873812e+03,	 3.6481061793465465e+06,	 1.1107638353555615e+03,	 2.4484721595821451e-01 
-7.5565655000000001e-03,	 8.4618732500000009e-04,	 4.1154886345668489e+00,	 3.1296643421235211e+02,	 -1.1009096608466878e+01,	 3.0513029611961674e+03,	 3.6127397259072089e+06,	 1.1085917743035886e+03,	 2.8248451136805086e-01 
-5.8769422499999995e-03,	 8.0796607500000005e-04,	 4.0710862258389806e+00,	 3.6602303673865777e+02,	 -1.2881228861202608e+01,	 3.0333922397525216e+03,	 3.5527840441385931e+06,	 1.1053333463365313e+03,	 3.3134766854780856e-01 
-4.1971099999999996e-03,	 7.7064359999999999e-04,	 3.9935651471435771e+00,	 4.3446967814048014e+02,	 -1.4770726079312288e+01,	 3.0061592493055218e+03,	 3.4538438124074838e+06,	 1.1003604651603321e+03,	 3.9507116132465159e-01 
-2.5170897500000002e-03,	 7.3411240000000001e-04,	 3.8547286723158360e+00,	 5.2386368160949689e+02,	 -1.6232240267035998e+01,	 2.9635968039038003e+03,	 3.2865698696349286e+06,	 1.0925430166726546e+03,	 4.7972033712260059e-01 
-8.3862550000000002e-04,	 6.9358389999999998e-04,	 3.5954965288509917e+00,	 6.4472177850541141e+02,	 -1.5975573554056046e+01,	 2.8934702029212226e+03,	 2.9930076413451415e+06,	 1.0795393908479366e+03,	 5.9740263590633236e-01 
-4.9125450000000001e-02,	 1.4746327500000001e-03,	 4.1278641975017134e+00,	 1.6480080763151497e+02,	 4.0436668307517291e-02,	 3.0865137669625251e+03,	 3.6654184106840729e+06,	 1.1149697782068065e+03,	 1.4780742564831920e-01 
-4.7376484999999996e-02,	 1.4687190000000001e-03,	 4.1361732878331514e+00,	 1.6340400234102768e+02,	 4.4256082843048498e-03,	 3.0867414132674212e+03,	 3.6730675189782442e+06,	 1.1150108948337368e+03,	 1.4654924284423668e-01 
-4.5627084999999998e-02,	 1.4626284999999998e-03,	 4.1359793409935808e+00,	 1.6351283236917862e+02,	 -2.7291530999227900e-02,	 3.0867237497127389e+03,	 3.6728742695967350e+06,	 1.1150077045625978e+03,	 1.4664726887327126e-01 
-4.3876572500000002e-02,	 1.4564037500000003e-03,	 4.1360983674985876e+00,	 1.6361794157734192e+02,	 -4.7964165733203161e-02,	 3.0867066789532028e+03,	 3.6729596557393740e+06,	 1.1150046213494136e+03,	 1.4674194660252637e-01 
-4.2124052500000002e-02,	 1.4500440000000002e-03,	 4.1361534150378869e+00,	 1.6377792851105002e+02,	 -6.6050718490218152e-02,	 3.0866806729324790e+03,	 3.6729775936303874e+06,	 1.1149999242891838e+03,	 1.4688605645816552e-01 
-4.0369842500000003e-02,	 1.4435455000000000e-03,	 4.1361925184556441e+00,	 1.6398765013704366e+02,	 -8.5192711081266484e-02,	 3.0866465429705531e+03,	 3.6729717050266047e+06,	 1.1149937598986635e+03,	 1.4707496863573985e-01 
-3.8614987500000003e-02,	 1.4369260000000000e-03,	 4.1362292557935225e+00,	 1.6425337831739827e+02,	 -1.0786213994187674e-01,	 3.0866032346478441e+03,	 3.6729527926435433e+06,	 1.1149859377074467e+03,	 1.4731433660109780e-01 
-3.6859784999999999e-02,	 1.4301830000000000e-03,	 4.1362728274912097e+00,	 1.6458704370700062e+02,	 -1.3637630125402145e-01,	 3.0865487530691667e+03,	 3.6729266522059725e+06,	 1.1149760973655673e+03,	 1.4761491353613532e-01 
-3.5104802499999997e-02,	 1.4232905000000000e-03,	 4.1363291879104098e+00,	 1.6500604233341241e+02,	 -1.7292905621925003e-01,	 3.0864801793251386e+03,	 3.6728950967259659e+06,	 1.1149637116045951e+03,	 1.4799237969114928e-01 
-3.3350060000000001e-02,	 1.4162437500000000e-03,	 4.1364049514176102e+00,	 1.6553390166314750e+02,	 -2.2031486434580405e-01,	 3.0863935379372606e+03,	 3.6728592670120122e+06,	 1.1149480622766002e+03,	 1.4846794561664425e-01 
-3.1595667500000001e-02,	 1.4090580000000001e-03,	 4.1365064667657894e+00,	 1.6620157335845133e+02,	 -2.8209096951378332e-01,	 3.0862835468871726e+03,	 3.6728185116779679e+06,	 1.1149281951729295e+03,	 1.4906952167129373e-01 
-2.9841637500000000e-02,	 1.4017325000000003e-03,	 4.1366420568412776e+00,	 1.6704965024719189e+02,	 -3.6282697538574149e-01,	 3.0861431902797499e+03,	 3.6727718663242762e+06,	 1.1149028427845592e+03,	 1.4983372349676527e-01 
-2.8088099999999998e-02,	 1.3942560000000000e-03,	 4.1368222494099722e+00,	 1.6813106016311642e+02,	 -4.6889380539624698e-01,	 3.0859631686222174e+03,	 3.6727176023011021e+06,	 1.1148703249180226e+03,	 1.5080831397457975e-01 
-2.6335060000000000e-02,	 1.3866372500000001e-03,	 4.1370603330317550e+00,	 1.6951553776526885e+02,	 -6.0842043059166617e-01,	 3.0857309799379250e+03,	 3.6726526234877813e+06,	 1.1148283825601402e+03,	 1.5205625572186271e-01 
-2.4582290000000000e-02,	 1.3790172500000000e-03,	 4.1373749442791379e+00,	 1.7129447853165507e+02,	 -7.9283938272641519e-01,	 3.0854298076282071e+03,	 3.6725734338310687e+06,	 1.1147739767104297e+03,	 1.5366012926004158e-01 
-2.2829572500000003e-02,	 1.3717392499999999e-03,	 4.1377795001362987e+00,	 1.7358666069211770e+02,	 -1.0358478190249640e+00,	 3.0850370529023585e+03,	 3.6724650010993415e+06,	 1.1147030227900536e+03,	 1.5572735314721831e-01 