TITLE = "Final State"
VARIABLES = "X", "Y", "rho", "u", "v", "T", "p", "c", "M"
ZONE I=299, J=14, DATAPACKING=POINT
5.0499827499999997e-02,	 2.2306562500000002e-02,	 1.5680536267112752e-01,	 7.3180467953914399e+02,	 6.3833419235753198e+01,	 1.9410027363419724e+03,	 8.7562266877388654e+04,	 8.8418279606601618e+02,	 8.3080491819360580e-01 
5.1499512500000004e-02,	 2.2321537500000002e-02,	 1.7925881701307791e-01,	 9.4979790908802022e+02,	 4.8472004616201161e+01,	 1.8442547075903742e+03,	 9.5111134977357055e+04,	 8.6186538178658498e+02,	 1.1034599898025454e+00 
5.2499342500000004e-02,	 2.2338654999999999e-02,	 1.8886255234050742e-01,	 1.0334905104772990e+03,	 3.4784634645498990e+01,	 1.8149752687884177e+03,	 9.8615800333995474e+04,	 8.5499651078463273e+02,	 1.2094502286846882e+00 
5.3499440000000002e-02,	 2.2356089999999999e-02,	 1.9348906338063904e-01,	 1.0631282074187473e+03,	 2.2275498916488690e+01,	 1.8008225351091496e+03,	 1.0024374348412530e+05,	 8.5165645987479979e+02,	 1.2485803828223767e+00 
5.4499895000000000e-02,	 2.2373535000000000e-02,	 1.9698952096077654e-01,	 1.0560995292268090e+03,	 1.2489081263499141e+01,	 1.7886083243328590e+03,	 1.0136506640291581e+05,	 8.4876333465310438e+02,	 1.2443673393766996e+00 
5.5500800000000003e-02,	 2.2390937499999999e-02,	 2.0410300517225322e-01,	 1.0099978944794454e+03,	 6.8878970730886442e+00,	 1.7623958291538565e+03,	 1.0348628412678752e+05,	 8.4252096158318545e+02,	 1.1988086077448783e+00 
5.6502247499999998e-02,	 2.2408292500000000e-02,	 2.1064552742473544e-01,	 9.5664722359901953e+02,	 2.1473760982425216e+00,	 1.7203420989633271e+03,	 1.0425502505541145e+05,	 8.3240828703818738e+02,	 1.1492552976572199e+00 
5.7504332499999998e-02,	 2.2425614999999999e-02,	 2.1796244939508705e-01,	 8.9646689617810136e+02,	 -2.4054860126798618e+00,	 1.6670512752159891e+03,	 1.0453472360332683e+05,	 8.1941416197046033e+02,	 1.0940378688745136e+00 
5.8507144999999997e-02,	 2.2442919999999998e-02,	 2.2706704439675773e-01,	 8.2849017310729266e+02,	 -6.4099211982114515e+00,	 1.6045904138457679e+03,	 1.0482098533009381e+05,	 8.0391676061289570e+02,	 1.0305979545317181e+00 
5.9510787500000009e-02,	 2.2460217499999997e-02,	 2.3783212386868272e-01,	 7.5376928124378037e+02,	 -9.6114212200879621e+00,	 1.5379376332302725e+03,	 1.0522990440758348e+05,	 7.8704279712120046e+02,	 9.5780122735653428e-01 
6.0515349999999996e-02,	 2.2477515000000000e-02,	 2.4990971000790316e-01,	 6.7844912701523708e+02,	 -1.2611777480166554e+01,	 1.4623276383206683e+03,	 1.0513752672197642e+05,	 7.6745219178563661e+02,	 8.8418059798983284e-01 
6.1520925000000004e-02,	 2.2494819999999999e-02,	 2.6499918780146053e-01,	 6.0174957703910457e+02,	 -1.5365779845625228e+01,	 1.3758359147995820e+03,	 1.0489169957738096e+05,	 7.4441018689949829e+02,	 8.0862102586683993e-01 
6.2527612499999996e-02,	 2.2512140000000000e-02,	 2.8533838107390258e-01,	 5.2758033846292767e+02,	 -1.8106056806179193e+01,	 1.2682728809865582e+03,	 1.0411249075212466e+05,	 7.1471902005408799e+02,	 7.3859925868763576e-01 
6.3535505000000006e-02,	 2.2529474999999997e-02,	 3.0762918573571663e-01,	 4.7125203757612940e+02,	 -1.9092283238419135e+01,	 1.1641759490943975e+03,	 1.0303294092337703e+05,	 6.8475986559053035e+02,	 6.8876500309703925e-01 
6.4544699999999997e-02,	 2.2546825000000000e-02,	 3.3363907579525959e-01,	 4.2432071574655538e+02,	 -1.8562551727086678e+01,	 1.0674188395760602e+03,	 1.0245701776834884e+05,	 6.5568676631371204e+02,	 6.4775830007686019e-01 
6.5555292500000001e-02,	 2.2564200000000000e-02,	 3.6253663321614121e-01,	 3.8450189450902496e+02,	 -1.7510921701547041e+01,	 9.7851654007786874e+02,	 1.0205869381051991e+05,	 6.2778808972244030e+02,	 6.1310565463459044e-01 
6.6567377499999997e-02,	 2.2581600000000000e-02,	 3.9412620109163277e-01,	 3.4962912403292563e+02,	 -1.6548219456227290e+01,	 8.9714491368708150e+02,	 1.0172503407405950e+05,	 6.0111876603255996e+02,	 5.8228181318606353e-01 
6.7581052500000002e-02,	 2.2599024999999998e-02,	 4.2845071537657886e-01,	 3.1851916719934445e+02,	 -1.5865429504890312e+01,	 8.2262792840165696e+02,	 1.0139913719181146e+05,	 5.7561315604225206e+02,	 5.5404232398293329e-01 
6.8596417500000006e-02,	 2.2616479999999998e-02,	 4.6527125902687561e-01,	 2.9086290241085595e+02,	 -1.5389180646854104e+01,	 7.5497758590336275e+02,	 1.0105788892094149e+05,	 5.5143714340032545e+02,	 5.2820114173524002e-01 
6.9613565000000002e-02,	 2.2633962500000000e-02,	 4.9925230505931711e-01,	 2.6720263396553037e+02,	 -1.3746707753229451e+01,	 7.0282970037886730e+02,	 1.0094855852836982e+05,	 5.3205195025207138e+02,	 5.0287572839634420e-01 
7.0632590000000009e-02,	 2.2651480000000002e-02,	 5.3423301132778600e-01,	 2.4438666971696952e+02,	 -1.2815208253209208e+01,	 6.5614451750405033e+02,	 1.0084634493066426e+05,	 5.1407766874884271e+02,	 4.7604176848727781e-01 
7.1653595000000000e-02,	 2.2669032499999998e-02,	 5.7683086092388436e-01,	 2.2089017603287172e+02,	 -1.3397181743771201e+01,	 6.0624430885200206e+02,	 1.0060651366579780e+05,	 4.9414320065593387e+02,	 4.4783795097644669e-01 
7.2676677500000009e-02,	 2.2686615000000000e-02,	 6.2918588853290669e-01,	 1.9773189227076119e+02,	 -1.4716984129813612e+01,	 5.5398879633309878e+02,	 1.0027897655717710e+05,	 4.7236692135438500e+02,	 4.1975593971617703e-01 
7.3701932500000011e-02,	 2.2704235000000000e-02,	 6.8961034861534287e-01,	 1.7656162035354427e+02,	 -1.5887213357525535e+01,	 5.0376369638891015e+02,	 9.9944885440064434e+04,	 4.5044567365417782e+02,	 3.9355457141500294e-01 
7.4729455000000000e-02,	 2.2721897500000001e-02,	 7.5240215712187231e-01,	 1.5870041641145068e+02,	 -1.6459743743377619e+01,	 4.6032646077399312e+02,	 9.9642796922957059e+04,	 4.3058803392072991e+02,	 3.7054374148890246e-01 
7.5759350000000003e-02,	 2.2739599999999999e-02,	 8.1043919974227840e-01,	 1.4463427908224554e+02,	 -1.5751648360546096e+01,	 4.2672041703148420e+02,	 9.9493291633201472e+04,	 4.1457269805458128e+02,	 3.5093840425587258e-01 
7.6791715000000010e-02,	 2.2757344999999998e-02,	 8.6001063067305505e-01,	 1.3397511814967706e+02,	 -1.4875516690533612e+01,	 4.0136370793198063e+02,	 9.9305169562503652e+04,	 4.0206663635294098e+02,	 3.3526387174083738e-01 
7.7826640000000002e-02,	 2.2775135000000002e-02,	 9.0343272141001518e-01,	 1.2547737535216255e+02,	 -1.4937968156448701e+01,	 3.8090010217290245e+02,	 9.9000375727012230e+04,	 3.9168282741354585e+02,	 3.2261670397784414e-01 
7.8864232499999992e-02,	 2.2792967499999997e-02,	 9.4326555667831202e-01,	 1.1823316449327925e+02,	 -1.5548166158115709e+01,	 3.6378228818540737e+02,	 9.8720072191375337e+04,	 3.8278046152821378e+02,	 3.1153917076951637e-01 
7.9904592499999996e-02,	 2.2810850000000001e-02,	 9.7956081954851038e-01,	 1.1205396380817223e+02,	 -1.6198113470039541e+01,	 3.4956829463225284e+02,	 9.8512962443213008e+04,	 3.7522779778712231e+02,	 3.0173319109360219e-01 
8.0947814999999992e-02,	 2.2828782499999999e-02,	 1.0108078772950069e+00,	 1.0711644574432525e+02,	 -1.5997124307911630e+01,	 3.3858531724204363e+02,	 9.8461551808309276e+04,	 3.6928617316106096e+02,	 2.9328038270606177e-01 
8.1994002499999996e-02,	 2.2846762499999999e-02,	 1.0359328973980961e+00,	 1.0352790908018358e+02,	 -1.5695495605078959e+01,	 3.3007122419959052e+02,	 9.8371484728883297e+04,	 3.6461356208636903e+02,	 2.8718328062059661e-01 
8.3043255000000010e-02,	 2.2864795000000000e-02,	 1.0559041899232657e+00,	 1.0086598408309010e+02,	 -1.5861539367361638e+01,	 3.2329508243321561e+02,	 9.8209511169690202e+04,	 3.6085151744906165e+02,	 2.8295713078990886e-01 
8.4095670000000011e-02,	 2.2882884999999999e-02,	 1.0720180764638632e+00,	 9.8736838760415523e+01,	 -1.6310659512745918e+01,	 3.1794448877441749e+02,	 9.8058071409017997e+04,	 3.5785297927931020e+02,	 2.7965388692527765e-01 
8.5151350000000015e-02,	 2.2901032500000001e-02,	 1.0851115801044100e+00,	 9.7079408036617977e+01,	 -1.6428064686352155e+01,	 3.1392370015320222e+02,	 9.8000533594810171e+04,	 3.5558304029604108e+02,	 2.7689621986211621e-01 
8.6210397500000008e-02,	 2.2919237499999998e-02,	 1.0951808942370787e+00,	 9.6021034952048311e+01,	 -1.6227191766357233e+01,	 3.1096305333611360e+02,	 9.7977101690820869e+04,	 3.5390229791770645e+02,	 2.7516789198957464e-01 
8.7272910000000009e-02,	 2.2937500000000000e-02,	 1.1022366265152297e+00,	 9.5469229737401037e+01,	 -1.6265206436785054e+01,	 3.0872105638815350e+02,	 9.7897370593818399e+04,	 3.5262419879584974e+02,	 2.7464048199922514e-01 
8.8338992499999991e-02,	 2.2955822500000000e-02,	 1.1073722949823921e+00,	 9.5152486954583622e+01,	 -1.6495227673998297e+01,	 3.0703478912372708e+02,	 9.7816288040758067e+04,	 3.5165984469130098e+02,	 2.7461672387793412e-01 
8.9408749999999981e-02,	 2.2974209999999998e-02,	 1.1115315481997998e+00,	 9.5003445558914933e+01,	 -1.6529342316102056e+01,	 3.0581532658199512e+02,	 9.7793722619211083e+04,	 3.5096079905007912e+02,	 2.7476193566692103e-01 
9.0482279999999998e-02,	 2.2992662500000000e-02,	 1.1146907744619761e+00,	 9.5106317297817185e+01,	 -1.6384163606823467e+01,	 3.0493744970791710e+02,	 9.7790149052145076e+04,	 3.5045670103828985e+02,	 2.7537571916384757e-01 
9.1559685000000002e-02,	 2.3011182500000001e-02,	 1.1166576647251589e+00,	 9.5420397619514034e+01,	 -1.6370444513770966e+01,	 3.0429010771785590e+02,	 9.7754739488068983e+04,	 3.5008451673005857e+02,	 2.7654602358795394e-01 
9.2641069999999992e-02,	 2.3029767499999999e-02,	 1.1180137357591649e+00,	 9.5798352139080876e+01,	 -1.6439645691080507e+01,	 3.0382223324600545e+02,	 9.7722963437026323e+04,	 3.4981526936475285e+02,	 2.7785720940814990e-01 
9.3726539999999997e-02,	 2.3048422499999999e-02,	 1.1193043922278871e+00,	 9.6220436474271381e+01,	 -1.6340580745384781e+01,	 3.0349754270200788e+02,	 9.7731220980207392e+04,	 3.4962829807085762e+02,	 2.7914813969001523e-01 
9.4816197499999991e-02,	 2.3067152500000000e-02,	 1.1202246766754607e+00,	 9.6747837367694956e+01,	 -1.6190984158310254e+01,	 3.0326545696883716e+02,	 9.7736778038516830e+04,	 3.4949459145524753e+02,	 2.8067181739063707e-01 
9.5910142499999990e-02,	 2.3085954999999998e-02,	 1.1207404931369829e+00,	 9.7330337393285859e+01,	 -1.6117635274121778e+01,	 3.0309845279687829e+02,	 9.7727934623655237e+04,	 3.4939834723882223e+02,	 2.8235917694218932e-01 
9.7008485000000005e-02,	 2.3104832499999998e-02,	 1.1211932285482458e+00,	 9.7902131409777098e+01,	 -1.6034412047482679e+01,	 3.0298578830249676e+02,	 9.7731071844073609e+04,	 3.4933340390686197e+02,	 2.8398801604186025e-01 
9.8111329999999997e-02,	 2.3123787499999996e-02,	 1.1217315947307978e+00,	 9.8480167115327049e+01,	 -1.5838443737263967e+01,	 3.0291308456051240e+02,	 9.7754537045599267e+04,	 3.4929148878999990e+02,	 2.8556571765910910e-01 
9.9218782500000005e-02,	 2.3142824999999999e-02,	 1.1220714198799313e+00,	 9.9092066853450859e+01,	 -1.5652058780295860e+01,	 3.0286361622521656e+02,	 9.7768182482555218e+04,	 3.4926296645988430e+02,	 2.8723517512283159e-01 
1.0033093749999999e-01,	 2.3161942499999998e-02,	 1.1223004051297389e+00,	 9.9690982861887690e+01,	 -1.5500357652425887e+01,	 3.0283428838226126e+02,	 9.7778665067438196e+04,	 3.4924605558504260e+02,	 2.8887603503516218e-01 
1.0144792500000001e-01,	 2.3181139999999999e-02,	 1.1226306939413253e+00,	 1.0025846586107606e+02,	 -1.5290641265257932e+01,	 3.0282369497846628e+02,	 9.7804019574471342e+04,	 3.4923994706796276e+02,	 2.9039566909532988e-01 
1.0256984999999999e-01,	 2.3200425000000000e-02,	 1.1229656766218672e+00,	 1.0082259023483950e+02,	 -1.5033249749339729e+01,	 3.0282433716467011e+02,	 9.7833410865953658e+04,	 3.4924031737742109e+02,	 2.9188268837891029e-01 
1.0369677500000000e-01,	 2.3219794999999998e-02,	 1.1232003758487370e+00,	 1.0137984311275989e+02,	 -1.4792251372696262e+01,	 3.0283282311175878e+02,	 9.7856600123163342e+04,	 3.4924521066658059e+02,	 2.9335641367662280e-01 
1.0482885000000000e-01,	 2.3239252500000002e-02,	 1.1234411145086529e+00,	 1.0190343632124801e+02,	 -1.4547024515739492e+01,	 3.0285066388619481e+02,	 9.7883340256836105e+04,	 3.4925549804757890e+02,	 2.9473126761358476e-01 
1.0596620000000000e-01,	 2.3258800000000000e-02,	 1.1237640159158864e+00,	 1.0239758917956429e+02,	 -1.4247870275003368e+01,	 3.0287668521152989e+02,	 9.7919886739419642e+04,	 3.4927050197000119e+02,	 2.9600003379157969e-01 
1.0710890000000001e-01,	 2.3278439999999997e-02,	 1.1240474595177241e+00,	 1.0287919360937991e+02,	 -1.3935081487888734e+01,	 3.0290725891320579e+02,	 9.7954471732731938e+04,	 3.4928812997371182e+02,	 2.9722929292471167e-01 
1.0825704999999999e-01,	 2.3298177500000000e-02,	 1.1242950029885213e+00,	 1.0333437194521994e+02,	 -1.3627257199950517e+01,	 3.0294295167702518e+02,	 9.7987588672507103e+04,	 3.4930870837043580e+02,	 2.9838663069146321e-01 
1.0941080000000000e-01,	 2.3318007500000001e-02,	 1.1245856368456790e+00,	 1.0375324292601461e+02,	 -1.3293563782751932e+01,	 3.0298493239129016e+02,	 9.8026501045769706e+04,	 3.4933291048671168e+02,	 2.9943186979108505e-01 
1.1057024999999999e-01,	 2.3337932499999998e-02,	 1.1249102732899596e+00,	 1.0414627269900596e+02,	 -1.2922549420233732e+01,	 3.0303156324638826e+02,	 9.8069889667578929e+04,	 3.4935979146967651e+02,	 3.0039212549923844e-01 
1.1173547500000000e-01,	 2.3357960000000001e-02,	 1.1252033516365683e+00,	 1.0451868497252256e+02,	 -1.2542047611511034e+01,	 3.0308153743214484e+02,	 9.8111617616995543e+04,	 3.4938859746463515e+02,	 3.0129348035990672e-01 
1.1290662500000000e-01,	 2.3378089999999997e-02,	 1.1254871686974182e+00,	 1.0485943401974386e+02,	 -1.2154956679855832e+01,	 3.0313579730672944e+02,	 9.8153934012512909e+04,	 3.4941987111664656e+02,	 3.0210521240511035e-01 
1.1408379999999999e-01,	 2.3398322499999999e-02,	 1.1258089023519020e+00,	 1.0516531083971839e+02,	 -1.1738445827732541e+01,	 3.0319481154680864e+02,	 9.8201106454679946e+04,	 3.4945388185512684e+02,	 3.0281077186893673e-01 
1.1526710000000000e-01,	 2.3418660000000001e-02,	 1.1261438505223031e+00,	 1.0544410303498597e+02,	 -1.1292828860947280e+01,	 3.0325729866229989e+02,	 9.8250567867311111e+04,	 3.4948989045300522e+02,	 3.0343394819131642e-01 
1.1645664999999999e-01,	 2.3439107500000000e-02,	 1.1264609232492961e+00,	 1.0569600472166493e+02,	 -1.0833635230856171e+01,	 3.0332283527389654e+02,	 9.8299469722680442e+04,	 3.4952765235681073e+02,	 3.0398100595128902e-01 
1.1765257500000001e-01,	 2.3459664999999998e-02,	 1.1267734703219159e+00,	 1.0591265482563931e+02,	 -1.0362699762744112e+01,	 3.0339211560936542e+02,	 9.8349202107993842e+04,	 3.4956756694223930e+02,	 3.0442870197822325e-01 
1.1885495000000001e-01,	 2.3480329999999997e-02,	 1.1271055930754110e+00,	 1.0608876799730496e+02,	 -9.8694485701102952e+00,	 3.0346566706969702e+02,	 9.8402040943307511e+04,	 3.4960993727028193e+02,	 3.0475923455843201e-01 
1.2006390000000000e-01,	 2.3501107499999997e-02,	 1.1274510320448792e+00,	 1.0622398154666790e+02,	 -9.3517739913843290e+00,	 3.0354319090437946e+02,	 9.8457345169612250e+04,	 3.4965459038131144e+02,	 3.0497195468891186e-01 
1.2127960000000000e-01,	 2.3522004999999999e-02,	 1.1277882228744913e+00,	 1.0631319930248883e+02,	 -8.8203925031975405e+00,	 3.0362486278069815e+02,	 9.8513290194441171e+04,	 3.4970162656376925e+02,	 3.0505568327219562e-01 
1.2250215000000000e-01,	 2.3543020000000001e-02,	 1.1281312345748216e+00,	 1.0634336223937304e+02,	 -8.2747309901698731e+00,	 3.0371188507804794e+02,	 9.8571496170708269e+04,	 3.4975173718125546e+02,	 3.0497292642656593e-01 
1.2373160000000000e-01,	 2.3564150000000002e-02,	 1.1285080763584188e+00,	 1.0630302959333974e+02,	 -7.7004783975193032e+00,	 3.0380540273488191e+02,	 9.8634784915134296e+04,	 3.4980558006180354e+02,	 3.0468802664407046e-01 
1.2496810000000001e-01,	 2.3585402500000002e-02,	 1.1289593190843015e+00,	 1.0618955151531799e+02,	 -7.0644850665608736e+00,	 3.0390577884399482e+02,	 9.8706826375977151e+04,	 3.4986336248273602e+02,	 3.0418813004534806e-01 
1.2621182500000000e-01,	 2.3606780000000001e-02,	 1.1295242608787313e+00,	 1.0601799262545536e+02,	 -6.3167274255577901e+00,	 3.0401142979667537e+02,	 9.8790552179750230e+04,	 3.4992417110856968e+02,	 3.0351148968033020e-01 
1.2746282500000000e-01,	 2.3628282500000000e-02,	 1.1301881040133832e+00,	 1.0582372940888582e+02,	 -5.4184440550561392e+00,	 3.0411822615902418e+02,	 9.8883337877735743e+04,	 3.4998562825047037e+02,	 3.0276202538647756e-01 
1.2872122499999999e-01,	 2.3649910000000000e-02,	 1.1310492677995130e+00,	 1.0566945033311832e+02,	 -4.2622625722151124e+00,	 3.0421986652898426e+02,	 9.8991756833674488e+04,	 3.5004410829861934e+02,	 3.0212014369289369e-01 
1.2998720000000000e-01,	 2.3671667500000000e-02,	 1.1321737115708153e+00,	 1.0569094909333174e+02,	 -2.7037529797852584e+00,	 3.0430122029465099e+02,	 9.9116668925662991e+04,	 3.5009090915863317e+02,	 3.0199449330189854e-01 
1.3126082500000003e-01,	 2.3693559999999999e-02,	 1.1333890743813175e+00,	 1.0609474339955894e+02,	 -6.9443748550252316e-01,	 3.0433757824430512e+02,	 9.9234923607771780e+04,	 3.5011182298779329e+02,	 3.0303751290536052e-01 
1.3254222500000001e-01,	 2.3715582499999999e-02,	 1.1343766706476288e+00,	 1.0709275749790341e+02,	 1.6750770417339191e+00,	 3.0430191929477240e+02,	 9.9309756113050898e+04,	 3.5009131124944179e+02,	 3.0593691846062954e-01 
1.3383149999999999e-01,	 2.3737740000000000e-02,	 1.1348645401376882e+00,	 1.0885390992834186e+02,	 4.2310900783962726e+00,	 3.0417250002312716e+02,	 9.9310212475375127e+04,	 3.5001685660738531e+02,	 3.1123103610230268e-01 
1.3512879999999999e-01,	 2.3760040000000000e-02,	 1.1347767338099466e+00,	 1.1147687844057401e+02,	 6.8230350613390138e+00,	 3.0395177498894361e+02,	 9.9230469064016055e+04,	 3.4988983739404796e+02,	 3.1920186322641247e-01 
1.3643430000000001e-01,	 2.3782480000000002e-02,	 1.1338360655313504e+00,	 1.1502067946348292e+02,	 9.3174422017395102e+00,	 3.0372303805978447e+02,	 9.9073599053061291e+04,	 3.4975815895649396e+02,	 3.2993497621603762e-01 
1.3774805000000001e-01,	 2.3805059999999999e-02,	 1.1313160791743497e+00,	 1.1950262701770951e+02,	 1.1633820261110303e+01,	 3.0372696945030879e+02,	 9.8854684417928802e+04,	 3.4976042258369711e+02,	 3.4328520813083824e-01 
1.3907020000000000e-01,	 2.3827782499999998e-02,	 1.1259508344418885e+00,	 1.2491739581391366e+02,	 1.3755790323584163e+01,	 3.0437515953580083e+02,	 9.8595835320646715e+04,	 3.5013343919500267e+02,	 3.5892744616222405e-01 
1.4040090000000000e-01,	 2.3850654999999998e-02,	 1.1161279559522415e+00,	 1.3123919915719600e+02,	 1.5622477047127346e+01,	 3.0614860178079135e+02,	 9.8305134998304769e+04,	 3.5115198417056610e+02,	 3.7637766550874741e-01 
1.4174024999999998e-01,	 2.3873674999999997e-02,	 1.1007734702892220e+00,	 1.3840710554484804e+02,	 1.7286132700186851e+01,	 3.0949027692681943e+02,	 9.8011018250295921e+04,	 3.5306323108609860e+02,	 3.9506348489775039e-01 
1.4308837500000002e-01,	 2.3896845000000000e-02,	 1.0793100430255249e+00,	 1.4636597071571924e+02,	 1.8673290433447352e+01,	 3.1466611952849473e+02,	 9.7707103764117957e+04,	 3.5600326317158289e+02,	 4.1446902912224104e-01 
1.4444540000000000e-01,	 2.3920170000000001e-02,	 1.0522747877253662e+00,	 1.5501682432322681e+02,	 1.9877049749366357e+01,	 3.2181796068516189e+02,	 9.7424768127751740e+04,	 3.6002621591109562e+02,	 4.3409615834204029e-01 
1.4581145000000001e-01,	 2.3943650000000000e-02,	 1.0205107065471841e+00,	 1.6429920529496201e+02,	 2.0819151054995242e+01,	 3.3088521882859106e+02,	 9.7145988073540808e+04,	 3.6506287529937748e+02,	 4.5365610045535354e-01 
1.4718670000000000e-01,	 2.3967287500000004e-02,	 9.8553327654837486e-01,	 1.7409018621386664e+02,	 2.1564537225830492e+01,	 3.4174033529886287e+02,	 9.6894130869662520e+04,	 3.7100273155544318e+02,	 4.7282859582293374e-01 
1.4857129999999999e-01,	 2.3991084999999999e-02,	 9.4867253230135473e-01,	 1.8431466090934299e+02,	 2.2118292510957772e+01,	 3.5417696348478114e+02,	 9.6664403197433814e+04,	 3.7769317898752826e+02,	 4.9150224833227230e-01 
1.4996530000000002e-01,	 2.4015044999999999e-02,	 9.1127281427853613e-01,	 1.9485889581697234e+02,	 2.2405838229067896e+01,	 3.6787188314628776e+02,	 9.6443940680661035e+04,	 3.8492603334256455e+02,	 5.0955980065696072e-01 
1.5136885000000000e-01,	 2.4039167499999996e-02,	 8.7456900575494501e-01,	 2.0557826883482423e+02,	 2.2558104842623415e+01,	 3.8259959794156276e+02,	 9.6265025211030428e+04,	 3.9255565790592385e+02,	 5.2683539746232166e-01 
1.5278215000000001e-01,	 2.4063457499999996e-02,	 8.3921049626038202e-01,	 2.1640951356827154e+02,	 2.2499442527816957e+01,	 3.9802562912252483e+02,	 9.6097454080336101e+04,	 4.0039118298169484e+02,	 5.4340849320856011e-01 
1.5420527499999998e-01,	 2.4087917500000000e-02,	 8.0595929724981696e-01,	 2.2717995283274382e+02,	 2.2179903138122391e+01,	 4.1376943369338250e+02,	 9.5940383902498303e+04,	 4.0823307571307453e+02,	 5.5914164316683268e-01 
1.5563835000000001e-01,	 2.4112547499999998e-02,	 7.7532551275248363e-01,	 2.3772082126512902e+02,	 2.1716116715945134e+01,	 4.2958228043880752e+02,	 9.5820927794481482e+04,	 4.1596057141804943e+02,	 5.7387809116059252e-01 
1.5708155000000001e-01,	 2.4137352499999997e-02,	 7.4737858196190132e-01,	 2.4795442197855087e+02,	 2.1089428380048673e+01,	 4.4517205389415216e+02,	 9.5719071812296752e+04,	 4.2344102592465634e+02,	 5.8768436923384548e-01 
1.5853505000000001e-01,	 2.4162335000000000e-02,	 7.2223684495949581e-01,	 2.5773585657509386e+02,	 2.0257138923026798e+01,	 4.6022392305112237e+02,	 9.5626611688229663e+04,	 4.3054007450581713e+02,	 6.0047999354276516e-01 
1.5999892500000001e-01,	 2.4187495000000000e-02,	 7.0003032959817768e-01,	 2.6688068842230194e+02,	 1.9201165340163133e+01,	 4.7441598882163208e+02,	 9.5544592266778651e+04,	 4.3712801944120037e+02,	 6.1211021602271309e-01 
1.6147330000000001e-01,	 2.4212834999999995e-02,	 6.8078825373397278e-01,	 2.7522339544591119e+02,	 1.8005149506769730e+01,	 4.8754503894123474e+02,	 9.5489744854691133e+04,	 4.4313531042558975e+02,	 6.2240970137257923e-01 
1.6295837499999999e-01,	 2.4238357500000002e-02,	 6.6434338639730217e-01,	 2.8267727479198680e+02,	 1.6676733253363562e+01,	 4.9940355259633810e+02,	 9.5449614968622816e+04,	 4.4849210286070945e+02,	 6.3137962331990494e-01 
1.6445425000000000e-01,	 2.4264069999999999e-02,	 6.5059297041402453e-01,	 2.8912826520058610e+02,	 1.5215118826865524e+01,	 5.0979929998394005e+02,	 9.5419808082982097e+04,	 4.5313603892998600e+02,	 6.3894350618491635e-01 
1.6596107499999999e-01,	 2.4289970000000001e-02,	 6.3945644769905186e-01,	 2.9446258847477719e+02,	 1.3634109675781733e+01,	 5.1857225405313545e+02,	 9.5400397568827742e+04,	 4.5701833603209337e+02,	 6.4500269960524337e-01 
1.6747902500000000e-01,	 2.4316060000000000e-02,	 6.3086035701413679e-01,	 2.9858635076155457e+02,	 1.1954057377237895e+01,	 5.2558411758421175e+02,	 9.5390562080918695e+04,	 4.6009774322890433e+02,	 6.4948275176610759e-01 
1.6900822500000001e-01,	 2.4342342499999999e-02,	 6.2472433980387621e-01,	 3.0143419428786029e+02,	 1.0200067144482230e+01,	 5.3073715980051475e+02,	 9.5388904306710610e+04,	 4.6234773519379138e+02,	 6.5233740582635380e-01 
1.7054880000000000e-01,	 2.4368819999999999e-02,	 6.2099030801762989e-01,	 3.0297084587900525e+02,	 8.3964857298891200e+00,	 5.3395065799404699e+02,	 9.5392863488447998e+04,	 4.6374533039556587e+02,	 6.5356382720204331e-01 
1.7210095000000000e-01,	 2.4395497499999998e-02,	 6.1960004739752816e-01,	 3.0320474038747557e+02,	 6.5685529352787917e+00,	 5.3518158008733906e+02,	 9.5398717708586992e+04,	 4.6427956118575190e+02,	 6.5321824855842114e-01 
1.7366480000000001e-01,	 2.4422375000000000e-02,	 6.2043886859428043e-01,	 3.0220673293770966e+02,	 4.7758861268189721e+00,	 5.3452214123602300e+02,	 9.5410162198706181e+04,	 4.6399343553963871e+02,	 6.5139815564070647e-01 
1.7524044999999999e-01,	 2.4449454999999998e-02,	 6.2322046857086488e-01,	 3.0011404369039587e+02,	 3.0633082243570162e+00,	 5.3226707844697944e+02,	 9.5433587776137094e+04,	 4.6301364428021679e+02,	 6.4820914201952395e-01 
1.7682810000000002e-01,	 2.4476742499999999e-02,	 6.2791025772871734e-01,	 2.9699716544384859e+02,	 1.4315155595524902e+00,	 5.2849119649404975e+02,	 9.5469637305370357e+04,	 4.6136842090723820e+02,	 6.4373850027774215e-01 
1.7842790000000000e-01,	 2.4504237499999998e-02,	 6.3445483352799559e-01,	 2.9295379435090359e+02,	 -1.1371146593493350e-01,	 5.2327851427928033e+02,	 9.5513234156466468e+04,	 4.5908746840476317e+02,	 6.3812200633071681e-01 
1.8003997499999999e-01,	 2.4531942500000001e-02,	 6.4282590119049998e-01,	 2.8808212722997501e+02,	 -1.5678509492018786e+00,	 5.1672723168087225e+02,	 9.5561873249467375e+04,	 4.5620460140194780e+02,	 6.3148506772932600e-01 
1.8166452499999999e-01,	 2.4559865000000000e-02,	 6.5300924747446421e-01,	 2.8248764541962356e+02,	 -2.9250333641562909e+00,	 5.0894788469968842e+02,	 9.5614241167868371e+04,	 4.5275748979505886e+02,	 6.2396049781187435e-01 
1.8330167500000000e-01,	 2.4588005000000000e-02,	 6.6496478541589310e-01,	 2.7628936958798596e+02,	 -4.1826190900360460e+00,	 5.0008554133373195e+02,	 9.5669363081810632e+04,	 4.4879823024934103e+02,	 6.1569099103780456e-01 
1.8495160000000002e-01,	 2.4616362500000002e-02,	 6.7860855127291975e-01,	 2.6961220822288027e+02,	 -5.3428756023958677e+00,	 4.9032560031480938e+02,	 9.5726864539138274e+04,	 4.4439715600273814e+02,	 6.0681113498193473e-01 
1.8661445000000002e-01,	 2.4644940000000001e-02,	 6.9389988436573280e-01,	 2.6256624969509994e+02,	 -6.3948778528163581e+00,	 4.7983465970718356e+02,	 9.5789601730483962e+04,	 4.3961731968337762e+02,	 5.9743804657212740e-01 
1.8829037500000001e-01,	 2.4673744999999997e-02,	 7.1074349646977797e-01,	 2.5527748590845582e+02,	 -7.3170940205368620e+00,	 4.6880906252185281e+02,	 9.5860310269178386e+04,	 4.3453722419669026e+02,	 5.8771105482275499e-01 
1.8997955000000000e-01,	 2.4702777499999998e-02,	 7.2898722271293770e-01,	 2.4787050884772083e+02,	 -8.1595330218089739e+00,	 4.5739425963159891e+02,	 9.5926933950237959e+04,	 4.2921445684880172e+02,	 5.7781085526710219e-01 
1.9168209999999999e-01,	 2.4732040000000000e-02,	 7.4855977221854053e-01,	 2.4041667923202829e+02,	 -8.9306391899278648e+00,	 4.4575036931081735e+02,	 9.5994894014377001e+04,	 4.2371597916145049e+02,	 5.6779188158295935e-01 
1.9339824999999999e-01,	 2.4761534999999998e-02,	 7.6933398130697639e-01,	 2.3299600034674032e+02,	 -9.6266627325616536e+00,	 4.3404323457013180e+02,	 9.6067799784435876e+04,	 4.1811474384449059e+02,	 5.5772916576043818e-01 
1.9512815000000000e-01,	 2.4791265000000000e-02,	 7.9112817991593520e-01,	 2.2569489496156075e+02,	 -1.0221176599532786e+01,	 4.2245333514535321e+02,	 9.6151382901328485e+04,	 4.1249468603247550e+02,	 5.4770698935049211e-01 
1.9687190000000002e-01,	 2.4821235000000001e-02,	 8.1365682529198913e-01,	 2.1861360146907907e+02,	 -1.0702682972161947e+01,	 4.1115551920586017e+02,	 9.6244813161058322e+04,	 4.0694156298876567e+02,	 5.3785469615372805e-01 
1.9862969999999999e-01,	 2.4851447499999998e-02,	 8.3660804420170931e-01,	 2.1182469010097253e+02,	 -1.1141682036416066e+01,	 4.0024327330389019e+02,	 9.6333206282901025e+04,	 4.0150504569845282e+02,	 5.2830595386477652e-01 
2.0040174999999999e-01,	 2.4881902500000001e-02,	 8.5980144415171189e-01,	 2.0533842846216734e+02,	 -1.1537602318430737e+01,	 3.8982438981547568e+02,	 9.6426658096590152e+04,	 3.9624472201764786e+02,	 5.1902852028813240e-01 
2.0218822500000000e-01,	 2.4912605000000001e-02,	 8.8300502026211369e-01,	 1.9918820072714735e+02,	 -1.1837659921085747e+01,	 3.8001505063827551e+02,	 9.6537024245283232e+04,	 3.9122750974299026e+02,	 5.1003479807728580e-01 
2.0398927499999997e-01,	 2.4943560000000000e-02,	 9.0584521688267061e-01,	 1.9343347007961768e+02,	 -1.2059090680420914e+01,	 3.7088335687718825e+02,	 9.6654321849211818e+04,	 3.8649836327740184e+02,	 5.0144844012897194e-01 
2.0580504999999999e-01,	 2.4974767500000002e-02,	 9.2802916438857863e-01,	 1.8808363233263393e+02,	 -1.2259581217223952e+01,	 3.6244890968957600e+02,	 9.6769469400590591e+04,	 3.8207831109580155e+02,	 4.9330923158627582e-01 
2.0763572499999999e-01,	 2.5006230000000001e-02,	 9.4943653432095720e-01,	 1.8311414189177475e+02,	 -1.2390245082935987e+01,	 3.5475319953367250e+02,	 9.6899647658277201e+04,	 3.7800030225611357e+02,	 4.8553625272315643e-01 
2.0948149999999999e-01,	 2.5037952499999998e-02,	 9.6981954142166948e-01,	 1.7854483453007168e+02,	 -1.2436893566569902e+01,	 3.4780782516882266e+02,	 9.7042106884255409e+04,	 3.7428175823211325e+02,	 4.7818913062825175e-01 
2.1134259999999999e-01,	 2.5069937500000000e-02,	 9.8892949556071474e-01,	 1.7437519926242408e+02,	 -1.2456536875984296e+01,	 3.4158289759209987e+02,	 9.7183242690628205e+04,	 3.7091726235260450e+02,	 4.7131683745195796e-01 
2.1321912500000001e-01,	 2.5102190000000000e-02,	 1.0067702882083338e+00,	 1.7056304978439141e+02,	 -1.2403563150958112e+01,	 3.3606641233934090e+02,	 9.7338676601407089e+04,	 3.6790995685848833e+02,	 4.6482421415765535e-01 
2.1511125000000000e-01,	 2.5134712500000000e-02,	 1.0232246937919667e+00,	 1.6710747146614574e+02,	 -1.2271199156865036e+01,	 3.3122384997406169e+02,	 9.7504026573304611e+04,	 3.6524963197491229e+02,	 4.5874767934167932e-01 
2.1701920000000000e-01,	 2.5167502500000001e-02,	 1.0382025101333188e+00,	 1.6398934013000891e+02,	 -1.2095703958927984e+01,	 3.2700190846679374e+02,	 9.7670250000860076e+04,	 3.6291434101851621e+02,	 4.5309540161102835e-01 
2.1894315000000000e-01,	 2.5200567500000000e-02,	 1.0518268133328761e+00,	 1.6116663523504545e+02,	 -1.1828347587824126e+01,	 3.2336189386806950e+02,	 9.7850492288764683e+04,	 3.6088880190451778e+02,	 4.4778365168262585e-01 
2.2088325000000000e-01,	 2.5233912500000000e-02,	 1.0640632857162626e+00,	 1.5863257364656695e+02,	 -1.1480163933897471e+01,	 3.2024849206822211e+02,	 9.8035753142021058e+04,	 3.5914724002748500e+02,	 4.4284744649342178e-01 