TITLE = "Final State"
VARIABLES = "X", "Y", "rho", "u", "v", "T", "p", "c", "M"
ZONE I=299, J=10, DATAPACKING=POINT
5.0499769999999999e-02,	 2.7273537499999997e-02,	 1.1331979883037395e+00,	 -4.3867128656904896e+01,	 -2.0451001803329991e+01,	 3.0185966563221882e+02,	 9.8410359651602397e+04,	 3.4868360695768985e+02,	 1.3880803783598925e-01 
5.1499334999999993e-02,	 2.7297574999999998e-02,	 1.1444776376932098e+00,	 -2.7030259891488761e+01,	 -2.0732254845448587e+01,	 3.0246425389157082e+02,	 9.9588984648449987e+04,	 3.4903261775284579e+02,	 9.7599889069802603e-02 
5.2499039999999997e-02,	 2.7322244999999998e-02,	 1.1498480136114273e+00,	 -1.2314188439449328e+01,	 -2.1004520378143788e+01,	 3.0275111394760262e+02,	 1.0015119289987636e+05,	 3.4919809150175638e+02,	 6.9725702758369423e-02 
5.3499012500000005e-02,	 2.7347004999999997e-02,	 1.1524937557441390e+00,	 4.9084407887009218e-01,	 -2.1870085041884362e+01,	 3.0281961841384975e+02,	 1.0040434940509453e+05,	 3.4923759635362637e+02,	 6.2638137296984753e-02 
5.4499337499999995e-02,	 2.7371720000000002e-02,	 1.1532741150900916e+00,	 1.1229762146577437e+01,	 -2.3855511661324396e+01,	 3.0271112312113985e+02,	 1.0043633611146217e+05,	 3.4917502770311052e+02,	 7.5510877514566421e-02 
5.5500109999999998e-02,	 2.7396392499999998e-02,	 1.1549071543937752e+00,	 2.0123795921905128e+01,	 -2.4297791594403506e+01,	 3.0259638527882510e+02,	 1.0054043153512673e+05,	 3.4910884680770408e+02,	 9.0370569832480985e-02 
5.6501422499999995e-02,	 2.7421040000000001e-02,	 1.1559632107223730e+00,	 2.7892426438428519e+01,	 -2.4160365504291644e+01,	 3.0246713272659900e+02,	 1.0058938189035608e+05,	 3.4903427878373145e+02,	 1.0572418500175150e-01 
5.7503367499999999e-02,	 2.7445672500000001e-02,	 1.1563877576835668e+00,	 3.4782437543895220e+01,	 -2.3864114981522871e+01,	 3.0232385786497451e+02,	 1.0057865961567557e+05,	 3.4895160242652287e+02,	 1.2088184898753364e-01 
5.8506042500000001e-02,	 2.7470307499999999e-02,	 1.1564154041443493e+00,	 4.0938591700627853e+01,	 -2.3460328205528821e+01,	 3.0217502796796026e+02,	 1.0053154952930206e+05,	 3.4886569980433978e+02,	 1.3525052633264245e-01 
5.9509542499999998e-02,	 2.7494945000000000e-02,	 1.1563201558765241e+00,	 4.6523919883052258e+01,	 -2.2831473135444909e+01,	 3.0202830050531423e+02,	 1.0047445804333666e+05,	 3.4878098996801572e+02,	 1.4858675226527140e-01 
6.0513962500000004e-02,	 2.7519594999999997e-02,	 1.1558801818836488e+00,	 5.1686823939278916e+01,	 -2.2147934710710349e+01,	 3.0187876845472169e+02,	 1.0038650276044031e+05,	 3.4869463979253703e+02,	 1.6126484300462554e-01 
6.1519395000000004e-02,	 2.7544267500000000e-02,	 1.1551293286227080e+00,	 5.6495426719012336e+01,	 -2.1493629062106706e+01,	 3.0172553790832262e+02,	 1.0027037020094198e+05,	 3.4860613165996637e+02,	 1.7339316558117526e-01 
6.2525935000000005e-02,	 2.7568962499999999e-02,	 1.1539168247884071e+00,	 6.0964941450335530e+01,	 -2.1068350000145401e+01,	 3.0156551825513964e+02,	 1.0011199705830413e+05,	 3.4851367804988951e+02,	 1.8507941863003011e-01 
6.3533680000000009e-02,	 2.7593685000000000e-02,	 1.1523999689381321e+00,	 6.5043489248953406e+01,	 -2.0919208443871980e+01,	 3.0140463613628128e+02,	 9.9927058526943991e+04,	 3.4842070140680761e+02,	 1.9609836631672736e-01 
6.4542727500000008e-02,	 2.7618434999999997e-02,	 1.1509722149617916e+00,	 6.8712597956337959e+01,	 -2.0865185464912624e+01,	 3.0125355108340113e+02,	 9.9753226573956839e+04,	 3.4833336406641058e+02,	 2.0615511038143530e-01 
6.5553172500000007e-02,	 2.7643217499999997e-02,	 1.1497210311849195e+00,	 7.2029871507629835e+01,	 -2.0791999281542260e+01,	 3.0111553492542146e+02,	 9.9599136929346801e+04,	 3.4825356228477148e+02,	 2.1527626198052510e-01 
6.6565109999999997e-02,	 2.7668039999999998e-02,	 1.1486001612681169e+00,	 7.5064326255348377e+01,	 -2.0667648971461578e+01,	 3.0098979072387016e+02,	 9.9460485627593560e+04,	 3.4818084029983783e+02,	 2.2361251396979467e-01 
6.7578637500000011e-02,	 2.7692894999999999e-02,	 1.1475441634718138e+00,	 7.7867988939484931e+01,	 -2.0502837113525839e+01,	 3.0087459750626226e+02,	 9.9331013844699279e+04,	 3.4811420696083201e+02,	 2.3130910247031644e-01 
6.8593852499999997e-02,	 2.7717789999999999e-02,	 1.1465080398078529e+00,	 8.0471993433816863e+01,	 -2.0321070217971378e+01,	 3.0076880492549390e+02,	 9.9206432425832812e+04,	 3.4805300016810384e+02,	 2.3846402169639722e-01 
6.9610847499999989e-02,	 2.7742732499999999e-02,	 1.1456208471319504e+00,	 8.2910744773016674e+01,	 -2.0047031347201976e+01,	 3.0067308169903197e+02,	 9.9098115159287641e+04,	 3.4799760977040478e+02,	 2.4511637453553300e-01 
7.0629722499999992e-02,	 2.7767722499999998e-02,	 1.1447606943050233e+00,	 8.5245518772557958e+01,	 -1.9706761253797080e+01,	 3.0058232435935196e+02,	 9.8993820470629347e+04,	 3.4794508474755463e+02,	 2.5145847995548787e-01 
7.1650577500000007e-02,	 2.7792760000000000e-02,	 1.1437520044733411e+00,	 8.7496427637488551e+01,	 -1.9410482455534638e+01,	 3.0049276334287481e+02,	 9.8877123407608859e+04,	 3.4789324431224520e+02,	 2.5761814186253179e-01 
7.2673507499999998e-02,	 2.7817845000000001e-02,	 1.1426003612494051e+00,	 8.9632206293670748e+01,	 -1.9222451540853150e+01,	 3.0040613454839871e+02,	 9.8749087592834810e+04,	 3.4784309377879714e+02,	 2.6353908802012965e-01 
7.3698612500000010e-02,	 2.7842985000000001e-02,	 1.1414264214363845e+00,	 9.1615125455524165e+01,	 -1.9129307529267006e+01,	 3.0032683065893337e+02,	 9.8621588116406521e+04,	 3.4779717738781505e+02,	 2.6909628109676426e-01 
7.4725984999999995e-02,	 2.7868182500000001e-02,	 1.1403447535276434e+00,	 9.3432158743512858e+01,	 -1.9076739889138949e+01,	 3.0025809752434907e+02,	 9.8505580528519960e+04,	 3.4775737648483266e+02,	 2.7421357632127352e-01 
7.5755724999999996e-02,	 2.7893435000000001e-02,	 1.1394611287263003e+00,	 9.5104647074246927e+01,	 -1.8978013110503685e+01,	 3.0020083303486081e+02,	 9.8410478817098599e+04,	 3.4772421318569212e+02,	 2.7889827376525606e-01 
7.6787935000000002e-02,	 2.7918747499999997e-02,	 1.1387028322713868e+00,	 9.6682448604135274e+01,	 -1.8817079597249798e+01,	 3.0015113216110745e+02,	 9.8328706059591947e+04,	 3.4769542760170532e+02,	 2.8328411231356854e-01 
7.7822712500000002e-02,	 2.7944127499999999e-02,	 1.1379186198579554e+00,	 9.8193758080142089e+01,	 -1.8656136102582401e+01,	 3.0010532897524632e+02,	 9.8245993468475106e+04,	 3.4766889735711339e+02,	 2.8748707784295713e-01 
7.8860155000000001e-02,	 2.7969572499999998e-02,	 1.1370921696213048e+00,	 9.9627062541621939e+01,	 -1.8534585506936068e+01,	 3.0006405458449831e+02,	 9.8161136880973980e+04,	 3.4764498855916412e+02,	 2.9149415258666939e-01 
7.9900360000000004e-02,	 2.7995079999999999e-02,	 1.1362826821081082e+00,	 1.0096321516516707e+02,	 -1.8448823330661433e+01,	 3.0002971957249531e+02,	 9.8080032541248889e+04,	 3.4762509824549699e+02,	 2.9524604407884530e-01 
8.0943427499999998e-02,	 2.8020657500000001e-02,	 1.1355938572117927e+00,	 1.0220093658720859e+02,	 -1.8345633854622008e+01,	 3.0000402836746878e+02,	 9.8012182142640944e+04,	 3.4761021455517761e+02,	 2.9870944261857385e-01 
8.1989462499999999e-02,	 2.8046310000000001e-02,	 1.1349953505164694e+00,	 1.0336500918958761e+02,	 -1.8210875735157106e+01,	 2.9998497381662105e+02,	 9.7954303620748251e+04,	 3.4759917526727122e+02,	 3.0194821034010899e-01 
8.3038562499999996e-02,	 2.8072039999999999e-02,	 1.1344105023741631e+00,	 1.0447130013870377e+02,	 -1.8071763772593698e+01,	 2.9997060535535456e+02,	 9.7899139733224671e+04,	 3.4759085064182540e+02,	 3.0502193365291469e-01 
8.4090825000000008e-02,	 2.8097847500000002e-02,	 1.1338279863218992e+00,	 1.0551529596826514e+02,	 -1.7946930645863194e+01,	 2.9996125448410146e+02,	 9.7845818641677644e+04,	 3.4758543293994825e+02,	 3.0792630070706101e-01 
8.5146352500000008e-02,	 2.8123732499999998e-02,	 1.1333010925991891e+00,	 1.0649048945386053e+02,	 -1.7819923203228409e+01,	 2.9995824089393415e+02,	 9.7799366796064191e+04,	 3.4758368690998896e+02,	 3.1063360041772597e-01 
8.6205245000000000e-02,	 2.8149700000000000e-02,	 1.1328514421485052e+00,	 1.0740493342022346e+02,	 -1.7670754798621452e+01,	 2.9996125810571652e+02,	 9.7761547105834805e+04,	 3.4758543503825365e+02,	 3.1315715074783396e-01 
8.7267604999999998e-02,	 2.8175752499999998e-02,	 1.1324335280404501e+00,	 1.0827129846780635e+02,	 -1.7509884722468772e+01,	 2.9996886882542373e+02,	 9.7727961945798510e+04,	 3.4758984453859625e+02,	 3.1553864743643761e-01 
8.8333537499999989e-02,	 2.8201892499999999e-02,	 1.1320300275983530e+00,	 1.0909037240041621e+02,	 -1.7349701642175351e+01,	 2.9998088609156207e+02,	 9.7697053986669678e+04,	 3.4759680699081792e+02,	 3.1778601105815735e-01 
8.9403142500000005e-02,	 2.8228125000000000e-02,	 1.1316680252983016e+00,	 1.0985939912316759e+02,	 -1.7182613390725564e+01,	 2.9999793596943226e+02,	 9.7671363260341750e+04,	 3.4760668495167181e+02,	 3.1988742650584928e-01 
9.0476517500000006e-02,	 2.8254450000000000e-02,	 1.1313583216043868e+00,	 1.1058320762241863e+02,	 -1.6998594848249621e+01,	 3.0001976695674915e+02,	 9.7651739174000133e+04,	 3.4761933247048643e+02,	 3.2185227215144702e-01 
9.1553770000000007e-02,	 2.8280870000000000e-02,	 1.1310755810972242e+00,	 1.1126908489970373e+02,	 -1.6803753532864679e+01,	 3.0004553639400115e+02,	 9.7635720242996162e+04,	 3.4763426109055638e+02,	 3.2370450178380328e-01 
9.2635002500000008e-02,	 2.8307387500000000e-02,	 1.1308114324354770e+00,	 1.1191772049083930e+02,	 -1.6604223850389531e+01,	 3.0007515654707186e+02,	 9.7622554868474646e+04,	 3.4765141969593992e+02,	 3.2544876685585622e-01 
9.3720320000000010e-02,	 2.8334002499999997e-02,	 1.1305836356961434e+00,	 1.1252858514460682e+02,	 -1.6393704105638648e+01,	 3.0010890879088686e+02,	 9.7613867560504994e+04,	 3.4767097094049365e+02,	 3.2708072150398698e-01 
9.4809824999999986e-02,	 2.8360722499999998e-02,	 1.1303902366855794e+00,	 1.1310597194647791e+02,	 -1.6169243665928978e+01,	 3.0014641418644220e+02,	 9.7609366587349446e+04,	 3.4769269493724192e+02,	 3.2861166838783917e-01 
9.5903617499999996e-02,	 2.8387547499999999e-02,	 1.1302169764405559e+00,	 1.1365349362868983e+02,	 -1.5935261191095524e+01,	 3.0018724766448031e+02,	 9.7607682789313520e+04,	 3.4771634509348081e+02,	 3.3005406000102805e-01 
9.7001807499999995e-02,	 2.8414477500000000e-02,	 1.1300642400076790e+00,	 1.1417140582257915e+02,	 -1.5693142905391875e+01,	 3.0023144326925984e+02,	 9.7608860704912324e+04,	 3.4774194073203000e+02,	 3.3140923303649245e-01 
9.8104499999999997e-02,	 2.8441522500000000e-02,	 1.1299410985058977e+00,	 1.1466064941983663e+02,	 -1.5438496346933448e+01,	 3.0027902266032851e+02,	 9.7613691353312373e+04,	 3.4776949396588157e+02,	 3.3267823082519299e-01 
9.9211800000000003e-02,	 2.8468680000000000e-02,	 1.1298403251934366e+00,	 1.1512449579982821e+02,	 -1.5171953877114904e+01,	 3.0032963451964537e+02,	 9.7621436983196414e+04,	 3.4779880090670480e+02,	 3.3387098478985122e-01 
1.0032380750000000e-01,	 2.8495949999999999e-02,	 1.1297553421031228e+00,	 1.1556439750201687e+02,	 -1.4896277195308041e+01,	 3.0038310477906685e+02,	 9.7631473275016979e+04,	 3.4782976032979565e+02,	 3.3499292586103246e-01 
1.0144064999999999e-01,	 2.8523339999999998e-02,	 1.1296908221202033e+00,	 1.1598045726793175e+02,	 -1.4610024356799835e+01,	 3.0043949794572234e+02,	 9.7644225611203772e+04,	 3.4786240913858063e+02,	 3.3604391440653447e-01 
1.0256240000000000e-01,	 2.8550850000000003e-02,	 1.1296480306806811e+00,	 1.1637428924878731e+02,	 -1.4311312895794874e+01,	 3.0049866370827203e+02,	 9.7659755373821739e+04,	 3.4789665984738394e+02,	 3.3702814335472847e-01 
1.0368920000000000e-01,	 2.8578482500000002e-02,	 1.1296207867861610e+00,	 1.1674786932383334e+02,	 -1.4001451361095278e+01,	 3.0056037856118513e+02,	 9.7677456467547105e+04,	 3.4793238261678061e+02,	 3.3795204921620581e-01 
1.0482115000000000e-01,	 2.8606242499999997e-02,	 1.1296076236524411e+00,	 1.1710165978570129e+02,	 -1.3681250012277538e+01,	 3.0062458255420495e+02,	 9.7697183319063071e+04,	 3.4796954229753356e+02,	 3.3881746030967830e-01 
1.0595830000000001e-01,	 2.8634129999999997e-02,	 1.1296121080690227e+00,	 1.1743611637276518e+02,	 -1.3348816306959858e+01,	 3.0069126608173178e+02,	 9.7719242110618099e+04,	 3.4800813287078063e+02,	 3.3962526134223386e-01 
1.0710085000000001e-01,	 2.8662150000000001e-02,	 1.1296318446738893e+00,	 1.1775270635792498e+02,	 -1.3003738051582316e+01,	 3.0076025363759788e+02,	 9.7743369567139060e+04,	 3.4804805231029047e+02,	 3.4037986429438782e-01 
1.0824887499999999e-01,	 2.8690304999999999e-02,	 1.1296633356016412e+00,	 1.1805233792313219e+02,	 -1.2646801505554562e+01,	 3.0083139855346235e+02,	 9.7769216238628738e+04,	 3.4808921530459679e+02,	 3.4108446426471223e-01 
1.0940245000000000e-01,	 2.8718595000000000e-02,	 1.1297074600168240e+00,	 1.1833516939514259e+02,	 -1.2277367678893601e+01,	 3.0090468574827895e+02,	 9.7796854111784167e+04,	 3.4813161268858028e+02,	 3.4173959968827905e-01 
1.1056175000000000e-01,	 2.8747027499999998e-02,	 1.1297654151850334e+00,	 1.1860193519289585e+02,	 -1.1893848712048490e+01,	 3.0098001380248712e+02,	 9.7826354774518040e+04,	 3.4817518534998266e+02,	 3.4234726726012382e-01 
1.1172685000000000e-01,	 2.8775599999999998e-02,	 1.1298344020288063e+00,	 1.1885373375313742e+02,	 -1.1495997242941199e+01,	 3.0105719429747512e+02,	 9.7857415549065787e+04,	 3.4821982387980870e+02,	 3.4291100086892484e-01 
1.1289782499999999e-01,	 2.8804317499999996e-02,	 1.1299124538419132e+00,	 1.1909111376515075e+02,	 -1.1083789242072028e+01,	 3.0113611004603410e+02,	 9.7889828801297204e+04,	 3.4826546010441092e+02,	 3.4343280778273044e-01 
1.1407482500000000e-01,	 2.8833184999999997e-02,	 1.1300002735783572e+00,	 1.1931424936461141e+02,	 -1.0656053893612516e+01,	 3.0121670015131770e+02,	 9.7923636384995800e+04,	 3.4831205842258686e+02,	 3.4391331512329953e-01 
1.1525797500000000e-01,	 2.8862199999999998e-02,	 1.1300979788445986e+00,	 1.1952396050426812e+02,	 -1.0211228629632922e+01,	 3.0129879794184586e+02,	 9.7958795112292195e+04,	 3.4835952209607814e+02,	 3.4435502747428615e-01 
1.1644737500000001e-01,	 2.8891367500000001e-02,	 1.1302031255074863e+00,	 1.1972097299657678e+02,	 -9.7485851023164383e+00,	 3.0138223673875638e+02,	 9.7995039694453735e+04,	 3.4840775442811855e+02,	 3.4476046361470847e-01 
1.1764312500000002e-01,	 2.8920692500000001e-02,	 1.1303143083999474e+00,	 1.1990592703151422e+02,	 -9.2673342914154215e+00,	 3.0146684084442876e+02,	 9.8032191784759285e+04,	 3.4845665355768114e+02,	 3.4513194447820955e-01 
1.1884535000000002e-01,	 2.8950175000000002e-02,	 1.1304313709665117e+00,	 1.2007896424320695e+02,	 -8.7659001816472681e+00,	 3.0155251317148117e+02,	 9.8070206779342087e+04,	 3.4850616310184074e+02,	 3.4547021589655785e-01 
1.2005420000000000e-01,	 2.8979820000000000e-02,	 1.1305544326279144e+00,	 1.2024072217982531e+02,	 -8.2420679404570389e+00,	 3.0163907292976035e+02,	 9.8109036781618153e+04,	 3.4855617834532404e+02,	 3.4577746901563089e-01 
1.2126975000000000e-01,	 2.9009632500000000e-02,	 1.1306819878097645e+00,	 1.2039207005224004e+02,	 -7.6937953901913456e+00,	 3.0172628993376600e+02,	 9.8148476766046675e+04,	 3.4860656609537943e+02,	 3.4605676360962989e-01 
1.2249212500000001e-01,	 2.9039610000000000e-02,	 1.1308130676492465e+00,	 1.2053391832790790e+02,	 -7.1184687918535614e+00,	 3.0181393911136900e+02,	 9.8188369794774699e+04,	 3.4865719618821970e+02,	 3.4631132601445519e-01 
1.2372145000000000e-01,	 2.9069757499999998e-02,	 1.1309482502031407e+00,	 1.2066743214590549e+02,	 -6.5120995024882635e+00,	 3.0190174841574276e+02,	 9.8228677875691792e+04,	 3.4870791140614540e+02,	 3.4654511915392844e-01 
1.2495780000000001e-01,	 2.9100080000000000e-02,	 1.1310894115824293e+00,	 1.2079529116286498e+02,	 -5.8685486406681182e+00,	 3.0198927033777750e+02,	 9.8269418713197883e+04,	 3.4875845330461630e+02,	 3.4676653901437193e-01 
1.2620134999999999e-01,	 2.9130577499999998e-02,	 1.1312383114165390e+00,	 1.2092261765179872e+02,	 -5.1793401758223609e+00,	 3.0207575435812072e+02,	 9.8310501388861710e+04,	 3.4880838864501231e+02,	 3.4699133146642752e-01 
1.2745219999999999e-01,	 2.9161252499999998e-02,	 1.1313924482592836e+00,	 1.2105807631957494e+02,	 -4.4354532101789204e+00,	 3.0215996119644194e+02,	 9.8351305518203386e+04,	 3.4885700228663381e+02,	 3.4724630342966767e-01 
1.2871045000000000e-01,	 2.9192110000000000e-02,	 1.1315493774384788e+00,	 1.2121451545757562e+02,	 -3.6256740723540268e+00,	 3.0224013887608402e+02,	 9.8391048270018946e+04,	 3.4890328355040612e+02,	 3.4757118439401341e-01 
1.2997627500000000e-01,	 2.9223154999999997e-02,	 1.1317044958445979e+00,	 1.2141121645951567e+02,	 -2.7367154842726302e+00,	 3.0231368176992203e+02,	 9.8428480588736827e+04,	 3.4894572959435277e+02,	 3.4802562756526378e-01 
1.3124975000000000e-01,	 2.9254384999999997e-02,	 1.1318351712462595e+00,	 1.2167469058823639e+02,	 -1.7614414821983648e+00,	 3.0237694026473690e+02,	 9.8460444234873707e+04,	 3.4898223576055545e+02,	 3.4869236119690000e-01 
1.3253100000000001e-01,	 2.9285804999999998e-02,	 1.1318943570555327e+00,	 1.2203481233417935e+02,	 -7.0819102903573550e-01,	 3.0242570634259727e+02,	 9.8481473033991293e+04,	 3.4901037581771993e+02,	 3.4966544164767588e-01 
1.3382015000000000e-01,	 2.9317420000000000e-02,	 1.1318216255082660e+00,	 1.2251595594277283e+02,	 3.9633775204572186e-01,	 3.0245636840506620e+02,	 9.8485129069613424e+04,	 3.4902806794257828e+02,	 3.5102219067194695e-01 
1.3511730000000000e-01,	 2.9349232499999999e-02,	 1.1315667023343037e+00,	 1.2313025391697994e+02,	 1.5137028441273734e+00,	 3.0246682016063096e+02,	 9.8466349513342881e+04,	 3.4903409843973105e+02,	 3.5280093972321752e-01 
1.3642262499999999e-01,	 2.9381245000000000e-02,	 1.1310978787204471e+00,	 1.2387603848538782e+02,	 2.6010271793236330e+00,	 3.0245680608212933e+02,	 9.8422294877923152e+04,	 3.4902832047739059e+02,	 3.5499509670642265e-01 
1.3773622499999999e-01,	 2.9413457499999997e-02,	 1.1304073259528997e+00,	 1.2473837498311551e+02,	 3.6198354303731497e+00,	 3.0242791945298916e+02,	 9.8352812300546153e+04,	 3.4901165282073310e+02,	 3.5755507211813564e-01 
1.3905822499999998e-01,	 2.9445880000000001e-02,	 1.1295167813859808e+00,	 1.2569942973750389e+02,	 4.5424804163108554e+00,	 3.0238217247005639e+02,	 9.8260463422831686e+04,	 3.4898525506951790e+02,	 3.6042061487186255e-01 
1.4038877499999997e-01,	 2.9478512500000002e-02,	 1.1284572044899031e+00,	 1.2673422154217850e+02,	 5.3486488778763066e+00,	 3.0232264807849401e+02,	 9.8148962688259446e+04,	 3.4895090423922750e+02,	 3.6350969745572254e-01 
1.4172797500000001e-01,	 2.9511354999999996e-02,	 1.1272737896608409e+00,	 1.2781830165632125e+02,	 6.0306006517674051e+00,	 3.0225246221201189e+02,	 9.8023271791831037e+04,	 3.4891039645168826e+02,	 3.6674312053899166e-01 
1.4307595000000001e-01,	 2.9544412499999999e-02,	 1.1259983355457173e+00,	 1.2892984172998604e+02,	 6.5830446764850166e+00,	 3.0217447307938244e+02,	 9.7887099364372334e+04,	 3.4886537949051007e+02,	 3.7005046121155744e-01 
1.4443285000000000e-01,	 2.9577687499999998e-02,	 1.1246766690404391e+00,	 1.3004910181981577e+02,	 7.0120422819971422e+00,	 3.0209129661599843e+02,	 9.7745289374989559e+04,	 3.4881736189115452e+02,	 3.7337018732418881e-01 
1.4579880000000001e-01,	 2.9611184999999998e-02,	 1.1233326852092147e+00,	 1.3116181008976335e+02,	 7.3219736021613011e+00,	 3.0200488605352319e+02,	 9.7600558399796457e+04,	 3.4876747025158016e+02,	 3.7665789718602533e-01 
1.4717390000000002e-01,	 2.9644910000000000e-02,	 1.1219974825192143e+00,	 1.3225539957182090e+02,	 7.5229118208199690e+00,	 3.0191699163188810e+02,	 9.7456177999562817e+04,	 3.4871671453994617e+02,	 3.7987621259247606e-01 
1.4855830000000000e-01,	 2.9678864999999999e-02,	 1.1206933759999920e+00,	 1.3332193726214294e+02,	 7.6261837970978981e+00,	 3.0182875254311244e+02,	 9.7314454211258868e+04,	 3.4866575236395568e+02,	 3.8300255164594921e-01 
1.4995214999999998e-01,	 2.9713047499999999e-02,	 1.1194257267933168e+00,	 1.3435607731902687e+02,	 7.6380153219281359e+00,	 3.0174103263222281e+02,	 9.7176128650687475e+04,	 3.4861508265306384e+02,	 3.8602176395202970e-01 
1.5135557500000002e-01,	 2.9747462499999999e-02,	 1.1182197559806450e+00,	 1.3535268081626165e+02,	 7.5725362958704858e+00,	 3.0165463148718209e+02,	 9.7043644002590387e+04,	 3.4856516750136166e+02,	 3.8892108901781880e-01 
1.5276869999999998e-01,	 2.9782117500000004e-02,	 1.1170764841351060e+00,	 1.3631187439296065e+02,	 7.4384337604186861e+00,	 3.0156968425153440e+02,	 9.6917126271228306e+04,	 3.4851608532397103e+02,	 3.9170266185847491e-01 
1.5419167500000000e-01,	 2.9817015000000002e-02,	 1.1159918279713819e+00,	 1.3723298157075425e+02,	 7.2395879899379016e+00,	 3.0148649716581912e+02,	 9.6796313581603463e+04,	 3.4846801345435944e+02,	 3.9436562951007159e-01 
1.5562462499999999e-01,	 2.9852159999999999e-02,	 1.1149810722104352e+00,	 1.3811418198947291e+02,	 6.9867244760991287e+00,	 3.0140549067150550e+02,	 9.6682660316331807e+04,	 3.4842119532348215e+02,	 3.9690692814470796e-01 
1.5706767499999999e-01,	 2.9887552499999998e-02,	 1.1140454647829812e+00,	 1.3895762299539314e+02,	 6.6884906659683008e+00,	 3.0132656459740076e+02,	 9.6576235483906974e+04,	 3.4837557353087169e+02,	 3.9933482725001707e-01 
1.5852100000000000e-01,	 2.9923192500000001e-02,	 1.1131777071055271e+00,	 1.3976633860037578e+02,	 6.3487007340929384e+00,	 3.0124953352623925e+02,	 9.6476340354257991e+04,	 3.4833104134878226e+02,	 4.0165945135697467e-01 
1.5998472499999999e-01,	 2.9959087500000002e-02,	 1.1123717838364442e+00,	 1.4054135850678557e+02,	 5.9689666486417021e+00,	 3.0117451506024213e+02,	 9.6382485427860011e+04,	 3.4828766719462539e+02,	 4.0388468893353124e-01 
1.6145897500000000e-01,	 2.9995242499999998e-02,	 1.1116349860666068e+00,	 1.4128253135041686e+02,	 5.5553019898625378e+00,	 3.0110176845227988e+02,	 9.6295379803080432e+04,	 3.4824560142332012e+02,	 4.0601146793762938e-01 
1.6294390000000000e-01,	 3.0031659999999998e-02,	 1.1109671027636978e+00,	 1.4199186008811000e+02,	 5.1128013045325567e+00,	 3.0103125752769751e+02,	 9.6214987856620370e+04,	 3.4820482358732477e+02,	 4.0804684706108207e-01 
1.6443962500000001e-01,	 3.0068342500000001e-02,	 1.1103636713303611e+00,	 1.4267202454218886e+02,	 4.6443259109081367e+00,	 3.0096285723024369e+02,	 9.6140877763029392e+04,	 3.4816526180427343e+02,	 4.0999953847488935e-01 
1.6594629999999999e-01,	 3.0105292499999999e-02,	 1.1098209609562786e+00,	 1.4332516151655415e+02,	 4.1514287608859881e+00,	 3.0089653225342016e+02,	 9.6072710384018748e+04,	 3.4812689606455064e+02,	 4.1187645603695971e-01 
1.6746410000000000e-01,	 3.0142514999999998e-02,	 1.1093360819206277e+00,	 1.4395257213687336e+02,	 3.6351383999507840e+00,	 3.0083248092724710e+02,	 9.6010294470341541e+04,	 3.4808984150635683e+02,	 4.1368188759291419e-01 
1.6899317500000000e-01,	 3.0180012499999999e-02,	 1.1089067696740329e+00,	 1.4455434064082016e+02,	 3.0961030599549124e+00,	 3.0077093918602475e+02,	 9.5953505191583419e+04,	 3.4805423506090347e+02,	 4.1541656113015346e-01 
1.7053362499999999e-01,	 3.0217792500000000e-02,	 1.1085315043376238e+00,	 1.4512836616668449e+02,	 2.5345979577696629e+00,	 3.0071228907541780e+02,	 9.5902329018317832e+04,	 3.4802029824725014e+02,	 4.1707480277674891e-01 
1.7208560000000001e-01,	 3.0255854999999998e-02,	 1.1082078214864095e+00,	 1.4567199648989896e+02,	 1.9495865451296852e+00,	 3.0065712028791449e+02,	 9.5856737121189974e+04,	 3.4798837281675992e+02,	 4.1864916570189270e-01 
1.7364927499999999e-01,	 3.0294200000000000e-02,	 1.1079428879665263e+00,	 1.4618083120859390e+02,	 1.3431995674142141e+00,	 3.0060614166746069e+02,	 9.5817571818715223e+04,	 3.4795886957530610e+02,	 4.2012724759533532e-01 
1.7522479999999999e-01,	 3.0332837499999998e-02,	 1.1077488883427262e+00,	 1.4665120977493331e+02,	 7.2203010645903587e-01,	 3.0056009802123083e+02,	 9.5786120518545213e+04,	 3.4793222023849580e+02,	 4.2149872496347540e-01 
1.7681234999999998e-01,	 3.0371769999999999e-02,	 1.1076368928865750e+00,	 1.4708201019614984e+02,	 9.5329696137779973e-02,	 3.0051944478945114e+02,	 9.5763481812233658e+04,	 3.4790868909179522e+02,	 4.2276047049466342e-01 
1.7841202499999997e-01,	 3.0411002499999999e-02,	 1.1076064325812873e+00,	 1.4747530052601616e+02,	 -5.3029792625957506e-01,	 3.0048415677808242e+02,	 9.5749603728103117e+04,	 3.4788826218363357e+02,	 4.2391845310075543e-01 
1.8002394999999999e-01,	 3.0450534999999997e-02,	 1.1076538708340040e+00,	 1.4783372457527204e+02,	 -1.1505686736834995e+00,	 3.0045409567657367e+02,	 9.5744125224754607e+04,	 3.4787085999170705e+02,	 4.2498012586186151e-01 
1.8164835000000001e-01,	 3.0490370000000003e-02,	 1.1077755125338142e+00,	 1.4815927624571839e+02,	 -1.7625233840205836e+00,	 3.0042919248888546e+02,	 9.5746703132019946e+04,	 3.4785644302592056e+02,	 4.2595088421466409e-01 
1.8328539999999999e-01,	 3.0530517500000000e-02,	 1.1079688372024599e+00,	 1.4845338519895830e+02,	 -2.3637488111960230e+00,	 3.0040943534860298e+02,	 9.5757114779631709e+04,	 3.4784500478737692e+02,	 4.2683436690614790e-01 
1.8493520000000002e-01,	 3.0570980000000001e-02,	 1.1082321415724525e+00,	 1.4871695723986326e+02,	 -2.9521176956796205e+00,	 3.0039486880650799e+02,	 9.5775226808940235e+04,	 3.4783657136330260e+02,	 4.2763259306989149e-01 
1.8659789999999998e-01,	 3.0611757500000000e-02,	 1.1085659681983777e+00,	 1.4895055029071145e+02,	 -3.5249130046392749e+00,	 3.0038558410752103e+02,	 9.5801115507201233e+04,	 3.4783119580074720e+02,	 4.2834643575322401e-01 
1.8827367500000003e-01,	 3.0652852499999998e-02,	 1.1089726574805574e+00,	 1.4915520630288543e+02,	 -4.0782095258712703e+00,	 3.0038158063017795e+02,	 9.5834983885075824e+04,	 3.4782887788167056e+02,	 4.2897803685956293e-01 
1.8996269999999998e-01,	 3.0694275000000000e-02,	 1.1094453418716987e+00,	 1.4933283609392745e+02,	 -4.6116777909601767e+00,	 3.0038269666213409e+02,	 9.5876188448276909e+04,	 3.4782952403943699e+02,	 4.2953233530859175e-01 
1.9166512500000002e-01,	 3.0736027500000002e-02,	 1.1099819707239031e+00,	 1.4948317782505197e+02,	 -5.1249551219045184e+00,	 3.0038907715022225e+02,	 9.5924600418648479e+04,	 3.4783321817757206e+02,	 4.3000782402073162e-01 
1.9338112500000001e-01,	 3.0778110000000001e-02,	 1.1105850632496814e+00,	 1.4960495855422255e+02,	 -5.6162332407161584e+00,	 3.0040100411250131e+02,	 9.5980530412300126e+04,	 3.4784012347608149e+02,	 4.3039985676642417e-01 
1.9511085000000000e-01,	 3.0820529999999999e-02,	 1.1112606791496114e+00,	 1.4969758538393702e+02,	 -6.0811344127449534e+00,	 3.0041866802698888e+02,	 9.6044566627069464e+04,	 3.4785035001959045e+02,	 4.3070547665284542e-01 
1.9685444999999999e-01,	 3.0863292499999997e-02,	 1.1120117822963695e+00,	 1.4976221502108092e+02,	 -6.5146245470882569e+00,	 3.0044195967808878e+02,	 9.6116934756745090e+04,	 3.4786383428807557e+02,	 4.3092677557189119e-01 
1.9861214999999999e-01,	 3.0906397499999998e-02,	 1.1128280252053770e+00,	 1.4980104820577984e+02,	 -6.9169785131661152e+00,	 3.0047056159413495e+02,	 9.6196643854713184e+04,	 3.4788039212075518e+02,	 4.3106958700344400e-01 
2.0038407499999999e-01,	 3.0949850000000001e-02,	 1.1137082946650778e+00,	 1.4981344519353863e+02,	 -7.2874710624795496e+00,	 3.0050457189329609e+02,	 9.6283634467035794e+04,	 3.4790007987545869e+02,	 4.3113121754872996e-01 
2.0217040000000000e-01,	 3.0993659999999999e-02,	 1.1146614989181420e+00,	 1.4979867365824884e+02,	 -7.6205248748709602e+00,	 3.0054412822140216e+02,	 9.6378726969496347e+04,	 3.4792297669326558e+02,	 4.3110801322361536e-01 
2.0397129999999999e-01,	 3.1037827500000000e-02,	 1.1156860581945660e+00,	 1.4975876794243021e+02,	 -7.9119919665494107e+00,	 3.0058887246707468e+02,	 9.6481676855155252e+04,	 3.4794887467348093e+02,	 4.3100476745341199e-01 
2.0578695000000000e-01,	 3.1082352500000000e-02,	 1.1167709048985051e+00,	 1.4969580814396153e+02,	 -8.1622865722963116e+00,	 3.0063839865555133e+02,	 9.6591403776101302e+04,	 3.4797753819591543e+02,	 4.3082714893129659e-01 
2.0761752500000000e-01,	 3.1127245000000001e-02,	 1.1179205451841647e+00,	 1.4960947240984103e+02,	 -8.3674641285935074e+00,	 3.0069268991939379e+02,	 9.6708299177127410e+04,	 3.4800895681639457e+02,	 4.3057305709316396e-01 
2.0946314999999999e-01,	 3.1172510000000000e-02,	 1.1191366694422147e+00,	 1.4950153236318349e+02,	 -8.5221913248144716e+00,	 3.0075135569216229e+02,	 9.6832391332244399e+04,	 3.4804290379839983e+02,	 4.3024648223845430e-01 
2.1132407500000000e-01,	 3.1218147500000001e-02,	 1.1204069015058891e+00,	 1.4937495779317686e+02,	 -8.6260854898531782e+00,	 3.0081376310376277e+02,	 9.6962413141700599e+04,	 3.4807901224759200e+02,	 4.2985590699645043e-01 
2.1320047500000000e-01,	 3.1264164999999997e-02,	 1.1217330577127536e+00,	 1.4923062631244647e+02,	 -8.6748603283800634e+00,	 3.0087962270988339e+02,	 9.7098435438110959e+04,	 3.4811711404817595e+02,	 4.2940305113881505e-01 
2.1509247500000001e-01,	 3.1310567499999997e-02,	 1.1231131065863305e+00,	 1.4907125317417609e+02,	 -8.6635841708200694e+00,	 3.0094830391933635e+02,	 9.7240085712565415e+04,	 3.4815684379115959e+02,	 4.2889517949380884e-01 
2.1700030000000001e-01,	 3.1357355000000003e-02,	 1.1245350025038721e+00,	 1.4890046129657483e+02,	 -8.5907550413238400e+00,	 3.0101900331890914e+02,	 9.7386067431136951e+04,	 3.4819773625348830e+02,	 4.2834303627509307e-01 
2.1892410000000001e-01,	 3.1404532500000006e-02,	 1.1259994507667392e+00,	 1.4872064747543908e+02,	 -8.4506373970173794e+00,	 3.0109111966550915e+02,	 9.7536251950461708e+04,	 3.4823944332939584e+02,	 4.2775322793245324e-01 
2.2086410000000001e-01,	 3.1452110000000005e-02,	 1.1274983783158552e+00,	 1.4853660300786134e+02,	 -8.2385808358133961e+00,	 3.0116362886300874e+02,	 9.7689612045207396e+04,	 3.4828137256757026e+02,	 4.2713999561176014e-01 