TITLE = "Final State"
VARIABLES = "X", "Y", "rho", "u", "v", "T", "p", "c", "M"
ZONE I=59, J=49, DATAPACKING=POINT
4.9992967499999999e-04,	 1.8277772499999999e-04,	 3.0251075515566632e+00,	 8.4501586801650558e+02,	 -1.6428905084297813e+00,	 2.7454291182018392e+03,	 2.3893567197390376e+06,	 1.0515601128236767e+03,	 8.0358455477182111e-01 
1.4909241750000000e-03,	 1.8521314999999999e-04,	 2.5156155728267611e+00,	 1.0258247614563807e+03,	 -3.5854620257694737e-02,	 2.5774616665338308e+03,	 1.8653761809825313e+06,	 1.0188848250400539e+03,	 1.0068113067074576e+00 
2.4646325000000002e-03,	 1.8783557500000000e-04,	 2.2171703961338953e+00,	 1.1423911909112217e+03,	 1.2494390198733436e+00,	 2.4519596441859685e+03,	 1.5640200878341466e+06,	 9.9376945881595213e+02,	 1.1495542190751467e+00 
3.4219949999999997e-03,	 1.9051619999999999e-04,	 2.0182320556537494e+00,	 1.2179229014110579e+03,	 2.3072878726758268e+00,	 2.3634317166949027e+03,	 1.3722843061184618e+06,	 9.7566452916205890e+02,	 1.2483031313744841e+00 
4.3639747500000001e-03,	 1.9320557500000001e-04,	 1.8358807495771559e+00,	 1.2865535658630579e+03,	 3.4131312937203235e+00,	 2.2780778589120237e+03,	 1.2032142549778286e+06,	 9.5788476981165957e+02,	 1.3431240727423652e+00 
5.2914792499999998e-03,	 1.9587812500000001e-04,	 1.6687932408516717e+00,	 1.3495153562123830e+03,	 4.4869134785891909e+00,	 2.1956587262847042e+03,	 1.0541376078184305e+06,	 9.4039736951766793e+02,	 1.4350559232246922e+00 
6.2053642500000004e-03,	 1.9852610000000001e-04,	 1.5170480451191191e+00,	 1.4072304128646213e+03,	 5.4878018684622072e+00,	 2.1166481723276365e+03,	 9.2379998009917419e+05,	 9.2332229957804520e+02,	 1.5241060612389585e+00 
7.1064484999999993e-03,	 2.0114105000000002e-04,	 1.3801505907584712e+00,	 1.4601226488379789e+03,	 6.4031689453822604e+00,	 2.0413340741988352e+03,	 8.1053262050254236e+05,	 9.0674679467654937e+02,	 1.6103025645696851e+00 
7.9955104999999988e-03,	 2.0371885000000000e-04,	 1.2572530290707971e+00,	 1.5085987782154998e+03,	 7.2257606585595999e+00,	 1.9698674567054775e+03,	 7.1250781728468323e+05,	 8.9073289108006452e+02,	 1.6936795507348685e+00 
8.8732967499999989e-03,	 2.0626012499999998e-04,	 1.1472383985213996e+00,	 1.5530684328631805e+03,	 7.9582882225249785e+00,	 1.9022546085161985e+03,	 6.2784473540824943e+05,	 8.7531285982620011e+02,	 1.7743242377460056e+00 
9.7405245000000001e-03,	 2.0876777500000000e-04,	 1.0489409765678488e+00,	 1.5939024661028056e+03,	 8.6015850907622848e+00,	 1.8384395723947082e+03,	 5.5479220238505956e+05,	 8.6050553147055098e+02,	 1.8523131079481718e+00 
1.0597880000000000e-02,	 2.1124290000000000e-04,	 9.6118106102418210e-01,	 1.6314469511768518e+03,	 9.1606298968818773e+00,	 1.7783041248947773e+03,	 4.9174638762626669e+05,	 8.4631493407785706e+02,	 1.9277370679691264e+00 
1.1446019999999999e-02,	 2.1368752500000002e-04,	 8.8283940121264881e-01,	 1.6660131065075238e+03,	 9.6401785522088481e+00,	 1.7217014461418767e+03,	 4.3728994289946056e+05,	 8.3273709036813489e+02,	 2.0006806666763342e+00 
1.2285577500000000e-02,	 2.1610357500000002e-04,	 8.1286152538598322e-01,	 1.6978881820872996e+03,	 1.0047519016038466e+01,	 1.6684539783638215e+03,	 3.9017616626359220e+05,	 8.1975882837633560e+02,	 2.0712407746472001e+00 
1.3117162499999998e-02,	 2.1849287500000001e-04,	 7.5029558178034850e-01,	 1.7273267912851541e+03,	 1.0387752094345734e+01,	 1.6183805786388341e+03,	 3.4933571157552308e+05,	 8.0736387932759703e+02,	 2.1395037231979348e+00 
1.3941365000000001e-02,	 2.2085740000000000e-04,	 6.9428266091398505e-01,	 1.7545586894698238e+03,	 1.0667024016777138e+01,	 1.5712946282896921e+03,	 3.1385126435505273e+05,	 7.9553226706874375e+02,	 2.2055561885405894e+00 
1.4758759999999999e-02,	 2.2319964999999999e-04,	 6.4406399826296623e-01,	 1.7797865073791024e+03,	 1.0888937590896775e+01,	 1.5270170395739385e+03,	 2.8294553467278054e+05,	 7.8424350064394650e+02,	 2.2694734677294992e+00 
1.5569895000000000e-02,	 2.2552152500000000e-04,	 5.9896534231206178e-01,	 1.8031929066657044e+03,	 1.1060224361513818e+01,	 1.4853713170355550e+03,	 2.5595679561006633e+05,	 7.7347539553099705e+02,	 2.3313305591273310e+00 
1.6375310000000001e-02,	 2.2782447500000001e-04,	 5.5839626854411484e-01,	 1.8249392212427310e+03,	 1.1183610695650227e+01,	 1.4461920887183130e+03,	 2.3232632696960750e+05,	 7.6320635382692933e+02,	 2.3911927351328472e+00 
1.7175534999999999e-02,	 2.3011059999999999e-04,	 5.2183961752138286e-01,	 1.8451687756502220e+03,	 1.1262999239535574e+01,	 1.4093242572431373e+03,	 2.1158160718248048e+05,	 7.5341532549939461e+02,	 2.4491181527962200e+00 
1.7971077500000002e-02,	 2.3238182499999999e-04,	 4.8884479445593992e-01,	 1.8640079749656800e+03,	 1.1300605815919228e+01,	 1.3746252338278291e+03,	 1.9332376491876837e+05,	 7.4408258911308712e+02,	 2.5051550151285809e+00 
1.8762435000000001e-02,	 2.3463987500000000e-04,	 4.5901749226039590e-01,	 1.8815694136606310e+03,	 1.1299530497955606e+01,	 1.3419626367255721e+03,	 1.7721464035327727e+05,	 7.3518933560811718e+02,	 2.5593452613932048e+00 
1.9550097499999999e-02,	 2.3688627499999999e-04,	 4.3201473957755904e-01,	 1.8979522390754717e+03,	 1.1261181067358272e+01,	 1.3112164274094146e+03,	 1.6296820553389945e+05,	 7.2671843515651540e+02,	 2.6117207918863290e+00 
2.0334547500000001e-02,	 2.3912259999999999e-04,	 4.0753726157119796e-01,	 1.9132442043642852e+03,	 1.1186718771649478e+01,	 1.2822773828730310e+03,	 1.5034162583544786e+05,	 7.1865421587669118e+02,	 2.6623052730085841e+00 
2.1116257499999999e-02,	 2.4135052500000000e-04,	 3.8532432772035097e-01,	 1.9275226056413226e+03,	 1.1077352243205125e+01,	 1.2550472196370254e+03,	 1.3912860568871384e+05,	 7.1098267734151693e+02,	 2.7111130794526797e+00 
2.1895689999999999e-02,	 2.4357145000000001e-04,	 3.6514699624588720e-01,	 1.9408565546448262e+03,	 1.0934265366437559e+01,	 1.2294358201886939e+03,	 1.2915271263612757e+05,	 7.0369087228777698e+02,	 2.7581533755722338e+00 
2.2673314999999999e-02,	 2.4578672499999998e-04,	 3.4680576511820083e-01,	 1.9533066840949587e+03,	 1.0757467679893651e+01,	 1.2053630722647438e+03,	 1.2026358007408866e+05,	 6.9676756806094295e+02,	 2.8034259856083676e+00 
2.3449587500000001e-02,	 2.4799779999999997e-04,	 3.3012768861240149e-01,	 1.9649253901812324e+03,	 1.0546997542688409e+01,	 1.1827594966369002e+03,	 1.1233325219041223e+05,	 6.9020358138518054e+02,	 2.8469190093706427e+00 
2.4224954999999999e-02,	 2.5020619999999996e-04,	 3.1496195431779000e-01,	 1.9757582520438784e+03,	 1.0302138274793640e+01,	 1.1615644275275133e+03,	 1.0525223760843347e+05,	 6.8399139534331391e+02,	 2.8886110620415915e+00 
2.4999875000000001e-02,	 2.5241329999999999e-04,	 3.0117715312383553e-01,	 1.9858446806858542e+03,	 1.0022230490248791e+01,	 1.1417254845949619e+03,	 9.8926730585248195e+04,	 6.7812512272439210e+02,	 2.9284713163530207e+00 
2.5774797499999998e-02,	 2.5462050000000001e-04,	 2.8865815862369604e-01,	 1.9952189278170474e+03,	 9.7075266558092270e+00,	 1.1231971983880132e+03,	 9.3275972535776804e+04,	 6.7260020033352964e+02,	 2.9664614166929644e+00 
2.6550172500000000e-02,	 2.5682930000000002e-04,	 2.7730448482326397e-01,	 2.0039103932427458e+03,	 9.3569909911221085e+00,	 1.1059409277689081e+03,	 8.8230504250634840e+04,	 6.6741344580258726e+02,	 3.0025350123438401e+00 
2.7326452499999997e-02,	 2.5904132500000000e-04,	 2.6702746578755621e-01,	 2.0119448151633010e+03,	 8.9710444661292286e+00,	 1.0899228849424001e+03,	 8.3730106399343800e+04,	 6.6256253122322505e+02,	 3.0366414047112000e+00 
2.8104089999999998e-02,	 2.6125802500000001e-04,	 2.5774872299967611e-01,	 2.0193448786101319e+03,	 8.5507788253945147e+00,	 1.0751132543565177e+03,	 7.9722457151598312e+04,	 6.5804575911074755e+02,	 3.0687272950503162e+00 
2.8883542500000001e-02,	 2.6348072499999999e-04,	 2.4939833778920587e-01,	 2.0261309721149946e+03,	 8.0970967515309820e+00,	 1.0614849463353767e+03,	 7.6161823156063008e+04,	 6.5386171062076016e+02,	 3.0987395629569199e+00 
2.9665274999999998e-02,	 2.6571092499999999e-04,	 2.4191291505837645e-01,	 2.0323223592859110e+03,	 7.6128662155268829e+00,	 1.0490114270656350e+03,	 7.3007791524392363e+04,	 6.5000859019909160e+02,	 3.1266303990109581e+00 
3.0449749999999998e-02,	 2.6795042500000002e-04,	 2.3523368100876832e-01,	 2.0379383273380297e+03,	 7.1021876019205381e+00,	 1.0376645581746045e+03,	 7.0224139393396996e+04,	 6.4648354961204564e+02,	 3.1523628157862009e+00 
3.1237440000000002e-02,	 2.7020095000000001e-04,	 2.2930472206162913e-01,	 2.0429995177700068e+03,	 6.5708187625491128e+00,	 1.0274120095250289e+03,	 6.7777816490658210e+04,	 6.4328186103754922e+02,	 3.1759174449285879e+00 
3.2028830000000001e-02,	 2.7246427499999997e-04,	 2.2407153705041613e-01,	 2.0475281869478592e+03,	 6.0281849879137166e+00,	 1.0182168007430903e+03,	 6.5638234243250365e+04,	 6.4039674513604859e+02,	 3.1972946089343934e+00 
3.2824407500000000e-02,	 2.7474267500000003e-04,	 2.1948126820962344e-01,	 2.0515493479415541e+03,	 5.4805072393294294e+00,	 1.0100351026251349e+03,	 6.3776967582767080e+04,	 6.3781865927431932e+02,	 3.2165203046488551e+00 
3.3624669999999995e-02,	 2.7703824999999999e-04,	 2.1548162462624620e-01,	 2.0550909107193943e+03,	 4.9355258725315423e+00,	 1.0028159866772884e+03,	 6.2167217211091374e+04,	 6.3553520204852452e+02,	 3.2336475315443982e+00 
3.4430130000000003e-02,	 2.7935327499999997e-04,	 2.1201961303570652e-01,	 2.0581846853182674e+03,	 4.4024631890754335e+00,	 9.9649945749539677e+02,	 6.0783127408145585e+04,	 6.3353048826183010e+02,	 3.2487613964731774e+00 
3.5241317499999994e-02,	 2.8169012499999996e-04,	 2.0904036369547938e-01,	 2.0608673721396917e+03,	 3.8914697057143597e+00,	 9.9101450863340483e+02,	 5.9599155019001875e+04,	 6.3178453790746119e+02,	 3.2619839875013565e+00 
3.6058762499999994e-02,	 2.8405124999999999e-04,	 2.0648624190249706e-01,	 2.0631812367415891e+03,	 3.4138509703078914e+00,	 9.8627782039341992e+02,	 5.8589571840162847e+04,	 6.3027287951080586e+02,	 3.2734774542607763e+00 
3.6883020000000002e-02,	 2.8643910000000002e-04,	 2.0429641803021767e-01,	 2.0651742947010648e+03,	 2.9810269239655809e+00,	 9.8219347189354687e+02,	 5.7728162347429818e+04,	 6.2896649064241046e+02,	 3.2834443121272705e+00 
3.7714667500000000e-02,	 2.8885702500000001e-04,	 2.0240736790953373e-01,	 2.0668994902744430e+03,	 2.6038692824979548e+00,	 9.7865472155110547e+02,	 5.6988306389566416e+04,	 6.2783241478861044e+02,	 3.2921223590219317e+00 
3.8554292500000004e-02,	 2.9130867500000001e-04,	 2.0075358835443111e-01,	 2.0684137444587332e+03,	 2.2918894120008795e+00,	 9.7554606250485108e+02,	 5.6343138454075706e+04,	 6.2683447893460561e+02,	 3.2997786237426405e+00 
3.9402507500000003e-02,	 2.9379837499999997e-04,	 1.9926893668805210e-01,	 2.0697762179451233e+03,	 2.0522689449054381e+00,	 9.7274688710740998e+02,	 5.5765986663429809e+04,	 6.2593453162345486e+02,	 3.3066992326361593e+00 
4.0259947500000004e-02,	 2.9632954999999999e-04,	 1.9788825320192802e-01,	 2.0710465634558755e+03,	 1.8894386708665831e+00,	 9.7013516293585019e+02,	 5.5230909948536748e+04,	 6.2509368230334871e+02,	 3.3131792625101899e+00 
4.1127272500000006e-02,	 2.9890657500000002e-04,	 1.9654909203259971e-01,	 2.0722827561457384e+03,	 1.8047297007452172e+00,	 9.6759196079161541e+02,	 5.4713340438987936e+04,	 6.2427380539625767e+02,	 3.3195106443565390e+00 
4.2005167499999996e-02,	 3.0153430000000000e-04,	 1.9519344012798584e-01,	 2.0735391465982725e+03,	 1.7967127123914639e+00,	 9.6500550742191103e+02,	 5.4190723289599991e+04,	 6.2343887929915445e+02,	 3.3259714686883504e+00 
4.2894349999999998e-02,	 3.0421627499999999e-04,	 1.9376935609733870e-01,	 2.0748649173738459e+03,	 1.8610752132913122e+00,	 9.6227439308299688e+02,	 5.3643111742773282e+04,	 6.2255604014895721e+02,	 3.3328176392509268e+00 
4.3795584999999998e-02,	 3.0695620000000001e-04,	 1.9223187287117049e-01,	 2.0763036649376268e+03,	 1.9911180633423613e+00,	 9.5930844727357430e+02,	 5.3053446650705206e+04,	 6.2159587094176197e+02,	 3.3402805853670912e+00 
4.4709655000000001e-02,	 3.0975172500000001e-04,	 1.9054493620082283e-01,	 2.0778912572444906e+03,	 2.1776533446972350e+00,	 9.5603316382187313e+02,	 5.2408328300409972e+04,	 6.2053383328339078e+02,	 3.3485561735645009e+00 
4.5637357500000003e-02,	 3.1259117500000004e-04,	 1.8868187632184225e-01,	 2.0796553787285957e+03,	 2.4101991575504598e+00,	 9.5239065480836325e+02,	 5.1698179385416930e+04,	 6.1935058084668412e+02,	 3.3578022523611391e+00 
4.6579527500000002e-02,	 3.1545177500000001e-04,	 1.8662603878291928e-01,	 2.0816149859047555e+03,	 2.6768740876449697e+00,	 9.4834080365468037e+02,	 5.0917446133396799e+04,	 6.1803234561217846e+02,	 3.3681355383090081e+00 
4.7537062499999998e-02,	 3.1832360000000001e-04,	 1.8436955060407656e-01,	 2.0837805286260173e+03,	 2.9665175898727876e+00,	 9.4386084952098975e+02,	 5.0064179958715366e+04,	 6.1657082766791950e+02,	 3.3796322283161619e+00 
4.8510772499999993e-02,	 3.2108447500000002e-04,	 1.8192285786473281e-01,	 2.0861500943760534e+03,	 3.2582067295244603e+00,	 9.3895347416919458e+02,	 4.9142956484969669e+04,	 6.1496588365139166e+02,	 3.3923062957027956e+00 
4.9500877500000005e-02,	 3.2344762500000003e-04,	 1.7931344109388869e-01,	 2.0887063814548583e+03,	 3.5295402762214234e+00,	 9.3365320393937975e+02,	 4.8164646177371906e+04,	 6.1322772605001023e+02,	 3.4060908776136163e+00 
4.9963142499999998e-04,	 3.4810750000000001e-04,	 3.0183260644995613e+00,	 8.3780719731839736e+02,	 -4.7031979659595935e+00,	 2.7514432088046856e+03,	 2.3892227680659881e+06,	 1.0527112476553827e+03,	 7.9586914289248711e-01 
1.4902874249999999e-03,	 3.5506945000000000e-04,	 2.5074500631165773e+00,	 1.0189954063451005e+03,	 -1.1375335511237981e-01,	 2.5843960300075505e+03,	 1.8643235918287016e+06,	 1.0202545005006882e+03,	 9.9876590810855070e-01 
2.4638967499999997e-03,	 3.6277197500000002e-04,	 2.2089896682618422e+00,	 1.1370471338084424e+03,	 3.2932070324944260e+00,	 2.4580038602745853e+03,	 1.5620904694226268e+06,	 9.9499355324526528e+02,	 1.1427731356800281e+00 
3.4211457500000000e-03,	 3.7074750000000000e-04,	 2.0103485745532419e+00,	 1.2132725266088441e+03,	 6.2620137807488945e+00,	 2.3690289869450571e+03,	 1.3701612422757871e+06,	 9.7681916978438323e+02,	 1.2420811588972169e+00 
4.3630159999999999e-03,	 3.7880165000000001e-04,	 1.8280228416223190e+00,	 1.2825926969766947e+03,	 9.3421884630388572e+00,	 2.2830933311758481e+03,	 1.2007019640057823e+06,	 9.5893864141163317e+02,	 1.3375482690929366e+00 
5.2904230000000007e-03,	 3.8683967499999995e-04,	 1.6610818159655585e+00,	 1.3461295049602772e+03,	 1.2327520387861338e+01,	 2.2001253964483349e+03,	 1.0514010240070124e+06,	 9.4135341763460133e+02,	 1.4300537128210307e+00 
6.2042247500000000e-03,	 3.9481674999999997e-04,	 1.5095836362378434e+00,	 1.4043165421867100e+03,	 1.5113161612109387e+01,	 2.1206177733780951e+03,	 9.2097854690275888e+05,	 9.2418770186168388e+02,	 1.5196024145584797e+00 
7.1052417500000005e-03,	 4.0270047499999998e-04,	 1.3729970899976618e+00,	 1.4575982275080180e+03,	 1.7663512242679683e+01,	 2.0448569522778814e+03,	 8.0772306879315851e+05,	 9.0752887671069095e+02,	 1.6062356650563367e+00 
7.9942452499999987e-03,	 4.1047462499999997e-04,	 1.2504494313788701e+00,	 1.5063969430194284e+03,	 1.9959188483114279e+01,	 1.9729919982405384e+03,	 7.0977613814574445e+05,	 8.9143903736182983e+02,	 1.6899968476993663e+00 
8.8719799999999998e-03,	 4.1814017500000006e-04,	 1.1408063918916374e+00,	 1.5511343648618567e+03,	 2.2005668538808752e+01,	 1.9050268196760887e+03,	 6.2523456256728480e+05,	 8.7595043710945652e+02,	 1.7709797113508248e+00 
9.7391762499999986e-03,	 4.2570352500000000e-04,	 1.0428890178488757e+00,	 1.5921911158700461e+03,	 2.3806136933476640e+01,	 1.8409024030646920e+03,	 5.5233020797098347e+05,	 8.6108171851480097e+02,	 1.8492659222556513e+00 
1.0596517500000001e-02,	 4.3316725000000001e-04,	 9.5550645651933241e-01,	 1.6299216211657701e+03,	 2.5373900754696123e+01,	 1.7804963145545535e+03,	 4.8944584104232345e+05,	 8.4683641727143788e+02,	 1.9249515972634923e+00 
1.1444652500000001e-02,	 4.4053650000000001e-04,	 8.7753398443210584e-01,	 1.6646430205056945e+03,	 2.6721638652797282e+01,	 1.7236589746522413e+03,	 4.3515625138891354e+05,	 8.3321035578706142e+02,	 1.9981238463148041e+00 
1.2284217500000000e-02,	 4.4781712499999997e-04,	 8.0791094597973723e-01,	 1.6966482437044704e+03,	 2.7869107093285109e+01,	 1.6702084678591625e+03,	 3.8820766927099560e+05,	 8.2018973038638285e+02,	 2.0688836424968691e+00 
1.3115827500000000e-02,	 4.5501525000000000e-04,	 7.4568320933978793e-01,	 1.7261959903003112e+03,	 2.8830268197276599e+01,	 1.6199606197568096e+03,	 3.4752716602562967e+05,	 8.0775790188735755e+02,	 2.1373195180891269e+00 
1.3940072499999999e-02,	 4.6213680000000009e-04,	 6.8999023361158751e-01,	 1.7535194150100092e+03,	 2.9621007200828689e+01,	 1.5727258350234022e+03,	 3.1219497035292722e+05,	 7.9589448812182025e+02,	 2.2035201990618529e+00 
1.4757517500000001e-02,	 4.6918907500000004e-04,	 6.4007299305627385e-01,	 1.7788238643757854e+03,	 3.0254636713502407e+01,	 1.5283224476878922e+03,	 2.8143261925362173e+05,	 7.8457864396581363e+02,	 2.2675625296331461e+00 
1.5568707500000001e-02,	 4.7617795000000004e-04,	 5.9525723312809597e-01,	 1.8022941821865265e+03,	 3.0745558043750268e+01,	 1.4865716934035099e+03,	 2.5457776988321301e+05,	 7.7378786759477589e+02,	 2.3295227086467798e+00 
1.6374192499999999e-02,	 4.8310855000000008e-04,	 5.5495345749117886e-01,	 1.8240933795289329e+03,	 3.1103657878455980e+01,	 1.4473064413920570e+03,	 2.3107182475856741e+05,	 7.6350033872622146e+02,	 2.3894665802188548e+00 
1.7174497500000000e-02,	 4.8998750000000006e-04,	 5.1864525557588381e-01,	 1.8443662446175356e+03,	 3.1338221555222898e+01,	 1.4103698848431718e+03,	 2.1044246147801256e+05,	 7.5369476643929602e+02,	 2.4474529298277705e+00 
1.7970127500000002e-02,	 4.9682072499999995e-04,	 4.8588325472386362e-01,	 1.8632403066430647e+03,	 3.1457375887292141e+01,	 1.3756180722128659e+03,	 1.9229134722695619e+05,	 7.4435125157933658e+02,	 2.5035301998264079e+00 
1.8761580000000000e-02,	 5.0361345000000002e-04,	 4.5627433210199381e-01,	 1.8808290424318404e+03,	 3.1467041994953878e+01,	 1.3429175620180217e+03,	 1.7628092830844180e+05,	 7.3545086526016121e+02,	 2.5577402123449096e+00 
1.9549347500000001e-02,	 5.1037067500000002e-04,	 4.2947682030828932e-01,	 1.8972322839357566e+03,	 3.1372038747576990e+01,	 1.3121474660325471e+03,	 1.6212586739786150e+05,	 7.2697639519006293e+02,	 2.6101145207258694e+00 
2.0333910000000000e-02,	 5.1709710000000003e-04,	 4.0519261378818816e-01,	 1.9125383709029588e+03,	 3.1175875788577549e+01,	 1.2831977954983467e+03,	 1.4958397241817947e+05,	 7.1891209290354027e+02,	 2.6606764144369710e+00 
2.1115735000000000e-02,	 5.2379777500000005e-04,	 3.8316210434238018e-01,	 1.9268250751040539e+03,	 3.0881263428076650e+01,	 1.2559696223200747e+03,	 1.3844957363134506e+05,	 7.1124389933584359e+02,	 2.7094397974066706e+00 
2.1895290000000001e-02,	 5.3047687500000008e-04,	 3.6315732140128831e-01,	 1.9401616663631592e+03,	 3.0492064580370709e+01,	 1.2303726656816314e+03,	 1.2854684316336284e+05,	 7.0395893186031049e+02,	 2.7564125891360045e+00 
2.2673042500000001e-02,	 5.3713844999999998e-04,	 3.4498017905811451e-01,	 1.9526084830538766e+03,	 3.0008928311616152e+01,	 1.2063275439481263e+03,	 1.1972623480715512e+05,	 6.9704627172738640e+02,	 2.8015917261016474e+00 
2.3449447499999998e-02,	 5.4378687500000007e-04,	 3.2845856709229709e-01,	 1.9642181741154754e+03,	 2.9430869248644363e+01,	 1.1837644455177585e+03,	 1.1186025967010853e+05,	 6.9049673990357053e+02,	 2.8449644103712832e+00 
2.4224954999999999e-02,	 5.5042690000000000e-04,	 3.1344249090818366e-01,	 1.9750364664821020e+03,	 2.8755670076544355e+01,	 1.1626225359342436e+03,	 1.0483988704992540e+05,	 6.8430285990105699e+02,	 2.8865081620238922e+00 
2.5000012500000002e-02,	 5.5706257500000007e-04,	 2.9980108778474363e-01,	 1.9851030222342085e+03,	 2.7982157889003290e+01,	 1.1428489695327944e+03,	 9.8571640124287835e+04,	 6.7845868628274309e+02,	 2.9261917812437028e+00 
2.5775077500000000e-02,	 5.6369800000000006e-04,	 2.8741971721861037e-01,	 1.9944522977669649e+03,	 2.7108772266352446e+01,	 1.1243978594883724e+03,	 9.2975068158267488e+04,	 6.7295959813025866e+02,	 2.9639766298264623e+00 
2.6550600000000001e-02,	 5.7033769999999999e-04,	 2.7619816421369275e-01,	 2.0031139802510268e+03,	 2.6134774257118426e+01,	 1.1072298875929337e+03,	 8.7980925340689661e+04,	 6.6780226340753109e+02,	 2.9998168229132514e+00 
2.7327024999999998e-02,	 5.7698695000000003e-04,	 2.6604770020588508e-01,	 2.0111142814214329e+03,	 2.5061016337151003e+01,	 1.0913101330781244e+03,	 8.3529067742995365e+04,	 6.6298405019773372e+02,	 3.0336633598810012e+00 
2.8104809999999997e-02,	 5.8364997500000000e-04,	 2.5688997901731409e-01,	 2.0184762977211653e+03,	 2.3888895846489188e+01,	 1.0766077095541493e+03,	 7.9567293594076764e+04,	 6.5850295670782600e+02,	 3.0654648336870496e+00 
2.8884412499999998e-02,	 5.9033044999999996e-04,	 2.4865456597849742e-01,	 2.0252211726811329e+03,	 2.2623210720727354e+01,	 1.0630936404193594e+03,	 7.6049768450798743e+04,	 6.5435699095553957e+02,	 3.0951721395032332e+00 
2.9666292499999997e-02,	 5.9703290000000003e-04,	 2.4127741228256919e-01,	 2.0313690194085884e+03,	 2.1271139246988721e+01,	 1.0507392470796042e+03,	 7.2935935565385138e+04,	 6.5054368244931766e+02,	 3.1227424687101073e+00 
3.0450917500000001e-02,	 6.0376315000000005e-04,	 2.3469849437152376e-01,	 2.0369403222191370e+03,	 1.9845249484115818e+01,	 1.0395134314095239e+03,	 7.0189208681572971e+04,	 6.4705923381344326e+02,	 3.1481460836859396e+00 
3.1238757499999999e-02,	 6.1052654999999999e-04,	 2.2886060738862413e-01,	 2.0419567909554489e+03,	 1.8362020207186564e+01,	 1.0293811240947150e+03,	 6.7776195052751063e+04,	 6.4389801566884853e+02,	 3.1713707739209558e+00 
3.2030289999999996e-02,	 6.1732845000000004e-04,	 2.2370843673923715e-01,	 2.0464420663036481e+03,	 1.6841438128326427e+01,	 1.0203019839397979e+03,	 6.5666070951635964e+04,	 6.4105213678488860e+02,	 3.1924257747620475e+00 
3.2826007500000004e-02,	 6.2417609999999998e-04,	 2.1918791047961039e-01,	 2.0504221027531544e+03,	 1.5306263869531568e+01,	 1.0122297432512620e+03,	 6.3830115228494753e+04,	 6.3851122094296454e+02,	 3.2113440842075804e+00 
3.3626409999999995e-02,	 6.3107734999999997e-04,	 2.1524529232258646e-01,	 2.0539264606242159e+03,	 1.3780704284986811e+01,	 1.0051096987809510e+03,	 6.2241071830437177e+04,	 6.3626160758943854e+02,	 3.2281889493797733e+00 
3.4432009999999999e-02,	 6.3803925000000005e-04,	 2.1182625261446397e-01,	 2.0569892448821201e+03,	 1.2291164546022788e+01,	 9.9887686834104943e+02,	 6.0872575458669737e+04,	 6.3428576463265631e+02,	 3.2430586985553691e+00 
3.5243330000000003e-02,	 6.4506852500000001e-04,	 2.0887456639567317e-01,	 2.0596496468346463e+03,	 1.0867823901372667e+01,	 9.9345495163412374e+02,	 5.9698535532135444e+04,	 6.3256196653653217e+02,	 3.2560894075984490e+00 
3.6060902499999999e-02,	 6.5217312499999997e-04,	 2.0633171428151545e-01,	 2.0619521347427199e+03,	 9.5427239646635940e+00,	 9.8875605597220374e+02,	 5.8692834052860650e+04,	 6.3106423093311810e+02,	 3.2674553800343942e+00 
3.6885285000000004e-02,	 6.5936227500000002e-04,	 2.0413663871394280e-01,	 2.0639461513280198e+03,	 8.3476943621142699e+00,	 9.8468141721813538e+02,	 5.7829127375399446e+04,	 6.2976258865499437e+02,	 3.2773668517237877e+00 
3.7717050000000002e-02,	 6.6664687499999999e-04,	 2.0222647974772789e-01,	 2.0656852449219227e+03,	 7.3122536707269985e+00,	 9.8112326552128559e+02,	 5.7080994854298311e+04,	 6.2862373362668416e+02,	 3.2860645829759969e+00 
3.8556787500000002e-02,	 6.7403852500000003e-04,	 2.0053714772230233e-01,	 2.0672259457334280e+03,	 6.4611761336044005e+00,	 9.7796720019279451e+02,	 5.6422075845166080e+04,	 6.2761184464177256e+02,	 3.2938129843418142e+00 
3.9405112499999999e-02,	 6.8155180000000002e-04,	 1.9900471885713480e-01,	 2.0686261522796549e+03,	 5.8128508248089039e+00,	 9.7509554862900313e+02,	 5.5826510931164768e+04,	 6.2668972398540484e+02,	 3.3008907600710033e+00 
4.0262667500000002e-02,	 6.8920027500000004e-04,	 1.9756671520433380e-01,	 2.0699435276904510e+03,	 5.3780100519047558e+00,	 9.7239069464649197e+02,	 5.5269369574798373e+04,	 6.2581992134935660e+02,	 3.3075816916088776e+00 
4.1130112500000003e-02,	 6.9699832500000000e-04,	 1.9616385650513377e-01,	 2.0712335730891236e+03,	 5.1591295862110318e+00,	 9.6973906380918504e+02,	 5.4727274354755900e+04,	 6.2496605867445180e+02,	 3.3141639768054270e+00 
4.2008135000000002e-02,	 7.0495997500000002e-04,	 1.9474139949319191e-01,	 2.0725482676399320e+03,	 5.1507946760879060e+00,	 9.6703394282720546e+02,	 5.4178869931346439e+04,	 6.2409376760571956e+02,	 3.3209026843516107e+00 
4.2897449999999997e-02,	 7.1309507499999999e-04,	 1.9325067300994986e-01,	 2.0739343520980042e+03,	 5.3402565184062514e+00,	 9.6417903876476328e+02,	 5.3605411995446557e+04,	 6.2317185333020541e+02,	 3.3280405981489793e+00 
4.3798850000000000e-02,	 7.2141417500000003e-04,	 1.9164916833531195e-01,	 2.0754324599307097e+03,	 5.7110641896157919e+00,	 9.6109028754826784e+02,	 5.2990871841315515e+04,	 6.2217288593875537e+02,	 3.3357935784762440e+00 
4.4713122500000001e-02,	 7.2990952500000001e-04,	 1.8990323185352803e-01,	 2.0770764155983493e+03,	 6.2389398437138990e+00,	 9.5769736743896510e+02,	 5.2322753030174987e+04,	 6.2107369197599076e+02,	 3.3443467536980824e+00 
4.5641025000000002e-02,	 7.3853090000000003e-04,	 1.8798817898803419e-01,	 2.0788923882132826e+03,	 6.8954804943521797e+00,	 9.5394548378871946e+02,	 5.1592198481591455e+04,	 6.1985593624724629e+02,	 3.3538499874365888e+00 
4.6583324999999995e-02,	 7.4718765000000007e-04,	 1.8588884919338117e-01,	 2.0808981888029575e+03,	 7.6491651749307357e+00,	 9.4979688636645824e+02,	 5.0794187502030189e+04,	 6.1850662713954341e+02,	 3.3644138255183758e+00 
4.7540832500000005e-02,	 7.5579430000000006e-04,	 1.8359908256245530e-01,	 2.0831035927739681e+03,	 8.4669525776086587e+00,	 9.4523027794679581e+02,	 4.9927298643892063e+04,	 6.1701795055575303e+02,	 3.3761105299331882e+00 
4.8514132500000001e-02,	 7.6391619999999997e-04,	 1.8112977740695482e-01,	 2.0855073133088849e+03,	 9.3003946853453350e+00,	 9.4024730466139306e+02,	 4.8996142380747842e+04,	 6.1538943376708369e+02,	 3.3889565476631316e+00 
4.9502382499999997e-02,	 7.7061227500000004e-04,	 1.7851011139089759e-01,	 2.0880925328799171e+03,	 1.0092573669949305e+01,	 9.3488195459081840e+02,	 4.8011971035014838e+04,	 6.1363111791551512e+02,	 3.4028862984045505e+00 
4.9911904999999993e-04,	 5.1309267500000005e-04,	 3.0122323065281913e+00,	 8.3325326982423610e+02,	 -7.5779197768384075e+00,	 2.7552044479096494e+03,	 2.3876586068051853e+06,	 1.0534305331666785e+03,	 7.9102294940926265e-01 
1.4891725499999997e-03,	 5.2405112500000003e-04,	 2.5006122938423108e+00,	 1.0148437838285226e+03,	 -2.1727307997273856e-01,	 2.5885888371017463e+03,	 1.8622559625392738e+06,	 1.0210817724560918e+03,	 9.9389082682965335e-01 
2.4625925000000002e-03,	 5.3657337500000006e-04,	 2.2030875804681949e+00,	 1.1335617016407462e+03,	 4.7898258320448068e+00,	 2.4619276595728134e+03,	 1.5604037570812963e+06,	 9.9578740841895194e+02,	 1.1383672977118957e+00 
3.4196575000000002e-03,	 5.4973580000000004e-04,	 2.0048554190395795e+00,	 1.2101765188764284e+03,	 9.4756518059965131e+00,	 2.3727295754250490e+03,	 1.3685517990099648e+06,	 9.7758180190991845e+02,	 1.2379665957380668e+00 
4.3613539999999996e-03,	 5.6312950000000006e-04,	 1.8226842906184564e+00,	 1.2798643558362357e+03,	 1.4284251738935621e+01,	 2.2865069335356716e+03,	 1.1989854438288610e+06,	 9.5965525962793674e+02,	 1.3337540247141235e+00 
5.2886030000000002e-03,	 5.7656182500000002e-04,	 1.6559773857148363e+00,	 1.3436691130075787e+03,	 1.8932169348116709e+01,	 2.2033090943581747e+03,	 1.0496868732478339e+06,	 9.4203426553030920e+02,	 1.4264900246067127e+00 
6.2022762500000004e-03,	 5.8991762500000002e-04,	 1.5047761396853943e+00,	 1.4020590383722556e+03,	 2.3271483241736107e+01,	 2.1236081850507258e+03,	 9.1934014363193070e+05,	 9.2483909884999923e+02,	 1.5162120175781122e+00 
7.1031955000000003e-03,	 6.0312905000000001e-04,	 1.3685174705641463e+00,	 1.4554999007196550e+03,	 2.7250752543226728e+01,	 2.0476784235602570e+03,	 8.0619859623352159e+05,	 9.0815476010294219e+02,	 1.6029811711466997e+00 
7.9921192499999988e-03,	 6.1616202500000008e-04,	 1.2463093307453590e+00,	 1.5044259029216660e+03,	 3.0839956436263304e+01,	 1.9756643479287536e+03,	 7.0838433170647128e+05,	 8.9204254480562292e+02,	 1.6868500051890021e+00 
8.8697900000000007e-03,	 6.2901620000000011e-04,	 1.1370048532766877e+00,	 1.5492663860963503e+03,	 3.4044434231280398e+01,	 1.9075675758537343e+03,	 6.2398218103827618e+05,	 8.7653437505894397e+02,	 1.7679174264401027e+00 
9.7369524999999998e-03,	 6.4169792499999998e-04,	 1.0394168315221946e+00,	 1.5904074637881979e+03,	 3.6869559750674746e+01,	 1.8433276134293508e+03,	 5.5121650308322138e+05,	 8.6164872765476468e+02,	 1.8462683445127248e+00 
1.0594292500000000e-02,	 6.5420992499999999e-04,	 9.5234763593061977e-01,	 1.6282080523638360e+03,	 3.9335262459779329e+01,	 1.7828200205581140e+03,	 4.8846443461798865e+05,	 8.4738883550203514e+02,	 1.9220021053908272e+00 
1.1442450000000000e-02,	 6.6655920000000001e-04,	 8.7466994294188249e-01,	 1.6629881617562660e+03,	 4.1460286108434865e+01,	 1.7258944165136813e+03,	 4.3429853457688930e+05,	 8.3375048287146740e+02,	 1.9952071308312109e+00 
1.2282057500000000e-02,	 6.7875560000000006e-04,	 8.0532085295572753e-01,	 1.6950431769881275e+03,	 4.3273497925326510e+01,	 1.6723675051248392e+03,	 3.8746332652421045e+05,	 8.2071967869001958e+02,	 2.0659861156731276e+00 
1.3113742500000001e-02,	 6.9081039999999995e-04,	 7.4334626301755025e-01,	 1.7246333886097716e+03,	 4.4798228533725705e+01,	 1.6220544052169300e+03,	 3.4688579570473416e+05,	 8.0827974346606823e+02,	 2.1344282506385142e+00 