TITLE = "Final State"
VARIABLES = "X", "Y", "rho", "u", "v", "T", "p", "c", "M"
ZONE I=77, J=21, DATAPACKING=POINT, STRANDID=31000, SOLUTIONTIME=0.000748
1.8369600000000000e-01,	 3.0203999999999998e-01,	 1.1611540435479196e-02,	 1.7358448184874985e+03,	 9.8217436842415662e-01,	 3.0025868017297665e+02,	 1.0030332909651827e+03,	 3.4775771389498334e+02,	 4.9915358509581189e+00 
1.8819400000000000e-01,	 3.0203999999999998e-01,	 1.1621160010240536e-02,	 1.7358019835816681e+03,	 1.3314432815189547e+00,	 3.0035565100572614e+02,	 1.0041884590078569e+03,	 3.4781386486588718e+02,	 4.9906075334037929e+00 
1.9269200000000000e-01,	 3.0203999999999998e-01,	 1.1630345482337250e-02,	 1.7357454805000002e+03,	 1.6308059795799728e+00,	 3.0044594937522226e+02,	 1.0052843148216806e+03,	 3.4786614399664035e+02,	 4.9896958257083055e+00 
1.9719000000000000e-01,	 3.0203999999999998e-01,	 1.1635550474359310e-02,	 1.7357137514250066e+03,	 1.7760325466837050e+00,	 3.0049495296105516e+02,	 1.0058982533013581e+03,	 3.4789451181695387e+02,	 4.9891981652817066e+00 
2.0168800000000001e-01,	 3.0203999999999998e-01,	 1.1637756278168248e-02,	 1.7357010135470480e+03,	 1.8144041955909453e+00,	 3.0051402499131632e+02,	 1.0061528011507380e+03,	 3.4790555185159570e+02,	 4.9890033448653197e+00 
2.0618600000000001e-01,	 3.0203999999999998e-01,	 1.1637708310656953e-02,	 1.7357023821709638e+03,	 1.7781356303204090e+00,	 3.0050902698260552e+02,	 1.0061319202821020e+03,	 3.4790265873835637e+02,	 4.9890486588066185e+00 
2.1068400000000001e-01,	 3.0203999999999998e-01,	 1.1636039082585278e-02,	 1.7357136361025687e+03,	 1.6918764617361424e+00,	 3.0048863782404271e+02,	 1.0059193530607865e+03,	 3.4789085615979656e+02,	 4.9892500189149187e+00 
2.1518200000000001e-01,	 3.0203999999999998e-01,	 1.1633255671604590e-02,	 1.7357313220722945e+03,	 1.5746522835693055e+00,	 3.0046158974428528e+02,	 1.0055882062471773e+03,	 3.4787519834415644e+02,	 4.9895251072650701e+00 
2.1967999999999999e-01,	 3.0203999999999998e-01,	 1.1629926923130208e-02,	 1.7357533681301747e+03,	 1.4405876677405880e+00,	 3.0042395356718418e+02,	 1.0051745413506237e+03,	 3.4785341003069459e+02,	 4.9899006762199845e+00 
2.2417799999999999e-01,	 3.0203999999999998e-01,	 1.1626086320438447e-02,	 1.7357778695797870e+03,	 1.2992718891593988e+00,	 3.0037843503975756e+02,	 1.0046903500431677e+03,	 3.4782705664807776e+02,	 4.9903488606529391e+00 
2.2867599999999999e-01,	 3.0203999999999998e-01,	 1.1621946954741115e-02,	 1.7358028205810947e+03,	 1.1561558004322370e+00,	 3.0033579872517669e+02,	 1.0041900819084219e+03,	 3.4780237013871732e+02,	 4.9907745163600632e+00 
2.3317399999999999e-01,	 3.0203999999999998e-01,	 1.1617971121992705e-02,	 1.7358274022177070e+03,	 1.0171435268280158e+00,	 3.0029394728977297e+02,	 1.0037066667120249e+03,	 3.4777813637168799e+02,	 4.9911927136515830e+00 
2.3767199999999999e-01,	 3.0203999999999998e-01,	 1.1614168774043813e-02,	 1.7358509581151661e+03,	 8.8699803192678239e-01,	 3.0025395469114164e+02,	 1.0032445439383024e+03,	 3.4775497737255415e+02,	 4.9915926375884432e+00 
2.4217000000000000e-01,	 3.0203999999999998e-01,	 1.1610610680992969e-02,	 1.7358730571052638e+03,	 7.6709707966420049e-01,	 3.0021647210260812e+02,	 1.0028119890325528e+03,	 3.4773327047518990e+02,	 4.9919676199705814e+00 
2.4666800000000000e-01,	 3.0203999999999998e-01,	 1.1607342772066601e-02,	 1.7358933864251539e+03,	 6.5848780855025257e-01,	 3.0018200540351540e+02,	 1.0024146421554913e+03,	 3.4771330894222001e+02,	 4.9923125364403349e+00 
2.5116600000000000e-01,	 3.0203999999999998e-01,	 1.1604387446246651e-02,	 1.7359117827242840e+03,	 5.6150501629435712e-01,	 3.0015081472900522e+02,	 1.0020552888134971e+03,	 3.4769524374479477e+02,	 4.9926247332038933e+00 
2.5566400000000000e-01,	 3.0203999999999998e-01,	 1.1601751487032186e-02,	 1.7359281966733874e+03,	 4.7593090171284824e-01,	 3.0012297964864916e+02,	 1.0017347635291359e+03,	 3.4767912126741913e+02,	 4.9929033862807257e+00 
2.6016200000000000e-01,	 3.0203999999999998e-01,	 1.1599429248546280e-02,	 1.7359426669647619e+03,	 4.0122683115734437e-01,	 3.0009843914790781e+02,	 1.0014523599409829e+03,	 3.4766490643760790e+02,	 4.9931490961222122e+00 
2.6466000000000001e-01,	 3.0203999999999998e-01,	 1.1597404575935687e-02,	 1.7359552863950760e+03,	 3.3664902801558072e-01,	 3.0007703312156343e+02,	 1.0012061359581717e+03,	 3.4765250674488743e+02,	 4.9933634458492628e+00 
2.6915800000000001e-01,	 3.0203999999999998e-01,	 1.1595656200312292e-02,	 1.7359661858569452e+03,	 2.8132731744511147e-01,	 3.0005853999416024e+02,	 1.0009935053960401e+03,	 3.4764179402707333e+02,	 4.9935486425358659e+00 
2.7365600000000001e-01,	 3.0203999999999998e-01,	 1.1594160364723754e-02,	 1.7359755186741984e+03,	 2.3434309533124636e-01,	 3.0004270396009701e+02,	 1.0008115554838665e+03,	 3.4763262025063091e+02,	 4.9937072454243845e+00 
2.7815400000000001e-01,	 3.0203999999999998e-01,	 1.1592890966538687e-02,	 1.7359834405148515e+03,	 1.9475838877528157e-01,	 3.0002925725603876e+02,	 1.0006571332073862e+03,	 3.4762483041725358e+02,	 4.9938419225002875e+00 
2.8265200000000001e-01,	 3.0203999999999998e-01,	 1.1591822620883808e-02,	 1.7359901092713812e+03,	 1.6165726093564065e-01,	 3.0001793303047509e+02,	 1.0005271523489248e+03,	 3.4761827002515514e+02,	 4.9939553426596550e+00 
2.8715000000000002e-01,	 3.0203999999999998e-01,	 1.1590931205068076e-02,	 1.7359956819626752e+03,	 1.3419091520273443e-01,	 3.0000847016363679e+02,	 1.0004186562048573e+03,	 3.4761278786729667e+02,	 4.9940501262911576e+00 
2.9164800000000002e-01,	 3.0203999999999998e-01,	 1.1590192796725787e-02,	 1.7360003014879298e+03,	 1.1157415880185408e-01,	 3.0000062287435333e+02,	 1.0003287576617105e+03,	 3.4760824160241691e+02,	 4.9941287268412706e+00 
2.9614600000000002e-01,	 3.0203999999999998e-01,	 1.1589585950271873e-02,	 1.7360041012161550e+03,	 9.3088387907071107e-02,	 2.9999416521696168e+02,	 1.0002548504032245e+03,	 3.4760450036516687e+02,	 4.9941934062655804e+00 
3.0064400000000002e-01,	 3.0203999999999998e-01,	 1.1589091814234197e-02,	 1.7360072051623158e+03,	 7.8102517476212802e-02,	 2.9998889117550084e+02,	 1.0001946191151104e+03,	 3.4760144482473140e+02,	 4.9942462344900678e+00 
3.0514200000000002e-01,	 3.0203999999999998e-01,	 1.1588692512775188e-02,	 1.7360097186575097e+03,	 6.6055892018675427e-02,	 2.9998461846767918e+02,	 1.0001459123019588e+03,	 3.4759896939190003e+02,	 4.9942890306932259e+00 
3.0964000000000003e-01,	 3.0203999999999998e-01,	 1.1588372819185573e-02,	 1.7360117362288695e+03,	 5.6454980843432728e-02,	 2.9998118663863625e+02,	 1.0001068802231797e+03,	 3.4759698111720735e+02,	 4.9943234016795275e+00 
3.1413799999999997e-01,	 3.0203999999999998e-01,	 1.1588120056236644e-02,	 1.7360133434618765e+03,	 4.8883081982920171e-02,	 2.9997845474001258e+02,	 1.0000759584451223e+03,	 3.4759539834815615e+02,	 4.9943507664370559e+00 
3.1863599999999997e-01,	 3.0203999999999998e-01,	 1.1587922158377837e-02,	 1.7360146094742054e+03,	 4.2978422138986699e-02,	 2.9997630178354410e+02,	 1.0000517020383232e+03,	 3.4759415099340083e+02,	 4.9943723306183347e+00 
3.2313399999999998e-01,	 3.0203999999999998e-01,	 1.1587769295152092e-02,	 1.7360155949620932e+03,	 3.8431770912201513e-02,	 2.9997462435201021e+02,	 1.0000329176614845e+03,	 3.4759317913962184e+02,	 4.9943891295121396e+00 
3.2763199999999998e-01,	 3.0203999999999998e-01,	 1.1587653760683441e-02,	 1.7360163544362313e+03,	 3.4988609481153329e-02,	 2.9997333407202018e+02,	 1.0000186455569857e+03,	 3.4759243158804651e+02,	 4.9944020554690391e+00 
3.3212999999999998e-01,	 3.0203999999999998e-01,	 1.1587546094343508e-02,	 1.7360169363257078e+03,	 3.2366514732009868e-02,	 2.9997236710966979e+02,	 1.0000061303890009e+03,	 3.4759187135647369e+02,	 4.9944117791150928e+00 
3.3662799999999998e-01,	 3.0203999999999998e-01,	 1.1587482629514471e-02,	 1.7360173557961787e+03,	 3.0400456511315725e-02,	 2.9997164610330987e+02,	 9.9999824979181631e+02,	 3.4759145362449573e+02,	 4.9944189880392882e+00 
3.4112599999999998e-01,	 3.0203999999999998e-01,	 1.1587462300224434e-02,	 1.7360176568839256e+03,	 2.9166820793579781e-02,	 2.9997111486583526e+02,	 9.9999472442396552e+02,	 3.4759114583925975e+02,	 4.9944242766521629e+00 
3.4562399999999999e-01,	 3.0203999999999998e-01,	 1.1587436873818406e-02,	 1.7360178775764232e+03,	 2.8383345272138337e-02,	 2.9997074938965943e+02,	 9.9999131177017762e+02,	 3.4759093409166951e+02,	 4.9944279540691809e+00 
3.5012199999999999e-01,	 3.0203999999999998e-01,	 1.1587421955920250e-02,	 1.7360180179918252e+03,	 2.7942423608175858e-02,	 2.9997051195911570e+02,	 9.9998923285692388e+02,	 3.4759079653038901e+02,	 4.9944303345929528e+00 
3.5461999999999999e-01,	 3.0203999999999998e-01,	 1.1587416301817130e-02,	 1.7360181068595023e+03,	 2.7791563751316074e-02,	 2.9997036819894993e+02,	 9.9998826566813636e+02,	 3.4759071323934120e+02,	 4.9944317870385211e+00 
3.5911799999999999e-01,	 3.0203999999999998e-01,	 1.1587417551356541e-02,	 1.7360181531907970e+03,	 2.7889702664557356e-02,	 2.9997029089848127e+02,	 9.9998811581208042e+02,	 3.4759066845337293e+02,	 4.9944325638526204e+00 
3.6361599999999999e-01,	 3.0203999999999998e-01,	 1.1587426176197520e-02,	 1.7360181462809073e+03,	 2.8106122355635213e-02,	 2.9997029844123938e+02,	 9.9998888527611393e+02,	 3.4759067282345956e+02,	 4.9944324811907297e+00 
3.6811400000000000e-01,	 3.0203999999999998e-01,	 1.1587440982061006e-02,	 1.7360181124094486e+03,	 2.8433161570484977e-02,	 2.9997036114676689e+02,	 9.9999037205153900e+02,	 3.4759070915348201e+02,	 4.9944318617438581e+00 
3.7261200000000000e-01,	 3.0203999999999998e-01,	 1.1587458785398111e-02,	 1.7360180601558784e+03,	 2.8862266228647265e-02,	 2.9997045511051817e+02,	 9.9999222171156032e+02,	 3.4759076359373449e+02,	 4.9944309291971551e+00 
3.7711000000000000e-01,	 3.0203999999999998e-01,	 1.1587478552127467e-02,	 1.7360179950440420e+03,	 2.9338762197699646e-02,	 2.9997056993583783e+02,	 9.9999431035740929e+02,	 3.4759083012064747e+02,	 4.9944297859911604e+00 
3.8160800000000000e-01,	 3.0203999999999998e-01,	 1.1587500642461838e-02,	 1.7360179203884275e+03,	 2.9921828241972225e-02,	 2.9997070223420405e+02,	 9.9999665777971586e+02,	 3.4759090677098999e+02,	 4.9944284698738297e+00 
3.8610600000000000e-01,	 3.0203999999999998e-01,	 1.1587524839211128e-02,	 1.7360178331209690e+03,	 3.0602160242095854e-02,	 2.9997085582699299e+02,	 9.9999925797479955e+02,	 3.4759099575876371e+02,	 4.9944269402062718e+00 
3.9060400000000001e-01,	 3.0203999999999998e-01,	 1.1587550434393017e-02,	 1.7360177364787160e+03,	 3.1295782409132403e-02,	 2.9997102378833279e+02,	 1.0000020267562106e+03,	 3.4759109307128597e+02,	 4.9944252639545432e+00 
3.9510200000000001e-01,	 3.0203999999999998e-01,	 1.1587577800350881e-02,	 1.7360176352695526e+03,	 3.2028838705761592e-02,	 2.9997120296505659e+02,	 1.0000049857459899e+03,	 3.4759119688168607e+02,	 4.9944234812020349e+00 
3.9960000000000001e-01,	 3.0203999999999998e-01,	 1.1587605914922946e-02,	 1.7360175298678632e+03,	 3.2807862097769147e-02,	 2.9997138899414620e+02,	 1.0000080321874234e+03,	 3.4759130466213838e+02,	 4.9944216293479888e+00 
4.0409800000000001e-01,	 3.0203999999999998e-01,	 1.1587634532253536e-02,	 1.7360174208004923e+03,	 3.3628923366681898e-02,	 2.9997157965953966e+02,	 1.0000111374758342e+03,	 3.4759141512871082e+02,	 4.9944197283565668e+00 
4.0859600000000001e-01,	 3.0203999999999998e-01,	 1.1587664343489276e-02,	 1.7360173099144731e+03,	 3.4485601925639806e-02,	 2.9997177516007400e+02,	 1.0000143619201713e+03,	 3.4759152839660175e+02,	 4.9944177818862219e+00 
4.1309400000000002e-01,	 3.0203999999999998e-01,	 1.1587695085245243e-02,	 1.7360171928138598e+03,	 3.5363035540976237e-02,	 2.9997197911698555e+02,	 1.0000176948627795e+03,	 3.4759164656385684e+02,	 4.9944157471434183e+00 
4.1759200000000002e-01,	 3.0203999999999998e-01,	 1.1587727041165719e-02,	 1.7360170676996265e+03,	 3.6248385234853533e-02,	 2.9997219490668448e+02,	 1.0000211720385387e+03,	 3.4759177158667313e+02,	 4.9944135908441138e+00 
4.2209000000000002e-01,	 3.0203999999999998e-01,	 1.1587760830337584e-02,	 1.7360169378048213e+03,	 3.7143062137139568e-02,	 2.9997242197650189e+02,	 1.0000248450328121e+03,	 3.4759190314484169e+02,	 4.9944113268909218e+00 
4.2658800000000002e-01,	 3.0203999999999998e-01,	 1.1587795651198140e-02,	 1.7360168023229166e+03,	 3.8051313952898569e-02,	 2.9997265829111996e+02,	 1.0000286378860918e+03,	 3.4759204005914722e+02,	 4.9944089699077399e+00 
4.3108600000000002e-01,	 3.0203999999999998e-01,	 1.1587831209605498e-02,	 1.7360166626654652e+03,	 3.8976346702755127e-02,	 2.9997290111053167e+02,	 1.0000325160798740e+03,	 3.4759218074209826e+02,	 4.9944065467659984e+00 
4.3558400000000003e-01,	 3.0203999999999998e-01,	 1.1587867855532235e-02,	 1.7360165231394774e+03,	 3.9930461671530491e-02,	 2.9997314703880170e+02,	 1.0000364984960414e+03,	 3.4759232322617908e+02,	 4.9944040981281166e+00 
4.4008199999999997e-01,	 3.0203999999999998e-01,	 1.1587904837316497e-02,	 1.7360163821868416e+03,	 4.0916809097451018e-02,	 2.9997339457532712e+02,	 1.0000405152635680e+03,	 3.4759246664197985e+02,	 4.9944016320040951e+00 
4.4457999999999998e-01,	 3.0203999999999998e-01,	 1.1587942057320099e-02,	 1.7360162397812910e+03,	 4.1931607676455415e-02,	 2.9997364306830855e+02,	 1.0000445557834056e+03,	 3.4759261061186527e+02,	 4.9943991537443733e+00 
4.4907799999999998e-01,	 3.0203999999999998e-01,	 1.1587980138847043e-02,	 1.7360160984258737e+03,	 4.2974910351412793e-02,	 2.9997389197942698e+02,	 1.0000486720524535e+03,	 3.4759275482394776e+02,	 4.9943966750315845e+00 
4.5357599999999998e-01,	 3.0203999999999998e-01,	 1.1588018625600643e-02,	 1.7360159550553874e+03,	 4.4041575155116849e-02,	 2.9997414292588405e+02,	 1.0000528300836597e+03,	 3.4759290021518746e+02,	 4.9943941735844124e+00 
4.5807399999999998e-01,	 3.0203999999999998e-01,	 1.1588057552084842e-02,	 1.7360158089467375e+03,	 4.5123048594021289e-02,	 2.9997439666732873e+02,	 1.0000570353874164e+03,	 3.4759304722570170e+02,	 4.9943916409982760e+00 
4.6257199999999998e-01,	 3.0203999999999998e-01,	 1.1588097543015211e-02,	 1.7360156629174139e+03,	 4.6216339866573745e-02,	 2.9997465272589886e+02,	 1.0000613402842207e+03,	 3.4759319557862892e+02,	 4.9943890893568943e+00 
4.6706999999999999e-01,	 3.0203999999999998e-01,	 1.1588137939371069e-02,	 1.7360155152095808e+03,	 4.7317751543201739e-02,	 2.9997491058544978e+02,	 1.0000656861796307e+03,	 3.4759334497492830e+02,	 4.9943865178996951e+00 
4.7156799999999999e-01,	 3.0203999999999998e-01,	 1.1588178640746481e-02,	 1.7360153659426846e+03,	 4.8423967145305710e-02,	 2.9997516960623989e+02,	 1.0000700622758801e+03,	 3.4759349504395112e+02,	 4.9943839322957952e+00 
4.7606599999999999e-01,	 3.0203999999999998e-01,	 1.1588220153381975e-02,	 1.7360152185981553e+03,	 4.9536069839415636e-02,	 2.9997542808359242e+02,	 1.0000745065789764e+03,	 3.4759364479805765e+02,	 4.9943813567519983e+00 
4.8056399999999999e-01,	 3.0203999999999998e-01,	 1.1588261768668553e-02,	 1.7360150714878419e+03,	 5.0653572457845478e-02,	 2.9997568502295451e+02,	 1.0000789546196861e+03,	 3.4759379366103423e+02,	 4.9943787946908857e+00 
4.8506199999999999e-01,	 3.0203999999999998e-01,	 1.1588303407678507e-02,	 1.7360149245430202e+03,	 5.1769842840746885e-02,	 2.9997594002915605e+02,	 1.0000833982689790e+03,	 3.4759394140393238e+02,	 4.9943762492037980e+00 
4.8956000000000000e-01,	 3.0203999999999998e-01,	 1.1588345615977935e-02,	 1.7360147810256312e+03,	 5.2886293650293167e-02,	 2.9997619180267895e+02,	 1.0000878802773366e+03,	 3.4759408727385244e+02,	 4.9943737404931143e+00 
4.9405800000000000e-01,	 3.0203999999999998e-01,	 1.1588387771064818e-02,	 1.7360146387716213e+03,	 5.4003995094426271e-02,	 2.9997644025973472e+02,	 1.0000923466427199e+03,	 3.4759423122225235e+02,	 4.9943712630305122e+00 
4.9855600000000000e-01,	 3.0203999999999998e-01,	 1.1588429839934741e-02,	 1.7360144975246171e+03,	 5.5118181135986134e-02,	 2.9997668549423099e+02,	 1.0000967948297524e+03,	 3.4759437330354166e+02,	 4.9943688152961405e+00 
5.0305400000000000e-01,	 3.0203999999999998e-01,	 1.1588472360960934e-02,	 1.7360143604970708e+03,	 5.6232595733691375e-02,	 2.9997692614200707e+02,	 1.0001012667526444e+03,	 3.4759451272737056e+02,	 4.9943664178882452e+00 
5.0755200000000000e-01,	 3.0203999999999998e-01,	 1.1588514740763615e-02,	 1.7360142253481981e+03,	 5.7346586794639928e-02,	 2.9997716239689089e+02,	 1.0001057118479919e+03,	 3.4759464960604004e+02,	 4.9943640624588328e+00 
5.1205000000000001e-01,	 3.0203999999999998e-01,	 1.1588557001910728e-02,	 1.7360140915584989e+03,	 5.8458903841938928e-02,	 2.9997739491568723e+02,	 1.0001101342530088e+03,	 3.4759478432008495e+02,	 4.9943617420454665e+00 
5.1654800000000001e-01,	 3.0203999999999998e-01,	 1.1588599758967717e-02,	 1.7360139617982290e+03,	 5.9574938456859891e-02,	 2.9997762312095790e+02,	 1.0001145850803521e+03,	 3.4759491653495866e+02,	 4.9943594691375530e+00 
5.2104600000000001e-01,	 3.0203999999999998e-01,	 1.1599237579453870e-02,	 1.7359620002530528e+03,	 4.7047386823100135e-01,	 3.0006398432823266e+02,	 1.0013208353577895e+03,	 3.4764494786078700e+02,	 4.9934914190130453e+00 
5.2554400000000001e-01,	 3.0203999999999998e-01,	 1.1611224149812563e-02,	 1.7359093727977677e+03,	 9.3212353485689492e-01,	 3.0018825198269752e+02,	 1.0027707059773653e+03,	 3.4771692675970814e+02,	 4.9923069297586267e+00 
1.8369600000000000e-01,	 3.0570929999999996e-01,	 1.1598080048980249e-02,	 1.7359068429538793e+03,	 4.0660469310220371e-01,	 3.0012387444774885e+02,	 1.0014207447234799e+03,	 3.4767963955950921e+02,	 4.9928344747856483e+00 
1.8819400000000000e-01,	 3.0569399999999997e-01,	 1.1605676536903262e-02,	 1.7358739159683407e+03,	 6.7491714642301148e-01,	 3.0019926188990325e+02,	 1.0023283627206165e+03,	 3.4772330325174312e+02,	 4.9921130707691459e+00 
1.9269200000000000e-01,	 3.0567869999999997e-01,	 1.1615264239170055e-02,	 1.7358232001146293e+03,	 9.9113587987873486e-01,	 3.0029648639319322e+02,	 1.0034812968395413e+03,	 3.4777960666903647e+02,	 4.9911594866179705e+00 
1.9719000000000000e-01,	 3.0566329999999997e-01,	 1.1622470058945188e-02,	 1.7357853225787871e+03,	 1.2149530049419326e+00,	 3.0036872807541829e+02,	 1.0043453866753752e+03,	 3.4782143645082152e+02,	 4.9904507482070040e+00 
2.0168800000000001e-01,	 3.0564799999999998e-01,	 1.1627483296429909e-02,	 1.7357591355948234e+03,	 1.3600743743075454e+00,	 3.0041862381638805e+02,	 1.0049455098853266e+03,	 3.4785032442418776e+02,	 4.9899613327057120e+00 
2.0618600000000001e-01,	 3.0563269999999998e-01,	 1.1630545920083080e-02,	 1.7357435797826877e+03,	 1.4391738803259961e+00,	 3.0044783007543236e+02,	 1.0053079328060264e+03,	 3.4786723276303519e+02,	 4.9896742577161595e+00 
2.1068400000000001e-01,	 3.0561729999999998e-01,	 1.1631937502441582e-02,	 1.7357371876053564e+03,	 1.4643447284605631e+00,	 3.0046036019386179e+02,	 1.0054701480117168e+03,	 3.4787448655511315e+02,	 4.9895518998438382e+00 
2.1518200000000001e-01,	 3.0560199999999998e-01,	 1.1631949874919088e-02,	 1.7357385692062016e+03,	 1.4470682129820476e+00,	 3.0045680537072178e+02,	 1.0054593215081178e+03,	 3.4787242865314636e+02,	 4.9895853463570621e+00 
2.1967999999999999e-01,	 3.0558669999999999e-01,	 1.1630784742288621e-02,	 1.7357459471873194e+03,	 1.3978117752799055e+00,	 3.0044412329483276e+02,	 1.0053161725891784e+03,	 3.4786508684724248e+02,	 4.9897117464525049e+00 
2.2417799999999999e-01,	 3.0557129999999999e-01,	 1.1628863196592660e-02,	 1.7357577597860729e+03,	 1.3243791283958211e+00,	 3.0042537191101229e+02,	 1.0050873486065137e+03,	 3.4785423116221392e+02,	 4.9899012561548037e+00 
2.2867599999999999e-01,	 3.0555599999999999e-01,	 1.1626443172286560e-02,	 1.7357729604265287e+03,	 1.2362219420722909e+00,	 3.0039883548636368e+02,	 1.0047894245335949e+03,	 3.4783886792677475e+02,	 4.9901651617958160e+00 
2.3317399999999999e-01,	 3.0554070000000000e-01,	 1.1623556123713482e-02,	 1.7357903909552515e+03,	 1.1385187953039442e+00,	 3.0036827633926754e+02,	 1.0044377273788808e+03,	 3.4782117489966583e+02,	 4.9904689236867652e+00 
2.3767199999999999e-01,	 3.0552530000000000e-01,	 1.1620431789126695e-02,	 1.7358090713282754e+03,	 1.0350684269014232e+00,	 3.0033546198160070e+02,	 1.0040580388020966e+03,	 3.4780217515655539e+02,	 4.9907950666329119e+00 
2.4217000000000000e-01,	 3.0551000000000000e-01,	 1.1617222172039119e-02,	 1.7358282429101475e+03,	 9.3174017733175918e-01,	 3.0030177295947351e+02,	 1.0036681179235567e+03,	 3.4778266789674518e+02,	 4.9911299590423575e+00 
2.4666800000000000e-01,	 3.0549470000000001e-01,	 1.1614031823183497e-02,	 1.7358473010028231e+03,	 8.3098817864080954e-01,	 3.0026830089620307e+02,	 1.0032806486705392e+03,	 3.4776328518090526e+02,	 4.9914627963270020e+00 
2.5116600000000000e-01,	 3.0547930000000001e-01,	 1.1610941676231182e-02,	 1.7358657605796066e+03,	 7.3495676954726630e-01,	 3.0023588367015066e+02,	 1.0029054194292016e+03,	 3.4774451226134295e+02,	 4.9917852186363714e+00 
2.5566400000000000e-01,	 3.0546400000000001e-01,	 1.1608014600220843e-02,	 1.7358832550323652e+03,	 6.4500009814689063e-01,	 3.0020518026912794e+02,	 1.0025500551070452e+03,	 3.4772673088880322e+02,	 4.9920906869205561e+00 
2.6016200000000000e-01,	 3.0544869999999996e-01,	 1.1605287272317074e-02,	 1.7358995651294510e+03,	 5.6209497064816838e-01,	 3.0017657516181657e+02,	 1.0022189980965152e+03,	 3.4771016389052687e+02,	 4.9923753643304094e+00 
2.6466000000000001e-01,	 3.0543329999999996e-01,	 1.1602782875692485e-02,	 1.7359145534177665e+03,	 4.8674389562701026e-01,	 3.0015030599558486e+02,	 1.0019150336992116e+03,	 3.4769494908581527e+02,	 4.9926368681010009e+00 
2.6915800000000001e-01,	 3.0541799999999997e-01,	 1.1600512516820269e-02,	 1.7359281525602928e+03,	 4.1909356058353303e-01,	 3.0012648628331448e+02,	 1.0016394896301024e+03,	 3.4768115240162160e+02,	 4.9928740489922445e+00 
2.7365600000000001e-01,	 3.0540269999999997e-01,	 1.1598477601847497e-02,	 1.7359403464412233e+03,	 3.5898991401363456e-01,	 3.0010513559318571e+02,	 1.0013925429775736e+03,	 3.4766878534154398e+02,	 4.9930866869602850e+00 
2.7815400000000001e-01,	 3.0538729999999997e-01,	 1.1596673637597619e-02,	 1.7359511663300304e+03,	 3.0609751817648573e-01,	 3.0008620060890553e+02,	 1.0011736192795397e+03,	 3.4765781717398028e+02,	 4.9932753056668471e+00 
2.8265200000000001e-01,	 3.0537199999999998e-01,	 1.1595090347149960e-02,	 1.7359606770194962e+03,	 2.5997591559351729e-01,	 3.0006956915647243e+02,	 1.0009814496202220e+03,	 3.4764818305126249e+02,	 4.9934410162885854e+00 
2.8715000000000002e-01,	 3.0535669999999998e-01,	 1.1593712174189889e-02,	 1.7359689614907900e+03,	 2.2010159287284292e-01,	 3.0005508686830984e+02,	 1.0008141699191692e+03,	 3.4763979366021255e+02,	 4.9935853348847825e+00 
2.9164800000000002e-01,	 3.0534129999999998e-01,	 1.1592523307885547e-02,	 1.7359761198392337e+03,	 1.8590994764461419e-01,	 3.0004258040797947e+02,	 1.0006698321668827e+03,	 3.4763254867623465e+02,	 4.9937099860312575e+00 
2.9614600000000002e-01,	 3.0532599999999999e-01,	 1.1591506298991076e-02,	 1.7359822560974965e+03,	 1.5682396089254702e-01,	 3.0003186661614563e+02,	 1.0005463153219330e+03,	 3.4762634206381887e+02,	 4.9938167886665035e+00 
3.0064400000000002e-01,	 3.0531069999999999e-01,	 1.1590642530906185e-02,	 1.7359874738473652e+03,	 1.3226481422961486e-01,	 3.0002275770807319e+02,	 1.0004413831587996e+03,	 3.4762106509030428e+02,	 4.9939076000328670e+00 
3.0514200000000002e-01,	 3.0529529999999999e-01,	 1.1589915504975498e-02,	 1.7359918800475209e+03,	 1.1168613493893755e-01,	 3.0001507123581632e+02,	 1.0003530008935572e+03,	 3.4761661210012591e+02,	 4.9939842435959090e+00 
3.0964000000000003e-01,	 3.0528000000000000e-01,	 1.1589308347138779e-02,	 1.7359955726954254e+03,	 9.4574646110725094e-02,	 3.0000863377748590e+02,	 1.0002791320992055e+03,	 3.4761288265505124e+02,	 4.9940484426587384e+00 
3.1413799999999997e-01,	 3.0526470000000000e-01,	 1.1588804864926115e-02,	 1.7359986431352243e+03,	 8.0454091815543929e-02,	 3.0000328116597984e+02,	 1.0002178305621557e+03,	 3.4760978166927100e+02,	 4.9941018249343259e+00 
3.1863599999999997e-01,	 3.0524930000000000e-01,	 1.1588391324055666e-02,	 1.7360011789213665e+03,	 6.8896931086141006e-02,	 2.9999886350312056e+02,	 1.0001674102110261e+03,	 3.4760722231647122e+02,	 4.9941458889137360e+00 
3.2313399999999998e-01,	 3.0523400000000001e-01,	 1.1588054721659620e-02,	 1.7360032570334001e+03,	 5.9517673952588966e-02,	 2.9999524600901759e+02,	 1.0001262988044289e+03,	 3.4760512652375223e+02,	 4.9941819771609106e+00 
3.2763199999999998e-01,	 3.0521870000000001e-01,	 1.1587783059535967e-02,	 1.7360049461583333e+03,	 5.1976462926987529e-02,	 2.9999230613335851e+02,	 1.0000930518051392e+03,	 3.4760342329950510e+02,	 4.9942113068335239e+00 
3.3212999999999998e-01,	 3.0520330000000001e-01,	 1.1587577688658009e-02,	 1.7360063022077500e+03,	 4.5961163912474817e-02,	 2.9998993636538211e+02,	 1.0000674270800830e+03,	 3.4760205036248146e+02,	 4.9942349333263385e+00 
3.3662799999999998e-01,	 3.0518800000000001e-01,	 1.1587408271503969e-02,	 1.7360073926037721e+03,	 4.1202552307720942e-02,	 2.9998804744244057e+02,	 1.0000465085566416e+03,	 3.4760095600156887e+02,	 4.9942537933782019e+00 
3.4112599999999998e-01,	 3.0517269999999996e-01,	 1.1587263945171457e-02,	 1.7360082599991463e+03,	 3.7542602520255132e-02,	 2.9998654929612974e+02,	 1.0000290583417647e+03,	 3.4760008803742085e+02,	 4.9942687592708586e+00 
3.4562399999999999e-01,	 3.0515729999999996e-01,	 1.1587161659440485e-02,	 1.7360089320639458e+03,	 3.4764619386172931e-02,	 2.9998537795257420e+02,	 1.0000163259252975e+03,	 3.4759940940779319e+02,	 4.9942804430240084e+00 
3.5012199999999999e-01,	 3.0514199999999997e-01,	 1.1587086596584830e-02,	 1.7360094534979573e+03,	 3.2701635843772107e-02,	 2.9998447595078460e+02,	 1.0000068408652430e+03,	 3.4759888682311396e+02,	 4.9942894514773917e+00 
3.5461999999999999e-01,	 3.0512669999999997e-01,	 1.1587021482417833e-02,	 1.7360098539220899e+03,	 3.1205312036402505e-02,	 2.9998379295701068e+02,	 9.9999894451421710e+02,	 3.4759849112261998e+02,	 4.9942962887895614e+00 
3.5911799999999999e-01,	 3.0511129999999997e-01,	 1.1586979083062792e-02,	 1.7360101493544923e+03,	 3.0148436905089213e-02,	 2.9998328307687387e+02,	 9.9999358562293651e+02,	 3.4759819571725859e+02,	 4.9943013830496827e+00 
3.6361599999999999e-01,	 3.0509599999999998e-01,	 1.1586966817717755e-02,	 1.7360103507924941e+03,	 2.9497740150962883e-02,	 2.9998292490681553e+02,	 9.9999133312638230e+02,	 3.4759798820685683e+02,	 4.9943049440493201e+00 
3.6811400000000000e-01,	 3.0508069999999998e-01,	 1.1586960563895243e-02,	 1.7360104897258661e+03,	 2.9179296096884119e-02,	 2.9998268446414255e+02,	 9.9998999188819960e+02,	 3.4759784890325113e+02,	 4.9943073452513973e+00 
3.7261200000000000e-01,	 3.0506529999999998e-01,	 1.1586958805514127e-02,	 1.7360105790758832e+03,	 2.9106520305635358e-02,	 2.9998253455663837e+02,	 9.9998934041910650e+02,	 3.4759776205235073e+02,	 4.9943088501773270e+00 
3.7711000000000000e-01,	 3.0504999999999999e-01,	 1.1586963733450842e-02,	 1.7360106271636480e+03,	 2.9241893828780709e-02,	 2.9998245554817095e+02,	 9.9998950234064762e+02,	 3.4759771627773875e+02,	 4.9943096462199259e+00 
3.8160800000000000e-01,	 3.0503469999999999e-01,	 1.1586973763132955e-02,	 1.7360106409242901e+03,	 2.9511495898697275e-02,	 2.9998243251900317e+02,	 9.9999029116446229e+02,	 3.4759770293548132e+02,	 4.9943098775234374e+00 
3.8610600000000000e-01,	 3.0501929999999999e-01,	 1.1586988643595033e-02,	 1.7360106282918020e+03,	 2.9880778206570355e-02,	 2.9998245628095867e+02,	 9.9999165460307825e+02,	 3.4759771670228912e+02,	 4.9943096433968268e+00 
3.9060400000000001e-01,	 3.0500400000000000e-01,	 1.1587007375831028e-02,	 1.7360105974919129e+03,	 3.0358324693371071e-02,	 2.9998251754199765e+02,	 9.9999347546490674e+02,	 3.4759775219469168e+02,	 4.9943090448554068e+00 
3.9510200000000001e-01,	 3.0498870000000000e-01,	 1.1587028759332641e-02,	 1.7360105450290600e+03,	 3.0930381889998637e-02,	 2.9998260648177268e+02,	 9.9999561740701279e+02,	 3.4759780372313378e+02,	 4.9943081535905147e+00 
3.9960000000000001e-01,	 3.0497330000000000e-01,	 1.1587052166792854e-02,	 1.7360104854556566e+03,	 3.1601093037189477e-02,	 2.9998271333133385e+02,	 9.9999799372661937e+02,	 3.4759786562783870e+02,	 4.9943070927885564e+00 
4.0409800000000001e-01,	 3.0495800000000001e-01,	 1.1587077393309884e-02,	 1.7360104172739120e+03,	 3.2340097718466770e-02,	 2.9998283507173414e+02,	 1.0000005766768797e+03,	 3.4759793615973462e+02,	 4.9943058832702043e+00 
4.0859600000000001e-01,	 3.0494270000000001e-01,	 1.1587104299608042e-02,	 1.7360103348965142e+03,	 3.3115137953667981e-02,	 2.9998297665170998e+02,	 1.0000033707351610e+03,	 3.4759801818593053e+02,	 4.9943044677652999e+00 
4.1309400000000002e-01,	 3.0492730000000001e-01,	 1.1587133777686326e-02,	 1.7360102390224979e+03,	 3.3894132010365709e-02,	 2.9998314246454561e+02,	 1.0000064675296750e+03,	 3.4759811425172353e+02,	 4.9943028117125845e+00 
4.1759200000000002e-01,	 3.0491200000000002e-01,	 1.1587165750206947e-02,	 1.7360101341781256e+03,	 3.4683278584166949e-02,	 2.9998332820314278e+02,	 1.0000098460289713e+03,	 3.4759822186173056e+02,	 4.9943009639880973e+00 
4.2209000000000002e-01,	 3.0489669999999996e-01,	 1.1587198768201660e-02,	 1.7360100200430550e+03,	 3.5492569253096067e-02,	 2.9998352790593037e+02,	 1.0000133613100123e+03,	 3.4759833756203085e+02,	 4.9942989732972336e+00 
4.2658800000000002e-01,	 3.0488129999999997e-01,	 1.1587233002072081e-02,	 1.7360099021523333e+03,	 3.6332250641335863e-02,	 2.9998373603448658e+02,	 1.0000170096168854e+03,	 3.4759845814386426e+02,	 4.9942969016681422e+00 
4.3108600000000002e-01,	 3.0486599999999997e-01,	 1.1587268018571056e-02,	 1.7360097830883528e+03,	 3.7213977914194604e-02,	 2.9998394795880228e+02,	 1.0000207381248409e+03,	 3.4759858092477458e+02,	 4.9942947950725936e+00 