TITLE = "Final State"
VARIABLES = "X", "Y", "rho", "u", "v", "T", "p", "c", "M"
ZONE I=77, J=25, DATAPACKING=POINT, STRANDID=17000, SOLUTIONTIME=0.000410
-5.0000000000000000e-01,	 1.5710879999999999e-01,	 1.1586407740522196e-02,	 1.7360000000000000e+03,	 -2.3044028387544155e-12,	 3.0000000000000000e+02,	 9.9999999999999977e+02,	 3.4760788074254771e+02,	 4.9941330337264445e+00 
-4.9499440000000000e-01,	 1.5710879999999999e-01,	 1.1586407740522199e-02,	 1.7360000000000000e+03,	 -1.0537841869982172e-12,	 3.0000000000000000e+02,	 1.0000000000000000e+03,	 3.4760788074254771e+02,	 4.9941330337264445e+00 
-4.8998870000000000e-01,	 1.5710879999999999e-01,	 1.1586407740522203e-02,	 1.7360000000000000e+03,	 9.8571538379430273e-14,	 3.0000000000000000e+02,	 1.0000000000000005e+03,	 3.4760788074254771e+02,	 4.9941330337264445e+00 
-4.8498310000000000e-01,	 1.5710879999999999e-01,	 1.1586407740522199e-02,	 1.7360000000000000e+03,	 1.9587633696500592e-13,	 3.0000000000000000e+02,	 1.0000000000000000e+03,	 3.4760788074254771e+02,	 4.9941330337264445e+00 
-4.7997750000000000e-01,	 1.5710879999999999e-01,	 1.1586407740522199e-02,	 1.7360000000000000e+03,	 1.9366613126099782e-13,	 3.0000000000000000e+02,	 1.0000000000000000e+03,	 3.4760788074254771e+02,	 4.9941330337264445e+00 
-4.7497190000000000e-01,	 1.5710879999999999e-01,	 1.1586407740522199e-02,	 1.7360000000000000e+03,	 9.3870980298653912e-14,	 3.0000000000000000e+02,	 1.0000000000000000e+03,	 3.4760788074254771e+02,	 4.9941330337264445e+00 
-4.6996620000000000e-01,	 1.5710879999999999e-01,	 1.1586407740522199e-02,	 1.7360000000000000e+03,	 1.1232305904466152e-13,	 3.0000000000000000e+02,	 1.0000000000000000e+03,	 3.4760788074254771e+02,	 4.9941330337264445e+00 
-4.6496060000000000e-01,	 1.5710879999999999e-01,	 1.1586407740522199e-02,	 1.7360000000000000e+03,	 3.1507362003164637e-14,	 3.0000000000000000e+02,	 1.0000000000000000e+03,	 3.4760788074254771e+02,	 4.9941330337264445e+00 
-4.5995500000000000e-01,	 1.5710879999999999e-01,	 1.1586407740522199e-02,	 1.7360000000000000e+03,	 7.5465851907869346e-14,	 3.0000000000000000e+02,	 1.0000000000000000e+03,	 3.4760788074254771e+02,	 4.9941330337264445e+00 
-4.5494940000000000e-01,	 1.5710879999999999e-01,	 1.1586407740522199e-02,	 1.7360000000000000e+03,	 1.2397532809713276e-13,	 3.0000000000000000e+02,	 1.0000000000000000e+03,	 3.4760788074254771e+02,	 4.9941330337264445e+00 
-4.4994370000000000e-01,	 1.5710879999999999e-01,	 1.1586407740522199e-02,	 1.7360000000000000e+03,	 7.9761182968399091e-14,	 3.0000000000000000e+02,	 1.0000000000000000e+03,	 3.4760788074254771e+02,	 4.9941330337264445e+00 
-4.4493810000000000e-01,	 1.5710879999999999e-01,	 1.1586407740522199e-02,	 1.7360000000000000e+03,	 9.0770398609659215e-14,	 3.0000000000000000e+02,	 1.0000000000000000e+03,	 3.4760788074254771e+02,	 4.9941330337264445e+00 
-4.3993250000000000e-01,	 1.5710879999999999e-01,	 1.1586407740522199e-02,	 1.7360000000000000e+03,	 7.2213948724901614e-14,	 3.0000000000000000e+02,	 1.0000000000000000e+03,	 3.4760788074254771e+02,	 4.9941330337264445e+00 
-4.3492690000000001e-01,	 1.5710879999999999e-01,	 1.1586407740522199e-02,	 1.7360000000000000e+03,	 3.3097323485197118e-15,	 3.0000000000000000e+02,	 1.0000000000000000e+03,	 3.4760788074254771e+02,	 4.9941330337264445e+00 
-4.2992120000000000e-01,	 1.5710879999999999e-01,	 1.1586407740522199e-02,	 1.7360000000000000e+03,	 -3.9515440101577307e-15,	 3.0000000000000000e+02,	 1.0000000000000000e+03,	 3.4760788074254771e+02,	 4.9941330337264445e+00 
-4.2491560000000000e-01,	 1.5710879999999999e-01,	 1.1586407740522199e-02,	 1.7360000000000000e+03,	 -9.7269117989573852e-15,	 3.0000000000000000e+02,	 1.0000000000000000e+03,	 3.4760788074254771e+02,	 4.9941330337264445e+00 
-4.1991000000000001e-01,	 1.5710879999999999e-01,	 1.1586407740522199e-02,	 1.7360000000000000e+03,	 3.5397036542117870e-14,	 3.0000000000000000e+02,	 1.0000000000000000e+03,	 3.4760788074254771e+02,	 4.9941330337264445e+00 
-4.1490430000000000e-01,	 1.5710879999999999e-01,	 1.1586407740522199e-02,	 1.7360000000000000e+03,	 7.4044856908639515e-14,	 3.0000000000000000e+02,	 1.0000000000000000e+03,	 3.4760788074254771e+02,	 4.9941330337264445e+00 
-4.0989870000000000e-01,	 1.5710879999999999e-01,	 1.1586407740522199e-02,	 1.7360000000000000e+03,	 1.4284862892144601e-14,	 3.0000000000000000e+02,	 1.0000000000000000e+03,	 3.4760788074254771e+02,	 4.9941330337264445e+00 
-4.0489310000000001e-01,	 1.5710879999999999e-01,	 1.1586407740522199e-02,	 1.7360000000000000e+03,	 -4.7251402553900124e-14,	 3.0000000000000000e+02,	 1.0000000000000000e+03,	 3.4760788074254771e+02,	 4.9941330337264445e+00 
-3.9988750000000001e-01,	 1.5710879999999999e-01,	 1.1586407740522199e-02,	 1.7360000000000000e+03,	 -4.7221472089563783e-14,	 3.0000000000000000e+02,	 1.0000000000000000e+03,	 3.4760788074254771e+02,	 4.9941330337264445e+00 
-3.9488180000000001e-01,	 1.5710879999999999e-01,	 1.1586407740522199e-02,	 1.7360000000000000e+03,	 9.0064720556086940e-15,	 3.0000000000000000e+02,	 1.0000000000000000e+03,	 3.4760788074254771e+02,	 4.9941330337264445e+00 
-3.8987620000000001e-01,	 1.5710879999999999e-01,	 1.1586407740522199e-02,	 1.7360000000000000e+03,	 5.5236800989006045e-14,	 3.0000000000000000e+02,	 1.0000000000000000e+03,	 3.4760788074254771e+02,	 4.9941330337264445e+00 
-3.8487060000000001e-01,	 1.5710879999999999e-01,	 1.1586407740522199e-02,	 1.7360000000000000e+03,	 -1.6538241669904331e-14,	 3.0000000000000000e+02,	 1.0000000000000000e+03,	 3.4760788074254771e+02,	 4.9941330337264445e+00 
-3.7986500000000001e-01,	 1.5710879999999999e-01,	 1.1586407740522199e-02,	 1.7360000000000000e+03,	 -1.9075603089202964e-14,	 3.0000000000000000e+02,	 1.0000000000000000e+03,	 3.4760788074254771e+02,	 4.9941330337264445e+00 
-3.7485930000000001e-01,	 1.5710879999999999e-01,	 1.1586407740522199e-02,	 1.7360000000000000e+03,	 -3.3807250916989384e-14,	 3.0000000000000000e+02,	 1.0000000000000000e+03,	 3.4760788074254771e+02,	 4.9941330337264445e+00 
-3.6985370000000001e-01,	 1.5710879999999999e-01,	 1.1586407740522199e-02,	 1.7360000000000000e+03,	 -3.2335874646398232e-14,	 3.0000000000000000e+02,	 1.0000000000000000e+03,	 3.4760788074254771e+02,	 4.9941330337264445e+00 
-3.6484810000000001e-01,	 1.5710879999999999e-01,	 1.1586407740522199e-02,	 1.7360000000000000e+03,	 1.7754973406896690e-14,	 3.0000000000000000e+02,	 1.0000000000000000e+03,	 3.4760788074254771e+02,	 4.9941330337264445e+00 
-3.5984250000000001e-01,	 1.5710879999999999e-01,	 1.1586407740522199e-02,	 1.7360000000000000e+03,	 -4.3418676866988646e-14,	 3.0000000000000000e+02,	 1.0000000000000000e+03,	 3.4760788074254771e+02,	 4.9941330337264445e+00 
-3.5483680000000001e-01,	 1.5710879999999999e-01,	 1.1586407740522199e-02,	 1.7360000000000000e+03,	 -9.3592425324315303e-14,	 3.0000000000000000e+02,	 1.0000000000000000e+03,	 3.4760788074254771e+02,	 4.9941330337264445e+00 
-3.4983120000000001e-01,	 1.5710879999999999e-01,	 1.1586407740522199e-02,	 1.7360000000000000e+03,	 -4.9930174427889958e-14,	 3.0000000000000000e+02,	 1.0000000000000000e+03,	 3.4760788074254771e+02,	 4.9941330337264445e+00 
-3.4482560000000001e-01,	 1.5710879999999999e-01,	 1.1586407740522199e-02,	 1.7360000000000000e+03,	 -5.6653562439493955e-14,	 3.0000000000000000e+02,	 1.0000000000000000e+03,	 3.4760788074254771e+02,	 4.9941330337264445e+00 
-3.3981990000000001e-01,	 1.5710879999999999e-01,	 1.1586407740522199e-02,	 1.7360000000000000e+03,	 -1.0146572372440755e-13,	 3.0000000000000000e+02,	 1.0000000000000000e+03,	 3.4760788074254771e+02,	 4.9941330337264445e+00 
-3.3481430000000001e-01,	 1.5710879999999999e-01,	 1.1586407740522199e-02,	 1.7360000000000000e+03,	 -6.6487190321412039e-14,	 3.0000000000000000e+02,	 1.0000000000000000e+03,	 3.4760788074254771e+02,	 4.9941330337264445e+00 
-3.2980870000000001e-01,	 1.5710879999999999e-01,	 1.1586407740522199e-02,	 1.7360000000000000e+03,	 -3.7666869516952360e-14,	 3.0000000000000000e+02,	 1.0000000000000000e+03,	 3.4760788074254771e+02,	 4.9941330337264445e+00 
-3.2480310000000001e-01,	 1.5710879999999999e-01,	 1.1586407740522199e-02,	 1.7360000000000000e+03,	 -7.6202739009019317e-14,	 3.0000000000000000e+02,	 1.0000000000000000e+03,	 3.4760788074254771e+02,	 4.9941330337264445e+00 
-3.1979740000000001e-01,	 1.5710879999999999e-01,	 1.1586407740522199e-02,	 1.7360000000000000e+03,	 -7.8280621774913293e-14,	 3.0000000000000000e+02,	 1.0000000000000000e+03,	 3.4760788074254771e+02,	 4.9941330337264445e+00 
-3.1479180000000001e-01,	 1.5710879999999999e-01,	 1.1586407740522199e-02,	 1.7360000000000000e+03,	 -7.9598991708728157e-14,	 3.0000000000000000e+02,	 1.0000000000000000e+03,	 3.4760788074254771e+02,	 4.9941330337264445e+00 
-3.0978620000000001e-01,	 1.5710879999999999e-01,	 1.1586407740522199e-02,	 1.7360000000000000e+03,	 -1.0488489669819189e-13,	 3.0000000000000000e+02,	 1.0000000000000000e+03,	 3.4760788074254771e+02,	 4.9941330337264445e+00 
-3.0478060000000001e-01,	 1.5710879999999999e-01,	 1.1586407740522199e-02,	 1.7360000000000000e+03,	 -1.0725774382008546e-13,	 3.0000000000000000e+02,	 1.0000000000000000e+03,	 3.4760788074254771e+02,	 4.9941330337264445e+00 
-2.9977490000000001e-01,	 1.5710879999999999e-01,	 1.1586407740522199e-02,	 1.7360000000000000e+03,	 -8.2360390141058182e-14,	 3.0000000000000000e+02,	 1.0000000000000000e+03,	 3.4760788074254771e+02,	 4.9941330337264445e+00 
-2.9476930000000001e-01,	 1.5710879999999999e-01,	 1.1586407740522199e-02,	 1.7360000000000000e+03,	 -8.7445268696095169e-14,	 3.0000000000000000e+02,	 1.0000000000000000e+03,	 3.4760788074254771e+02,	 4.9941330337264445e+00 
-2.8976370000000001e-01,	 1.5710879999999999e-01,	 1.1586407740522199e-02,	 1.7360000000000000e+03,	 -9.2806334076827872e-14,	 3.0000000000000000e+02,	 1.0000000000000000e+03,	 3.4760788074254771e+02,	 4.9941330337264445e+00 
-2.8475810000000001e-01,	 1.5710879999999999e-01,	 1.1586407740522199e-02,	 1.7360000000000000e+03,	 -1.0684263924894451e-13,	 3.0000000000000000e+02,	 1.0000000000000000e+03,	 3.4760788074254771e+02,	 4.9941330337264445e+00 
-2.7975240000000001e-01,	 1.5710879999999999e-01,	 1.1586407740522199e-02,	 1.7360000000000000e+03,	 -8.8006045472771731e-14,	 3.0000000000000000e+02,	 1.0000000000000000e+03,	 3.4760788074254771e+02,	 4.9941330337264445e+00 
-2.7474680000000001e-01,	 1.5710879999999999e-01,	 1.1586407740522199e-02,	 1.7360000000000000e+03,	 -5.0513613788524021e-14,	 3.0000000000000000e+02,	 1.0000000000000000e+03,	 3.4760788074254771e+02,	 4.9941330337264445e+00 
-2.6974120000000001e-01,	 1.5710879999999999e-01,	 1.1586407740522199e-02,	 1.7360000000000000e+03,	 -1.0913375937913670e-13,	 3.0000000000000000e+02,	 1.0000000000000000e+03,	 3.4760788074254771e+02,	 4.9941330337264445e+00 
-2.6473550000000001e-01,	 1.5710879999999999e-01,	 1.1586407740522199e-02,	 1.7360000000000000e+03,	 -3.6673361802505988e-14,	 3.0000000000000000e+02,	 1.0000000000000000e+03,	 3.4760788074254771e+02,	 4.9941330337264445e+00 
-2.5972990000000001e-01,	 1.5710879999999999e-01,	 1.1586407740522199e-02,	 1.7360000000000000e+03,	 -1.1973393095316798e-13,	 3.0000000000000000e+02,	 1.0000000000000000e+03,	 3.4760788074254771e+02,	 4.9941330337264445e+00 
-2.5472430000000001e-01,	 1.5710879999999999e-01,	 1.1586407740522199e-02,	 1.7360000000000000e+03,	 -4.3320148268096703e-13,	 3.0000000000000000e+02,	 1.0000000000000000e+03,	 3.4760788074254771e+02,	 4.9941330337264445e+00 
-2.4971869999999999e-01,	 1.5710879999999999e-01,	 1.1586407740522199e-02,	 1.7360000000000000e+03,	 4.5846064256712987e-14,	 3.0000000000000000e+02,	 1.0000000000000000e+03,	 3.4760788074254771e+02,	 4.9941330337264445e+00 
-2.4471300000000001e-01,	 1.5710879999999999e-01,	 1.1586407740522199e-02,	 1.7360000000000000e+03,	 9.1820907045204028e-13,	 3.0000000000000000e+02,	 1.0000000000000000e+03,	 3.4760788074254771e+02,	 4.9941330337264445e+00 
-2.3970739999999999e-01,	 1.5710879999999999e-01,	 1.1586407740522199e-02,	 1.7360000000000000e+03,	 1.6091846892940963e-12,	 3.0000000000000000e+02,	 1.0000000000000000e+03,	 3.4760788074254771e+02,	 4.9941330337264445e+00 
-2.3470179999999999e-01,	 1.5710879999999999e-01,	 1.1586407740522197e-02,	 1.7360000000000000e+03,	 1.8010051922583440e-12,	 3.0000000000000000e+02,	 9.9999999999999989e+02,	 3.4760788074254771e+02,	 4.9941330337264445e+00 
-2.2969619999999999e-01,	 1.5710879999999999e-01,	 1.1586407740522196e-02,	 1.7360000000000000e+03,	 1.3439079563584155e-12,	 3.0000000000000000e+02,	 9.9999999999999977e+02,	 3.4760788074254771e+02,	 4.9941330337264445e+00 
-2.2469049999999999e-01,	 1.5710879999999999e-01,	 1.1586407740522194e-02,	 1.7360000000000000e+03,	 1.0452419548157793e-12,	 3.0000000000000000e+02,	 9.9999999999999966e+02,	 3.4760788074254771e+02,	 4.9941330337264445e+00 
-2.1968489999999999e-01,	 1.5710879999999999e-01,	 1.1586407740522199e-02,	 1.7360000000000000e+03,	 -8.5179350348720923e-14,	 2.9999999999999994e+02,	 9.9999999999999989e+02,	 3.4760788074254765e+02,	 4.9941330337264453e+00 
-2.1467929999999999e-01,	 1.5710879999999999e-01,	 1.1586407740522220e-02,	 1.7360000000000000e+03,	 -1.0415957552286643e-12,	 2.9999999999999989e+02,	 1.0000000000000015e+03,	 3.4760788074254759e+02,	 4.9941330337264462e+00 
-2.0967369999999999e-01,	 1.5710879999999999e-01,	 1.1586407740522239e-02,	 1.7360000000000000e+03,	 -6.1862269896853363e-12,	 2.9999999999999983e+02,	 1.0000000000000030e+03,	 3.4760788074254759e+02,	 4.9941330337264462e+00 
-2.0466799999999999e-01,	 1.5710879999999999e-01,	 1.1586407740522225e-02,	 1.7360000000000000e+03,	 -1.6016144787408040e-11,	 3.0000000000000000e+02,	 1.0000000000000023e+03,	 3.4760788074254771e+02,	 4.9941330337264445e+00 
-1.9966239999999999e-01,	 1.5710879999999999e-01,	 1.1586407740522628e-02,	 1.7360000000000000e+03,	 -1.7389171335579915e-11,	 3.0000000000000068e+02,	 1.0000000000000393e+03,	 3.4760788074254810e+02,	 4.9941330337264391e+00 
-1.9465679999999999e-01,	 1.5710879999999999e-01,	 1.1586407740522612e-02,	 1.7360000000000000e+03,	 -2.4473508527209515e-11,	 3.0000000000000205e+02,	 1.0000000000000425e+03,	 3.4760788074254884e+02,	 4.9941330337264285e+00 
-1.8965109999999999e-01,	 1.5710879999999999e-01,	 1.1586407740523302e-02,	 1.7360000000000000e+03,	 -3.6175588903311244e-11,	 3.0000000000000563e+02,	 1.0000000000001140e+03,	 3.4760788074255095e+02,	 4.9941330337263983e+00 
-1.8464549999999999e-01,	 1.5710879999999999e-01,	 1.1586407740523361e-02,	 1.7360000000000000e+03,	 -5.2068039135708472e-11,	 3.0000000000000921e+02,	 1.0000000000001311e+03,	 3.4760788074255305e+02,	 4.9941330337263681e+00 
-1.7963989999999999e-01,	 1.5710879999999999e-01,	 1.1586407740523809e-02,	 1.7360000000000000e+03,	 -7.2783859412504145e-11,	 3.0000000000001364e+02,	 1.0000000000001845e+03,	 3.4760788074255555e+02,	 4.9941330337263317e+00 
-1.7463429999999999e-01,	 1.5710879999999999e-01,	 1.1586407740525221e-02,	 1.7360000000000000e+03,	 -9.2994538087375918e-11,	 3.0000000000001978e+02,	 1.0000000000003268e+03,	 3.4760788074255913e+02,	 4.9941330337262810e+00 
-1.6962859999999999e-01,	 1.5710879999999999e-01,	 1.1586407740525235e-02,	 1.7360000000000000e+03,	 -1.2444412985235478e-10,	 3.0000000000002831e+02,	 1.0000000000003564e+03,	 3.4760788074256408e+02,	 4.9941330337262100e+00 
-1.6462299999999999e-01,	 1.5710879999999999e-01,	 1.1586407740526685e-02,	 1.7360000000000000e+03,	 -1.5881579121016683e-10,	 3.0000000000003820e+02,	 1.0000000000005145e+03,	 3.4760788074256982e+02,	 4.9941330337261274e+00 
-1.5961739999999999e-01,	 1.5710879999999999e-01,	 1.1586407740528489e-02,	 1.7360000000000000e+03,	 -1.9583969991909765e-10,	 3.0000000000005031e+02,	 1.0000000000007107e+03,	 3.4760788074257681e+02,	 4.9941330337260270e+00 
-1.5461179999999999e-01,	 1.5710879999999999e-01,	 1.1586407740528919e-02,	 1.7360000000000000e+03,	 -2.4727570285233762e-10,	 3.0000000000006537e+02,	 1.0000000000007980e+03,	 3.4760788074258556e+02,	 4.9941330337259009e+00 
-1.4960609999999999e-01,	 1.5710879999999999e-01,	 1.1586407740532141e-02,	 1.7360000000000002e+03,	 -3.0500205117997367e-10,	 3.0000000000008384e+02,	 1.0000000000011377e+03,	 3.4760788074259625e+02,	 4.9941330337257481e+00 
-1.4460049999999999e-01,	 1.5710879999999999e-01,	 1.1586407740534224e-02,	 1.7359999999999991e+03,	 -3.7148082214814574e-10,	 3.0000000000010584e+02,	 1.0000000000013907e+03,	 3.4760788074260898e+02,	 4.9941330337255616e+00 
-1.3959489999999999e-01,	 1.5710879999999999e-01,	 1.1586407740535730e-02,	 1.7359999999999918e+03,	 -4.5502040587881735e-10,	 3.0000000000013301e+02,	 1.0000000000016113e+03,	 3.4760788074262473e+02,	 4.9941330337253147e+00 
-1.3458930000000000e-01,	 1.5710879999999999e-01,	 1.1586407740539643e-02,	 1.7359999999999873e+03,	 -5.5035797977782678e-10,	 3.0000000000016507e+02,	 1.0000000000020559e+03,	 3.4760788074264332e+02,	 4.9941330337250349e+00 
-1.2958359999999999e-01,	 1.5710879999999999e-01,	 1.1586407740543122e-02,	 1.7359999999999768e+03,	 -6.5937394481178277e-10,	 3.0000000000020304e+02,	 1.0000000000024826e+03,	 3.4760788074266532e+02,	 4.9941330337246885e+00 
-1.2457799999999999e-01,	 1.5710879999999999e-01,	 1.1555936475102759e-02,	 1.7359790455129992e+03,	 9.7209538891429859e-01,	 3.0001957525188095e+02,	 9.9743516441613679e+02,	 3.4761922141058920e+02,	 4.9939106089718681e+00 
-1.1957240000000000e-01,	 1.5710879999999999e-01,	 1.1525465209647888e-02,	 1.7359580910260124e+03,	 1.9441907789405239e+00,	 3.0003915050364770e+02,	 9.9486998562053668e+02,	 3.4763056170860074e+02,	 4.9936897699506302e+00 
-5.0000000000000000e-01,	 1.6314759999999998e-01,	 1.1586407740521439e-02,	 1.7359999999999986e+03,	 4.5319510171731377e-13,	 3.0000000000000011e+02,	 9.9999999999993486e+02,	 3.4760788074254776e+02,	 4.9941330337264400e+00 
-4.9501550000000000e-01,	 1.6314759999999998e-01,	 1.1586407740522157e-02,	 1.7360000000000007e+03,	 3.1227781728569777e-13,	 2.9999999999999994e+02,	 9.9999999999999625e+02,	 3.4760788074254765e+02,	 4.9941330337264471e+00 
-4.9003099999999999e-01,	 1.6314759999999998e-01,	 1.1586407740522341e-02,	 1.7360000000000000e+03,	 1.2469537097418342e-13,	 3.0000000000000000e+02,	 1.0000000000000123e+03,	 3.4760788074254771e+02,	 4.9941330337264445e+00 
-4.8504659999999999e-01,	 1.6314759999999998e-01,	 1.1586407740522282e-02,	 1.7360000000000000e+03,	 -1.2030744959701808e-13,	 3.0000000000000000e+02,	 1.0000000000000073e+03,	 3.4760788074254771e+02,	 4.9941330337264445e+00 
-4.8006209999999999e-01,	 1.6314759999999998e-01,	 1.1586407740522253e-02,	 1.7360000000000000e+03,	 -1.3278285152927802e-13,	 3.0000000000000000e+02,	 1.0000000000000047e+03,	 3.4760788074254771e+02,	 4.9941330337264445e+00 
-4.7507759999999999e-01,	 1.6314759999999998e-01,	 1.1586407740522225e-02,	 1.7360000000000000e+03,	 5.7196789588351827e-14,	 3.0000000000000000e+02,	 1.0000000000000023e+03,	 3.4760788074254771e+02,	 4.9941330337264445e+00 
-4.7009309999999999e-01,	 1.6314759999999998e-01,	 1.1586407740522196e-02,	 1.7360000000000000e+03,	 4.3415891403394356e-14,	 3.0000000000000000e+02,	 9.9999999999999977e+02,	 3.4760788074254771e+02,	 4.9941330337264445e+00 
-4.6510869999999999e-01,	 1.6314759999999998e-01,	 1.1586407740522199e-02,	 1.7360000000000000e+03,	 4.6515121141464459e-14,	 3.0000000000000000e+02,	 1.0000000000000000e+03,	 3.4760788074254771e+02,	 4.9941330337264445e+00 
-4.6012419999999998e-01,	 1.6314759999999998e-01,	 1.1586407740522199e-02,	 1.7360000000000000e+03,	 2.1250115464723540e-14,	 3.0000000000000000e+02,	 1.0000000000000000e+03,	 3.4760788074254771e+02,	 4.9941330337264445e+00 
-4.5513969999999998e-01,	 1.6314759999999998e-01,	 1.1586407740522199e-02,	 1.7360000000000000e+03,	 1.8312008092965318e-14,	 3.0000000000000000e+02,	 1.0000000000000000e+03,	 3.4760788074254771e+02,	 4.9941330337264445e+00 
-4.5015519999999998e-01,	 1.6314759999999998e-01,	 1.1586407740522199e-02,	 1.7360000000000000e+03,	 6.2917032922160327e-14,	 3.0000000000000000e+02,	 1.0000000000000000e+03,	 3.4760788074254771e+02,	 4.9941330337264445e+00 
-4.4517079999999998e-01,	 1.6314759999999998e-01,	 1.1586407740522199e-02,	 1.7360000000000000e+03,	 1.3475662838237307e-14,	 3.0000000000000000e+02,	 1.0000000000000000e+03,	 3.4760788074254771e+02,	 4.9941330337264445e+00 
-4.4018629999999997e-01,	 1.6314759999999998e-01,	 1.1586407740522199e-02,	 1.7360000000000000e+03,	 -1.7846843034895323e-14,	 3.0000000000000000e+02,	 1.0000000000000000e+03,	 3.4760788074254771e+02,	 4.9941330337264445e+00 
-4.3520180000000003e-01,	 1.6314759999999998e-01,	 1.1586407740522199e-02,	 1.7360000000000000e+03,	 3.4482512522254631e-14,	 3.0000000000000000e+02,	 1.0000000000000000e+03,	 3.4760788074254771e+02,	 4.9941330337264445e+00 
-4.3021730000000002e-01,	 1.6314759999999998e-01,	 1.1586407740522199e-02,	 1.7360000000000000e+03,	 2.1965043921354458e-14,	 3.0000000000000000e+02,	 1.0000000000000000e+03,	 3.4760788074254771e+02,	 4.9941330337264445e+00 
-4.2523290000000002e-01,	 1.6314759999999998e-01,	 1.1586407740522199e-02,	 1.7360000000000000e+03,	 -2.4519379098634811e-14,	 3.0000000000000000e+02,	 1.0000000000000000e+03,	 3.4760788074254771e+02,	 4.9941330337264445e+00 
-4.2024840000000002e-01,	 1.6314759999999998e-01,	 1.1586407740522199e-02,	 1.7360000000000000e+03,	 -1.5896564025691260e-14,	 3.0000000000000000e+02,	 1.0000000000000000e+03,	 3.4760788074254771e+02,	 4.9941330337264445e+00 
-4.1526390000000002e-01,	 1.6314759999999998e-01,	 1.1586407740522199e-02,	 1.7360000000000000e+03,	 -6.7998668650487711e-14,	 3.0000000000000000e+02,	 1.0000000000000000e+03,	 3.4760788074254771e+02,	 4.9941330337264445e+00 
-4.1027940000000002e-01,	 1.6314759999999998e-01,	 1.1586407740522199e-02,	 1.7360000000000000e+03,	 -4.2275497895557890e-14,	 3.0000000000000000e+02,	 1.0000000000000000e+03,	 3.4760788074254771e+02,	 4.9941330337264445e+00 
-4.0529500000000002e-01,	 1.6314759999999998e-01,	 1.1586407740522199e-02,	 1.7360000000000000e+03,	 -1.6320883604717075e-14,	 3.0000000000000000e+02,	 1.0000000000000000e+03,	 3.4760788074254771e+02,	 4.9941330337264445e+00 
-4.0031050000000001e-01,	 1.6314759999999998e-01,	 1.1586407740522199e-02,	 1.7360000000000000e+03,	 -1.8557557948778305e-14,	 3.0000000000000000e+02,	 1.0000000000000000e+03,	 3.4760788074254771e+02,	 4.9941330337264445e+00 
-3.9532600000000001e-01,	 1.6314759999999998e-01,	 1.1586407740522199e-02,	 1.7360000000000000e+03,	 -5.6705447731937742e-14,	 3.0000000000000000e+02,	 1.0000000000000000e+03,	 3.4760788074254771e+02,	 4.9941330337264445e+00 
-3.9034150000000001e-01,	 1.6314759999999998e-01,	 1.1586407740522199e-02,	 1.7360000000000000e+03,	 -1.1840478856635048e-13,	 3.0000000000000000e+02,	 1.0000000000000000e+03,	 3.4760788074254771e+02,	 4.9941330337264445e+00 
-3.8535710000000001e-01,	 1.6314759999999998e-01,	 1.1586407740522199e-02,	 1.7360000000000000e+03,	 -9.7835587387500173e-14,	 3.0000000000000000e+02,	 1.0000000000000000e+03,	 3.4760788074254771e+02,	 4.9941330337264445e+00 
-3.8037260000000001e-01,	 1.6314759999999998e-01,	 1.1586407740522199e-02,	 1.7360000000000000e+03,	 -6.7921365388116299e-14,	 3.0000000000000000e+02,	 1.0000000000000000e+03,	 3.4760788074254771e+02,	 4.9941330337264445e+00 
-3.7538810000000000e-01,	 1.6314759999999998e-01,	 1.1586407740522199e-02,	 1.7360000000000000e+03,	 -8.1319342503519445e-14,	 3.0000000000000000e+02,	 1.0000000000000000e+03,	 3.4760788074254771e+02,	 4.9941330337264445e+00 
-3.7040360000000000e-01,	 1.6314759999999998e-01,	 1.1586407740522199e-02,	 1.7360000000000000e+03,	 -8.5826028762127880e-14,	 3.0000000000000000e+02,	 1.0000000000000000e+03,	 3.4760788074254771e+02,	 4.9941330337264445e+00 
-3.6541920000000000e-01,	 1.6314759999999998e-01,	 1.1586407740522199e-02,	 1.7360000000000000e+03,	 -1.1206433428947634e-13,	 3.0000000000000000e+02,	 1.0000000000000000e+03,	 3.4760788074254771e+02,	 4.9941330337264445e+00 
-3.6043470000000000e-01,	 1.6314759999999998e-01,	 1.1586407740522199e-02,	 1.7360000000000000e+03,	 -9.3705706279509943e-14,	 3.0000000000000000e+02,	 1.0000000000000000e+03,	 3.4760788074254771e+02,	 4.9941330337264445e+00 
-3.5545019999999999e-01,	 1.6314759999999998e-01,	 1.1586407740522199e-02,	 1.7360000000000000e+03,	 -6.8965484577010871e-14,	 3.0000000000000000e+02,	 1.0000000000000000e+03,	 3.4760788074254771e+02,	 4.9941330337264445e+00 
-3.5046569999999999e-01,	 1.6314759999999998e-01,	 1.1586407740522199e-02,	 1.7360000000000000e+03,	 -1.1057569574407686e-13,	 3.0000000000000000e+02,	 1.0000000000000000e+03,	 3.4760788074254771e+02,	 4.9941330337264445e+00 
-3.4548129999999999e-01,	 1.6314759999999998e-01,	 1.1586407740522199e-02,	 1.7360000000000000e+03,	 -1.0035202278541849e-13,	 3.0000000000000000e+02,	 1.0000000000000000e+03,	 3.4760788074254771e+02,	 4.9941330337264445e+00 
-3.4049679999999999e-01,	 1.6314759999999998e-01,	 1.1586407740522199e-02,	 1.7360000000000000e+03,	 -8.1138277104091657e-14,	 3.0000000000000000e+02,	 1.0000000000000000e+03,	 3.4760788074254771e+02,	 4.9941330337264445e+00 
-3.3551229999999999e-01,	 1.6314759999999998e-01,	 1.1586407740522199e-02,	 1.7360000000000000e+03,	 -1.1469539572390924e-13,	 3.0000000000000000e+02,	 1.0000000000000000e+03,	 3.4760788074254771e+02,	 4.9941330337264445e+00 
-3.3052779999999998e-01,	 1.6314759999999998e-01,	 1.1586407740522199e-02,	 1.7360000000000000e+03,	 -1.2152076607058732e-13,	 3.0000000000000000e+02,	 1.0000000000000000e+03,	 3.4760788074254771e+02,	 4.9941330337264445e+00 
-3.2554339999999998e-01,	 1.6314759999999998e-01,	 1.1586407740522199e-02,	 1.7360000000000000e+03,	 -1.0064046047269674e-13,	 3.0000000000000000e+02,	 1.0000000000000000e+03,	 3.4760788074254771e+02,	 4.9941330337264445e+00 
-3.2055889999999998e-01,	 1.6314759999999998e-01,	 1.1586407740522199e-02,	 1.7360000000000000e+03,	 -1.0631839071644400e-13,	 3.0000000000000000e+02,	 1.0000000000000000e+03,	 3.4760788074254771e+02,	 4.9941330337264445e+00 
-3.1557439999999998e-01,	 1.6314759999999998e-01,	 1.1586407740522199e-02,	 1.7360000000000000e+03,	 -1.0747792680346288e-13,	 3.0000000000000000e+02,	 1.0000000000000000e+03,	 3.4760788074254771e+02,	 4.9941330337264445e+00 
-3.1058989999999997e-01,	 1.6314759999999998e-01,	 1.1586407740522199e-02,	 1.7360000000000000e+03,	 -9.5158693011364921e-14,	 3.0000000000000000e+02,	 1.0000000000000000e+03,	 3.4760788074254771e+02,	 4.9941330337264445e+00 
-3.0560549999999997e-01,	 1.6314759999999998e-01,	 1.1586407740522199e-02,	 1.7360000000000000e+03,	 -9.7269209058578156e-14,	 3.0000000000000000e+02,	 1.0000000000000000e+03,	 3.4760788074254771e+02,	 4.9941330337264445e+00 
-3.0062100000000003e-01,	 1.6314759999999998e-01,	 1.1586407740522199e-02,	 1.7360000000000000e+03,	 -9.6913310752536181e-14,	 3.0000000000000000e+02,	 1.0000000000000000e+03,	 3.4760788074254771e+02,	 4.9941330337264445e+00 
-2.9563650000000002e-01,	 1.6314759999999998e-01,	 1.1586407740522199e-02,	 1.7360000000000000e+03,	 -1.1354065329829227e-13,	 3.0000000000000000e+02,	 1.0000000000000000e+03,	 3.4760788074254771e+02,	 4.9941330337264445e+00 
-2.9065200000000002e-01,	 1.6314759999999998e-01,	 1.1586407740522199e-02,	 1.7360000000000000e+03,	 -9.7025224122596324e-14,	 3.0000000000000000e+02,	 1.0000000000000000e+03,	 3.4760788074254771e+02,	 4.9941330337264445e+00 
-2.8566760000000002e-01,	 1.6314759999999998e-01,	 1.1586407740522199e-02,	 1.7360000000000000e+03,	 -6.1475330781957857e-14,	 3.0000000000000000e+02,	 1.0000000000000000e+03,	 3.4760788074254771e+02,	 4.9941330337264445e+00 
-2.8068310000000002e-01,	 1.6314759999999998e-01,	 1.1586407740522199e-02,	 1.7360000000000000e+03,	 -1.2238479693158424e-13,	 3.0000000000000000e+02,	 1.0000000000000000e+03,	 3.4760788074254771e+02,	 4.9941330337264445e+00 
-2.7569860000000002e-01,	 1.6314759999999998e-01,	 1.1586407740522199e-02,	 1.7360000000000000e+03,	 -1.2255794118208608e-13,	 3.0000000000000000e+02,	 1.0000000000000000e+03,	 3.4760788074254771e+02,	 4.9941330337264445e+00 
-2.7071410000000001e-01,	 1.6314759999999998e-01,	 1.1586407740522199e-02,	 1.7360000000000000e+03,	 -4.0294907763247454e-14,	 3.0000000000000000e+02,	 1.0000000000000000e+03,	 3.4760788074254771e+02,	 4.9941330337264445e+00 
-2.6572960000000001e-01,	 1.6314759999999998e-01,	 1.1586407740522199e-02,	 1.7360000000000000e+03,	 6.4832004509534099e-14,	 3.0000000000000000e+02,	 1.0000000000000000e+03,	 3.4760788074254771e+02,	 4.9941330337264445e+00 
-2.6074520000000001e-01,	 1.6314759999999998e-01,	 1.1586407740522199e-02,	 1.7360000000000000e+03,	 -3.4730607138427668e-13,	 3.0000000000000000e+02,	 1.0000000000000000e+03,	 3.4760788074254771e+02,	 4.9941330337264445e+00 
-2.5576070000000001e-01,	 1.6314759999999998e-01,	 1.1586407740522199e-02,	 1.7360000000000000e+03,	 -1.7146049765009740e-14,	 3.0000000000000000e+02,	 1.0000000000000000e+03,	 3.4760788074254771e+02,	 4.9941330337264445e+00 
-2.5077620000000000e-01,	 1.6314759999999998e-01,	 1.1586407740522199e-02,	 1.7360000000000000e+03,	 6.6412806048266341e-13,	 3.0000000000000000e+02,	 1.0000000000000000e+03,	 3.4760788074254771e+02,	 4.9941330337264445e+00 
-2.4579170000000000e-01,	 1.6314759999999998e-01,	 1.1586407740522196e-02,	 1.7360000000000000e+03,	 -5.1914684604261130e-13,	 3.0000000000000000e+02,	 9.9999999999999977e+02,	 3.4760788074254771e+02,	 4.9941330337264445e+00 
-2.4080730000000000e-01,	 1.6314759999999998e-01,	 1.1586407740522194e-02,	 1.7360000000000000e+03,	 -2.2447258219495912e-12,	 3.0000000000000000e+02,	 9.9999999999999966e+02,	 3.4760788074254771e+02,	 4.9941330337264445e+00 
-2.3582280000000000e-01,	 1.6314759999999998e-01,	 1.1586407740522204e-02,	 1.7360000000000000e+03,	 -3.5437762920800441e-12,	 2.9999999999999994e+02,	 1.0000000000000003e+03,	 3.4760788074254765e+02,	 4.9941330337264453e+00 
-2.3083830000000000e-01,	 1.6314759999999998e-01,	 1.1586407740522227e-02,	 1.7360000000000000e+03,	 -4.3936000954197485e-12,	 2.9999999999999989e+02,	 1.0000000000000020e+03,	 3.4760788074254759e+02,	 4.9941330337264462e+00 