TITLE = "Final State"
VARIABLES = "X", "Y", "rho", "u", "v", "T", "p", "c", "M"
ZONE I=82, J=25, DATAPACKING=POINT, STRANDID=15000, SOLUTIONTIME=0.000362
8.4940000000000004e-01,	 2.6635680000000000e-01,	 2.7506517183661837e-02,	 1.6226214620704670e+03,	 3.7418326062567809e+02,	 4.5957931743400439e+02,	 3.6368552633277955e+03,	 4.3023845416008561e+02,	 3.8704275137116508e+00 
8.5141040000000001e-01,	 2.6661879999999999e-01,	 2.7570895728265050e-02,	 1.6226730422164023e+03,	 3.7490189826019366e+02,	 4.5934209448388344e+02,	 3.6434856181596901e+03,	 4.3012740084961627e+02,	 3.8719194204937417e+00 
8.5342070000000003e-01,	 2.6688079999999997e-01,	 2.7575140215261508e-02,	 1.6231219163646076e+03,	 3.7478330155013612e+02,	 4.5864425129848246e+02,	 3.6385104056733526e+03,	 4.2980054688946780e+02,	 3.8758194204004099e+00 
8.5538060000000005e-01,	 2.6713609999999999e-01,	 2.7553842463149118e-02,	 1.6236589895322118e+03,	 3.7451626179822563e+02,	 4.5804390159257207e+02,	 3.6309411822118063e+03,	 4.2951915763752510e+02,	 3.8794371452649514e+00 
8.5734049999999995e-01,	 2.6739140000000000e-01,	 2.7532416270901378e-02,	 1.6240644232269926e+03,	 3.7440275667627429e+02,	 4.5760577804196959e+02,	 3.6246473888990931e+03,	 4.2931368881797061e+02,	 3.8821546557612008e+00 
8.5925130000000005e-01,	 2.6764019999999999e-01,	 2.7517681796021966e-02,	 1.6243228271789972e+03,	 3.7450977152159385e+02,	 4.5735528853536590e+02,	 3.6207245534288413e+03,	 4.2919617140483331e+02,	 3.8838603115971591e+00 
8.6116210000000004e-01,	 2.6788899999999999e-01,	 2.7510582289152478e-02,	 1.6244574971003672e+03,	 3.7479553666177003e+02,	 4.5727147624560655e+02,	 3.6191270718419760e+03,	 4.2915684359674242e+02,	 3.8846716511812676e+00 
8.6302509999999999e-01,	 2.6813139999999996e-01,	 2.7505876764426243e-02,	 1.6245035800539249e+03,	 3.7515649769946413e+02,	 4.5731266776783855e+02,	 3.6188340004757574e+03,	 4.2917617262391258e+02,	 3.8847904847854311e+00 
8.6488799999999999e-01,	 2.6837390000000000e-01,	 2.7502869576358242e-02,	 1.6244788886629444e+03,	 3.7555418709735648e+02,	 4.5744836106599405e+02,	 3.6195120161692257e+03,	 4.2923984023596842e+02,	 3.8843668019003981e+00 
8.6670449999999999e-01,	 2.6861019999999997e-01,	 2.7499812114958871e-02,	 1.6244024415995316e+03,	 3.7598122426216150e+02,	 4.5765920961238783e+02,	 3.6207777707795435e+03,	 4.2933875213243221e+02,	 3.8835225990690176e+00 
8.6852099999999999e-01,	 2.6884649999999999e-01,	 2.7497595312825689e-02,	 1.6243189820873745e+03,	 3.7643467993359354e+02,	 4.5792713955976660e+02,	 3.6226054552800210e+03,	 4.2946440881727472e+02,	 3.8824352351255014e+00 
8.7029219999999996e-01,	 2.6907680000000000e-01,	 2.7495900318718951e-02,	 1.6242093027156982e+03,	 3.7690607498069630e+02,	 4.5823599845573602e+02,	 3.6248253465486118e+03,	 4.2960921519923841e+02,	 3.8811257802450676e+00 
8.7206329999999999e-01,	 2.6930709999999997e-01,	 2.7494548787125483e-02,	 1.6240298786112426e+03,	 3.7737818225131184e+02,	 4.5852271150752404e+02,	 3.6269150726379471e+03,	 4.2974359498211732e+02,	 3.8797539612196101e+00 
8.7379050000000003e-01,	 2.6953159999999998e-01,	 2.7491459612785620e-02,	 1.6238383509523810e+03,	 3.7781506011156142e+02,	 4.5884293260475181e+02,	 3.6290402319718823e+03,	 4.2989363002297648e+02,	 3.8781961179374993e+00 
8.7551760000000001e-01,	 2.6975610000000000e-01,	 2.7487226450116004e-02,	 1.6236611332262228e+03,	 3.7824580236352335e+02,	 4.5923819632490125e+02,	 3.6316071324324794e+03,	 4.3007875304119142e+02,	 3.8763525609720286e+00 
8.7720189999999998e-01,	 2.6997489999999996e-01,	 2.7482459726238605e-02,	 1.6234828963406458e+03,	 3.7867882326004155e+02,	 4.5961157332118563e+02,	 3.6339294675824335e+03,	 4.3025355218453552e+02,	 3.8746027495814159e+00 
8.7888619999999995e-01,	 2.7019369999999998e-01,	 2.7478227142635883e-02,	 1.6233022123911273e+03,	 3.7911773177398828e+02,	 4.5997530055302832e+02,	 3.6362451795977358e+03,	 4.3042376546149444e+02,	 3.8728934942947397e+00 
8.8052880000000000e-01,	 2.7040700000000001e-01,	 2.7474376358725981e-02,	 1.6231219063954813e+03,	 3.7955420218646105e+02,	 4.6033356598824423e+02,	 3.6385673989021402e+03,	 4.3059135700628997e+02,	 3.8712090319429655e+00 
8.8217140000000005e-01,	 2.7062029999999998e-01,	 2.7471305649613097e-02,	 1.6229449998940975e+03,	 3.7998816053984740e+02,	 4.6068588088706622e+02,	 3.6409451850056216e+03,	 4.3075610138534984e+02,	 3.8695581138459949e+00 
8.8377340000000004e-01,	 2.7082819999999996e-01,	 2.7467702603670412e-02,	 1.6227738126014171e+03,	 3.8041395316648288e+02,	 4.6102785492571019e+02,	 3.6431700243664932e+03,	 4.3091595008355137e+02,	 3.8679612969203796e+00 
8.8537540000000003e-01,	 2.7103610000000000e-01,	 2.7464658128864977e-02,	 1.6226095742909597e+03,	 3.8083434380796848e+02,	 4.6135958758271545e+02,	 3.6453873743563868e+03,	 4.3107095502095757e+02,	 3.8664222257150822e+00 
8.8693800000000000e-01,	 2.7123890000000000e-01,	 2.7461812905635426e-02,	 1.6224531553070524e+03,	 3.8124613756368183e+02,	 4.6167759219947078e+02,	 3.6475221494131820e+03,	 4.3121949310676365e+02,	 3.8649555908203284e+00 
8.8850059999999997e-01,	 2.7144160000000001e-01,	 2.7458827453774523e-02,	 1.6223025704353354e+03,	 3.8165184767123958e+02,	 4.6198616391793297e+02,	 3.6495632483475206e+03,	 4.3136357624615840e+02,	 3.8635400674202138e+00 
8.9002470000000000e-01,	 2.7163919999999997e-01,	 2.7456281413546148e-02,	 1.6221596526902235e+03,	 3.8204845673672924e+02,	 4.6228178829039950e+02,	 3.6515599876188830e+03,	 4.3150156868271716e+02,	 3.8621927201978350e+00 
8.9154889999999998e-01,	 2.7183689999999999e-01,	 2.7454574023063831e-02,	 1.6220249018310019e+03,	 3.8243944849480698e+02,	 4.6256571560340376e+02,	 3.6535755124946586e+03,	 4.3163405959848359e+02,	 3.8609111171658821e+00 
8.9303569999999999e-01,	 2.7202959999999998e-01,	 2.7452307365264973e-02,	 1.6218957123593823e+03,	 3.8282466414646046e+02,	 4.6283731100608600e+02,	 3.6554188915154800e+03,	 4.3176075794582607e+02,	 3.8596917803440647e+00 
8.9452259999999995e-01,	 2.7222229999999997e-01,	 2.7450894864824507e-02,	 1.6217736967563646e+03,	 3.8320465838556436e+02,	 4.6309809031936368e+02,	 3.6572902991601741e+03,	 4.3188237564585069e+02,	 3.8585321626883338e+00 
8.9597309999999997e-01,	 2.7241029999999999e-01,	 2.7449747515995340e-02,	 1.6216589658903356e+03,	 3.8357661464175226e+02,	 4.6334642501721106e+02,	 3.6590985644552843e+03,	 4.3199815781712806e+02,	 3.8574376512364710e+00 
8.9742359999999999e-01,	 2.7259820000000001e-01,	 2.7448593564517315e-02,	 1.6215491644873578e+03,	 3.8394481069114670e+02,	 4.6358551783025700e+02,	 3.6608328040610099e+03,	 4.3210960179100891e+02,	 3.8563917478151875e+00 
8.9883880000000005e-01,	 2.7278150000000001e-01,	 2.7447644664731582e-02,	 1.6214462077384123e+03,	 3.8430653313885779e+02,	 4.6381330039307545e+02,	 3.6625049353999284e+03,	 4.3221574719587778e+02,	 3.8554058060662295e+00 
9.0025409999999995e-01,	 2.7296470000000000e-01,	 2.7447038643644672e-02,	 1.6213470355317454e+03,	 3.8466461779918973e+02,	 4.6403277730111597e+02,	 3.6641571330049615e+03,	 4.3231799755852472e+02,	 3.8544618466380545e+00 
9.0163490000000002e-01,	 2.7314349999999998e-01,	 2.7447243224386408e-02,	 1.6212548460094297e+03,	 3.8501434884541271e+02,	 4.6424154577966539e+02,	 3.6658329619902552e+03,	 4.3241523661784385e+02,	 3.8535744312534512e+00 
9.0301580000000004e-01,	 2.7332220000000002e-01,	 2.7446458710913335e-02,	 1.6211665038148947e+03,	 3.8536149247399112e+02,	 4.6444329175354358e+02,	 3.6673212026110946e+03,	 4.3250918400159310e+02,	 3.8527241884644803e+00 
9.0436329999999998e-01,	 2.7349649999999998e-01,	 2.7446907592290619e-02,	 1.6210818131343235e+03,	 3.8570131640882528e+02,	 4.6463633059074232e+02,	 3.6689054724998914e+03,	 4.3259905761780379e+02,	 3.8519150609806538e+00 
9.0571080000000004e-01,	 2.7367089999999999e-01,	 2.7447363656166856e-02,	 1.6210037739063389e+03,	 3.8603636836408265e+02,	 4.6482174320339527e+02,	 3.6704305328322544e+03,	 4.3268536309583016e+02,	 3.8511505971041249e+00 
9.0702579999999999e-01,	 2.7384090000000000e-01,	 2.7447335867299513e-02,	 1.6209272793941805e+03,	 3.8636513760793849e+02,	 4.6500006396562389e+02,	 3.6718349120245412e+03,	 4.3276835123734429e+02,	 3.8504162229300780e+00 
9.0834079999999995e-01,	 2.7401100000000000e-01,	 2.7448385359297205e-02,	 1.6208568185634404e+03,	 3.8668913991415286e+02,	 4.6517143112366495e+02,	 3.6733285488658489e+03,	 4.3284808827037199e+02,	 3.8497222064550005e+00 
9.0962430000000005e-01,	 2.7417690000000000e-01,	 2.7448487329642460e-02,	 1.6207890019612234e+03,	 3.8700629611922733e+02,	 4.6533603776628274e+02,	 3.6746420526247221e+03,	 4.3292466581122949e+02,	 3.8490589563584345e+00 
9.1090780000000005e-01,	 2.7434280000000000e-01,	 2.7449305082211717e-02,	 1.6207250534730802e+03,	 3.8731978951858002e+02,	 4.6549508381252474e+02,	 3.6760075127086866e+03,	 4.3299864361264002e+02,	 3.8484259149067519e+00 
9.1216059999999999e-01,	 2.7450469999999999e-01,	 2.7450004989133438e-02,	 1.6206644807478328e+03,	 3.8762638261977111e+02,	 4.6564766006334924e+02,	 3.6773061671834344e+03,	 4.3306960021266570e+02,	 3.8478239492997335e+00 
9.1341340000000004e-01,	 2.7466649999999998e-01,	 2.7450344965216179e-02,	 1.6206061111672252e+03,	 3.8792994961335273e+02,	 4.6579593941062836e+02,	 3.6785227157450868e+03,	 4.3313854737147273e+02,	 3.8472434845611856e+00 
9.1463640000000002e-01,	 2.7482439999999997e-01,	 2.7451046010621375e-02,	 1.6205507974535358e+03,	 3.8822694636866356e+02,	 4.6593855327664988e+02,	 3.6797429512704766e+03,	 4.3320484983363923e+02,	 3.8466901469583052e+00 
9.1585939999999999e-01,	 2.7498240000000002e-01,	 2.7452369383469608e-02,	 1.6204988586835957e+03,	 3.8852027434138336e+02,	 4.6607670641903508e+02,	 3.6810114610695855e+03,	 4.3326906879039183e+02,	 3.8461612007010921e+00 
9.1705340000000002e-01,	 2.7513650000000001e-01,	 2.7452604973474695e-02,	 1.6204480127736456e+03,	 3.8880744850053532e+02,	 4.6621053175360129e+02,	 3.6820999943301845e+03,	 4.3333126693904870e+02,	 3.8456496064874317e+00 
9.1824740000000005e-01,	 2.7529060000000000e-01,	 2.7453607688812505e-02,	 1.6203998997663389e+03,	 3.8909187732019768e+02,	 4.6634079067082098e+02,	 3.6832632981348702e+03,	 4.3339179894727584e+02,	 3.8451577113205095e+00 
9.1941329999999999e-01,	 2.7544099999999999e-01,	 2.7454160954348342e-02,	 1.6203533982301392e+03,	 3.8937053966899123e+02,	 4.6646691333043691e+02,	 3.6843336908938804e+03,	 4.3345040075969922e+02,	 3.8446836953425554e+00 
9.2057920000000004e-01,	 2.7559139999999999e-01,	 2.7455120066486843e-02,	 1.6203090116296835e+03,	 3.8964600959388190e+02,	 4.6658997700363699e+02,	 3.6854344410395111e+03,	 4.3350757360435887e+02,	 3.8442256106939636e+00 
9.2171780000000003e-01,	 2.7573829999999999e-01,	 2.7456213013866849e-02,	 1.6202667487330539e+03,	 3.8991567893917005e+02,	 4.6670896684320076e+02,	 3.6865210500958692e+03,	 4.3356284666091665e+02,	 3.8437862286566014e+00 
9.2285629999999996e-01,	 2.7588509999999999e-01,	 2.7456805811137852e-02,	 1.6202251602287588e+03,	 3.9018316406953033e+02,	 4.6682588994525287e+02,	 3.6875242366997672e+03,	 4.3361715281522714e+02,	 3.8433559638639663e+00 
9.2396829999999996e-01,	 2.7602840000000001e-01,	 2.7457412279398519e-02,	 1.6201846646711708e+03,	 3.9044629667322454e+02,	 4.6693978851015112e+02,	 3.6885054079181841e+03,	 4.3367004765283713e+02,	 3.8429385124919651e+00 
9.2508029999999997e-01,	 2.7617169999999996e-01,	 2.7458483077674116e-02,	 1.6201455711541444e+03,	 3.9070716554227619e+02,	 4.6705162318332458e+02,	 3.6895327061343764e+03,	 4.3372197773635065e+02,	 3.8425317263611487e+00 
9.2616650000000000e-01,	 2.7631169999999999e-01,	 2.7459720725841356e-02,	 1.6201077983329390e+03,	 3.9096327993341839e+02,	 4.6716047703820016e+02,	 3.6905589494475589e+03,	 4.3377251771555422e+02,	 3.8421378343993107e+00 
9.2725270000000004e-01,	 2.7645159999999996e-01,	 2.7460277170726483e-02,	 1.6200697510479163e+03,	 3.9121825420197132e+02,	 4.6726831236048395e+02,	 3.6914856493557118e+03,	 4.3382257899268859e+02,	 3.8417471334416122e+00 
9.2831390000000003e-01,	 2.7658820000000001e-01,	 2.7461188976367647e-02,	 1.6200324048858988e+03,	 3.9146896075167535e+02,	 4.6737386162002213e+02,	 3.6924421051500340e+03,	 4.3387157339831896e+02,	 3.8413653199176148e+00 
9.2937510000000001e-01,	 2.7672490000000000e-01,	 2.7462764317102498e-02,	 1.6199967489301305e+03,	 3.9171849699649260e+02,	 4.6747768232958231e+02,	 3.6934741986285421e+03,	 4.3391976003974275e+02,	 3.8409939831475191e+00 
9.3041189999999996e-01,	 2.7685830000000000e-01,	 2.7463082558956228e-02,	 1.6199601147589369e+03,	 3.9196391376457512e+02,	 4.6758018618200583e+02,	 3.6943268766953183e+03,	 4.3396733023485302e+02,	 3.8406238481480490e+00 
9.3144879999999997e-01,	 2.7699180000000001e-01,	 2.7464699077059996e-02,	 1.6199250653575382e+03,	 3.9220834870808545e+02,	 4.6768124430281841e+02,	 3.6953428322852424e+03,	 4.3401422438776422e+02,	 3.8402628770531688e+00 
9.3246200000000001e-01,	 2.7712209999999998e-01,	 2.7465003029387154e-02,	 1.6198890445477537e+03,	 3.9244951441161567e+02,	 4.6778122844376082e+02,	 3.6961737534821973e+03,	 4.3406061519438975e+02,	 3.8399025718612778e+00 
9.3347530000000001e-01,	 2.7725250000000001e-01,	 2.7466700583981887e-02,	 1.6198543376859193e+03,	 3.9268905279665813e+02,	 4.6788002972904019e+02,	 3.6971829329656962e+03,	 4.3410645230776618e+02,	 3.8395493808538386e+00 
9.3446560000000001e-01,	 2.7737980000000001e-01,	 2.7467153177616194e-02,	 1.6198184521581456e+03,	 3.9292625269251198e+02,	 4.6797788129615981e+02,	 3.6980170895541032e+03,	 4.3415184404629514e+02,	 3.8391963749884503e+00 
9.3545599999999995e-01,	 2.7750720000000001e-01,	 2.7468701564436850e-02,	 1.6197843510304092e+03,	 3.9316119900142576e+02,	 4.6807486299042910e+02,	 3.6989919594409398e+03,	 4.3419682758281647e+02,	 3.8388499002978711e+00 
9.3642409999999998e-01,	 2.7763159999999998e-01,	 2.7469571481682956e-02,	 1.6197483299896098e+03,	 3.9339367657033381e+02,	 4.6817079555944565e+02,	 3.6998672416468776e+03,	 4.3424131991342392e+02,	 3.8385022784435412e+00 
9.3739229999999996e-01,	 2.7775600000000000e-01,	 2.7470825325320351e-02,	 1.6197133032911493e+03,	 3.9362557086041056e+02,	 4.6826632568737040e+02,	 3.7007911128192236e+03,	 4.3428562106729282e+02,	 3.8381584009996712e+00 
9.3833889999999998e-01,	 2.7787760000000000e-01,	 2.7471969742700757e-02,	 1.6196784889262008e+03,	 3.9385384318692070e+02,	 4.6836057928545983e+02,	 3.7016902192511211e+03,	 4.3432932581454622e+02,	 3.8378184436612850e+00 
9.3928550000000000e-01,	 2.7799920000000000e-01,	 2.7473603928847522e-02,	 1.6196432015567198e+03,	 3.9408105057527962e+02,	 4.6845425843521076e+02,	 3.7026508541323219e+03,	 4.3437275983677637e+02,	 3.8374793818625967e+00 
9.4021120000000002e-01,	 2.7811799999999998e-01,	 2.7474395579578568e-02,	 1.6196075571453543e+03,	 3.9430629837595745e+02,	 4.6854707485868698e+02,	 3.7034911857106199e+03,	 4.3441578957603400e+02,	 3.8371421657308922e+00 
9.4113680000000000e-01,	 2.7823690000000001e-01,	 2.7476331264899744e-02,	 1.6195736085310534e+03,	 3.9452923570722169e+02,	 4.6863905349753452e+02,	 3.7044791811049536e+03,	 4.3445842671369451e+02,	 3.8368110885533224e+00 
9.4204230000000000e-01,	 2.7835309999999996e-01,	 2.7477425331468838e-02,	 1.6195377983608446e+03,	 3.9474970427409676e+02,	 4.6873013776456935e+02,	 3.7053467158736407e+03,	 4.3450064513791170e+02,	 3.8364783351000855e+00 
9.4294770000000006e-01,	 2.7846929999999998e-01,	 2.7479158739491007e-02,	 1.6195031514841448e+03,	 3.9496900106082239e+02,	 4.6882071129361827e+02,	 3.7062965026229931e+03,	 4.3454262276287614e+02,	 3.8361498024344511e+00 
9.4383349999999999e-01,	 2.7858289999999997e-01,	 2.7480455477328570e-02,	 1.6194678814998726e+03,	 3.9518544970121673e+02,	 4.6891025384817220e+02,	 3.7071793208952986e+03,	 4.3458411858189112e+02,	 3.8358227068381230e+00 
9.4471930000000004e-01,	 2.7869650000000001e-01,	 2.7482245956636724e-02,	 1.6194328866852291e+03,	 3.9540081788208261e+02,	 4.6899933316673253e+02,	 3.7081251630472543e+03,	 4.3462539579691992e+02,	 3.8354976942245513e+00 
9.4558609999999998e-01,	 2.7880759999999999e-01,	 2.7483328529051752e-02,	 1.6193982386829239e+03,	 3.9561335133492230e+02,	 4.6908747645798087e+02,	 3.7089681613942212e+03,	 4.3466623542114939e+02,	 3.8351758970047762e+00 
9.4645279999999998e-01,	 2.7891879999999997e-01,	 2.7485575648348387e-02,	 1.6193648332228622e+03,	 3.9582312680445591e+02,	 4.6917474609067108e+02,	 3.7099614953330324e+03,	 4.3470666647131833e+02,	 3.8348590983309738e+00 
9.4730119999999995e-01,	 2.7902749999999998e-01,	 2.7486746250804620e-02,	 1.6193295835806318e+03,	 3.9603052512207250e+02,	 4.6926123050295121e+02,	 3.7108033991312032e+03,	 4.3474673002814927e+02,	 3.8345402422757262e+00 
9.4814949999999998e-01,	 2.7913620000000000e-01,	 2.7488819454267777e-02,	 1.6192956180390984e+03,	 3.9623660251106884e+02,	 4.6934709787201513e+02,	 3.7117623580216732e+03,	 4.3478650408993116e+02,	 3.8342262053349048e+00 
9.4898000000000005e-01,	 2.7924250000000000e-01,	 2.7489931400442015e-02,	 1.6192611053001269e+03,	 3.9644034523552131e+02,	 4.6943217321885959e+02,	 3.7125853350313309e+03,	 4.3482590769628632e+02,	 3.8339130528690339e+00 
9.4981050000000000e-01,	 2.7934890000000001e-01,	 2.7492108695247222e-02,	 1.6192286205607729e+03,	 3.9664143084475620e+02,	 4.6951645855977830e+02,	 3.7135460222034271e+03,	 4.3486494188165989e+02,	 3.8336063482546914e+00 
9.5062369999999996e-01,	 2.7945300000000001e-01,	 2.7493619757259023e-02,	 1.6191947264856371e+03,	 3.9683933865672566e+02,	 4.6959974714604209e+02,	 3.7144089221555300e+03,	 4.3490351100895236e+02,	 3.8332989678832625e+00 
9.5143690000000003e-01,	 2.7955710000000000e-01,	 2.7495630447854288e-02,	 1.6191617942172797e+03,	 3.9703577742366889e+02,	 4.6968259165907006e+02,	 3.7153358939377922e+03,	 4.3494187110274612e+02,	 3.8329948828213753e+00 
9.5223340000000001e-01,	 2.7965899999999999e-01,	 2.7497398762747538e-02,	 1.6191280824687956e+03,	 3.9723037302631406e+02,	 4.6976614656381270e+02,	 3.7162358246515150e+03,	 4.3498055670781196e+02,	 3.8326852876492596e+00 
9.5302989999999999e-01,	 2.7976089999999998e-01,	 2.7510051638579433e-02,	 1.6190219609266483e+03,	 3.9776951189487261e+02,	 4.6988878208751737e+02,	 3.7189164375791820e+03,	 4.3503733026180606e+02,	 3.8322436949842085e+00 
9.5381020000000005e-01,	 2.7986069999999996e-01,	 2.7600468057019309e-02,	 1.6186977261293735e+03,	 3.9931153061848067e+02,	 4.7010758082295217e+02,	 3.7328766483527083e+03,	 4.3513860373692575e+02,	 3.8314753835496509e+00 
8.4940000000000004e-01,	 2.6784360000000002e-01,	 2.7298111741034678e-02,	 1.6228402886104313e+03,	 3.7067684305152744e+02,	 4.5957484517875696e+02,	 3.6092652005164673e+03,	 4.3023636078817748e+02,	 3.8691189886808441e+00 
8.5140930000000004e-01,	 2.6809469999999996e-01,	 2.7380633455064255e-02,	 1.6227366928775896e+03,	 3.7198455831765460e+02,	 4.5972729242532961e+02,	 3.6213768078042121e+03,	 4.3030771250708682e+02,	 3.8689206229932807e+00 
8.5341869999999997e-01,	 2.6834569999999996e-01,	 2.7448475790071741e-02,	 1.6228133334014874e+03,	 3.7310569934159753e+02,	 4.5963729210246322e+02,	 3.6296389605912423e+03,	 4.3026559000391165e+02,	 3.8700560237264723e+00 
8.5537759999999996e-01,	 2.6859040000000001e-01,	 2.7468536611486911e-02,	 1.6230835768950305e+03,	 3.7350631349238785e+02,	 4.5929251470460940e+02,	 3.6295670864467747e+03,	 4.3010418699948775e+02,	 3.8723294449376415e+00 
8.5733649999999995e-01,	 2.6883509999999999e-01,	 2.7467485484730322e-02,	 1.6234381570317350e+03,	 3.7361807186397260e+02,	 4.5889149423470212e+02,	 3.6262592453841953e+03,	 4.2991637831173000e+02,	 3.8748831253999052e+00 
8.5924639999999997e-01,	 2.6907349999999997e-01,	 2.7460913324747205e-02,	 1.6237598050508300e+03,	 3.7369960847235262e+02,	 4.5854085960348345e+02,	 3.6226214611187211e+03,	 4.2975209941454250e+02,	 3.8771362906743385e+00 
8.6115629999999999e-01,	 2.6931189999999999e-01,	 2.7456645172155035e-02,	 1.6240100519400464e+03,	 3.7386736300250448e+02,	 4.5828503981201584e+02,	 3.6200376647134835e+03,	 4.2963220341380810e+02,	 3.8788734801393776e+00 
8.6301839999999996e-01,	 2.6954430000000001e-01,	 2.7455242373654674e-02,	 1.6241851440856899e+03,	 3.7412755170365250e+02,	 4.5812991271319072e+02,	 3.6186274106257251e+03,	 4.2955948312795101e+02,	 3.8800632745217443e+00 
8.6488050000000005e-01,	 2.6977659999999998e-01,	 2.7456505905367867e-02,	 1.6242920897600682e+03,	 3.7445597217180500e+02,	 4.5806330640075475e+02,	 3.6182678183157104e+03,	 4.2952825572677301e+02,	 3.8807596839676677e+00 
8.6669620000000003e-01,	 2.7000310000000000e-01,	 2.7458971710529589e-02,	 1.6243414917352445e+03,	 3.7483279478817826e+02,	 4.5807523197538302e+02,	 3.6186869758073435e+03,	 4.2953384702589864e+02,	 3.8810184046905070e+00 
8.6851179999999994e-01,	 2.7022950000000001e-01,	 2.7462527659400816e-02,	 1.6243255588117240e+03,	 3.7524845421193356e+02,	 4.5815482927903918e+02,	 3.6197844788306516e+03,	 4.2957116431414369e+02,	 3.8808628016540423e+00 
8.7028220000000001e-01,	 2.7045019999999997e-01,	 2.7466633817718057e-02,	 1.6242702416440090e+03,	 3.7569180368546512e+02,	 4.5829070312125788e+02,	 3.6213993749106576e+03,	 4.2963485801989384e+02,	 3.8803944235817207e+00 
8.7205270000000001e-01,	 2.7067099999999999e-01,	 2.7470889725644525e-02,	 1.6242208454120405e+03,	 3.7615591929422828e+02,	 4.5849656835539542e+02,	 3.6235874975084771e+03,	 4.2973134366713970e+02,	 3.8796547160828352e+00 
8.7377910000000003e-01,	 2.7088609999999996e-01,	 2.7474235201153475e-02,	 1.6241487993651920e+03,	 3.7661611430564949e+02,	 4.5871742250654836e+02,	 3.6257744531506796e+03,	 4.2983483029204535e+02,	 3.8787990693624894e+00 
8.7550559999999999e-01,	 2.7110119999999999e-01,	 2.7476625318779244e-02,	 1.6240399062189067e+03,	 3.7706979024298903e+02,	 4.5892903192511335e+02,	 3.6277626164823409e+03,	 4.2993396170355715e+02,	 3.8778965063121196e+00 
8.7718920000000000e-01,	 2.7131089999999997e-01,	 2.7477753971638454e-02,	 1.6239205388172818e+03,	 3.7751599205521114e+02,	 4.5917430650413763e+02,	 3.6298505705357793e+03,	 4.3004883544024460e+02,	 3.8768250833603641e+00 
8.7887280000000001e-01,	 2.7152060000000000e-01,	 2.7478568294107844e-02,	 1.6237896602208775e+03,	 3.7796181880034408e+02,	 4.5944428199804997e+02,	 3.6320924088969782e+03,	 4.3017524232346642e+02,	 3.8756243592250064e+00 
8.8051480000000004e-01,	 2.7172499999999999e-01,	 2.7478782251437076e-02,	 1.6236502706431975e+03,	 3.7840467198082615e+02,	 4.5972739720587015e+02,	 3.6343588469497081e+03,	 4.3030776154471505e+02,	 3.8743487748846070e+00 
8.8215679999999996e-01,	 2.7192939999999999e-01,	 2.7478683595899386e-02,	 1.6235054985664094e+03,	 3.7884641345171229e+02,	 4.6001991592483876e+02,	 3.6366582869055164e+03,	 4.3044463946350027e+02,	 3.8730222914546850e+00 
8.8375820000000005e-01,	 2.7212870000000000e-01,	 2.7477732112606491e-02,	 1.6233585522340750e+03,	 3.7928132498088797e+02,	 4.6031585965110492e+02,	 3.6388718464886238e+03,	 4.3058307576240975e+02,	 3.8716744115623936e+00 
8.8535969999999997e-01,	 2.7232800000000001e-01,	 2.7475685107910972e-02,	 1.6232108515814662e+03,	 3.7971117867796522e+02,	 4.6061420073606223e+02,	 3.6409590211451650e+03,	 4.3072258845948562e+02,	 3.8703136367524840e+00 
8.8692170000000004e-01,	 2.7252219999999999e-01,	 2.7474760816291428e-02,	 1.6230641091212051e+03,	 3.8012988858086050e+02,	 4.6090969168705004e+02,	 3.6431721895198293e+03,	 4.3086072382468865e+02,	 3.8689626630815042e+00 
8.8848369999999999e-01,	 2.7271649999999997e-01,	 2.7474704869085244e-02,	 1.6229188917037241e+03,	 3.8054364601147086e+02,	 4.6120308531739289e+02,	 3.6454838397956041e+03,	 4.3099783493739790e+02,	 3.8676228392437726e+00 
8.9000740000000000e-01,	 2.7290589999999998e-01,	 2.7473276961372868e-02,	 1.6227770748161097e+03,	 3.8094989934042485e+02,	 4.6149094216778792e+02,	 3.6475695640614836e+03,	 4.3113231617851187e+02,	 3.8663114168992538e+00 
8.9153110000000002e-01,	 2.7309539999999999e-01,	 2.7472025363917438e-02,	 1.6226387972191712e+03,	 3.8135048950184085e+02,	 4.6177386852608754e+02,	 3.6496395065215165e+03,	 4.3126445312354105e+02,	 3.8650270615540303e+00 
8.9301750000000002e-01,	 2.7327999999999997e-01,	 2.7470508282493141e-02,	 1.6225049634888514e+03,	 3.8174197678655383e+02,	 4.6204939954042146e+02,	 3.6516155082317373e+03,	 4.3139309727193239e+02,	 3.8637802178285368e+00 
8.9450390000000002e-01,	 2.7346470000000000e-01,	 2.7468926036833111e-02,	 1.6223745261428230e+03,	 3.8212858872134018e+02,	 4.6231900481054947e+02,	 3.6535357731135491e+03,	 4.3151893759496255e+02,	 3.8625645211642268e+00 
8.9595400000000003e-01,	 2.7364479999999997e-01,	 2.7467531490016066e-02,	 1.6222496088411131e+03,	 3.8250697753629879e+02,	 4.6257970244924434e+02,	 3.6554103820661348e+03,	 4.3164058532359758e+02,	 3.8613953436743951e+00 
8.9740410000000004e-01,	 2.7382489999999998e-01,	 2.7466047967394654e-02,	 1.6221287360197525e+03,	 3.8288115545892407e+02,	 4.6283356395419418e+02,	 3.6572189163878502e+03,	 4.3175901021157819e+02,	 3.8602627348616902e+00 
8.9881889999999998e-01,	 2.7400059999999998e-01,	 2.7464668382173783e-02,	 1.6220134064406632e+03,	 3.8324776932984651e+02,	 4.6307833927704911e+02,	 3.6589692877028288e+03,	 4.3187316569853220e+02,	 3.8591775750327204e+00 
9.0023379999999997e-01,	 2.7417619999999998e-01,	 2.7463333065508327e-02,	 1.6219010637315141e+03,	 3.8360989681047869e+02,	 4.6331705907935066e+02,	 3.6606775207028131e+03,	 4.3198446802544817e+02,	 3.8581230128466468e+00 
9.0161429999999998e-01,	 2.7434749999999997e-01,	 2.7462448931164351e-02,	 1.6217938322457485e+03,	 3.8396437099283008e+02,	 4.6354707414617724e+02,	 3.6623769667647657e+03,	 4.3209168467670401e+02,	 3.8571130935946272e+00 
9.0299479999999999e-01,	 2.7451880000000001e-01,	 2.7461478725072624e-02,	 1.6216918677910371e+03,	 3.8431381186785251e+02,	 4.6377039965935404e+02,	 3.6640119609064664e+03,	 4.3219575768559724e+02,	 3.8561410857770855e+00 
9.0434199999999998e-01,	 2.7468589999999998e-01,	 2.7460645728032626e-02,	 1.6215925946375853e+03,	 3.8465722230027961e+02,	 4.6398563268877820e+02,	 3.6656012135099036e+03,	 4.3229603576713652e+02,	 3.8552064099511090e+00 
9.0568919999999997e-01,	 2.7485290000000001e-01,	 2.7460208331014455e-02,	 1.6214989597224821e+03,	 3.8499694262918626e+02,	 4.6419379641852981e+02,	 3.6671873460361066e+03,	 4.3239299810598237e+02,	 3.8543126159028898e+00 
9.0700389999999997e-01,	 2.7501589999999998e-01,	 2.7459551806500775e-02,	 1.6214088477941400e+03,	 3.8532947256821240e+02,	 4.6439404516010757e+02,	 3.6686816216860502e+03,	 4.3248625314117544e+02,	 3.8534565075476137e+00 
9.0831870000000003e-01,	 2.7517890000000000e-01,	 2.7459310782124456e-02,	 1.6213228204956908e+03,	 3.8565891856543152e+02,	 4.6458783452663221e+02,	 3.6701803295608966e+03,	 4.3257648092964422e+02,	 3.8526354304413437e+00 
9.0960189999999996e-01,	 2.7533789999999997e-01,	 2.7458924938060320e-02,	 1.6212412514008001e+03,	 3.8598102367154070e+02,	 4.6477389930528409e+02,	 3.6715986237215488e+03,	 4.3266309446548786e+02,	 3.8518531269560592e+00 
9.1088510000000000e-01,	 2.7549679999999999e-01,	 2.7458632078032775e-02,	 1.6211628201432034e+03,	 3.8629963294943633e+02,	 4.6495422957888809e+02,	 3.6729840139840917e+03,	 4.3274702203512226e+02,	 3.8511003734139972e+00 
9.1213770000000005e-01,	 2.7565200000000001e-01,	 2.7458556587643283e-02,	 1.6210886555574202e+03,	 3.8661135568482496e+02,	 4.6512729065667463e+02,	 3.6743410373535630e+03,	 4.3282755114282753e+02,	 3.8503841908160639e+00 
9.1339029999999999e-01,	 2.7580709999999997e-01,	 2.7458507998458715e-02,	 1.6210180435650072e+03,	 3.8691900208089112e+02,	 4.6529522339471924e+02,	 3.6756611423069385e+03,	 4.3290567960105130e+02,	 3.8496955610598764e+00 
9.1461309999999996e-01,	 2.7595839999999999e-01,	 2.7458199729585298e-02,	 1.6209497750191103e+03,	 3.8722053436210780e+02,	 4.6545701276560430e+02,	 3.6768979388826733e+03,	 4.3298093660635817e+02,	 3.8490348270496177e+00 
9.1583590000000004e-01,	 2.7610980000000002e-01,	 2.7458509026634693e-02,	 1.6208850222313508e+03,	 3.8751883118585442e+02,	 4.6561380897608524e+02,	 3.6781779889612208e+03,	 4.3305385854302290e+02,	 3.8484013646442867e+00 
9.1702980000000001e-01,	 2.7625749999999999e-01,	 2.7458533842884474e-02,	 1.6208234662289910e+03,	 3.8781045024692679e+02,	 4.6576483060623309e+02,	 3.6793743296574730e+03,	 4.3312408326155838e+02,	 3.8477957964211704e+00 
9.1822360000000003e-01,	 2.7640519999999996e-01,	 2.7458745708623125e-02,	 1.6207643358599901e+03,	 3.8809904555552646e+02,	 4.6591168159607469e+02,	 3.6805627979873498e+03,	 4.3319235772485058e+02,	 3.8472116877553306e+00 
9.1938940000000002e-01,	 2.7654930000000000e-01,	 2.7458915238320000e-02,	 1.6207079757637161e+03,	 3.8838170418633683e+02,	 4.6605329932640115e+02,	 3.6817042662802792e+03,	 4.3325818893260936e+02,	 3.8466526001480141e+00 
9.2055509999999996e-01,	 2.7669349999999998e-01,	 2.7459054016658081e-02,	 1.6206533306504771e+03,	 3.8866172860558459e+02,	 4.6619127981367183e+02,	 3.6828128905239760e+03,	 4.3332231974343773e+02,	 3.8461113206467754e+00 
9.2169350000000005e-01,	 2.7683419999999997e-01,	 2.7459434184987901e-02,	 1.6206012905618575e+03,	 3.8893639482787017e+02,	 4.6632434333425107e+02,	 3.6839150670949452e+03,	 4.3338415624929820e+02,	 3.8455936316249382e+00 
9.2283199999999999e-01,	 2.7697489999999997e-01,	 2.7459849195809335e-02,	 1.6205516222749866e+03,	 3.8920797423294135e+02,	 4.6645410295237122e+02,	 3.6849958476319903e+03,	 4.3344444888886886e+02,	 3.8450935514201312e+00 
9.2394390000000004e-01,	 2.7711219999999998e-01,	 2.7460143306836153e-02,	 1.6205037299406581e+03,	 3.8947428827190970e+02,	 4.6657981775248669e+02,	 3.6860284759215424e+03,	 4.3350285411132836e+02,	 3.8446115992951313e+00 
9.2505579999999998e-01,	 2.7724959999999998e-01,	 2.7460464468893997e-02,	 1.6204565581862917e+03,	 3.8973876360720186e+02,	 4.6670303209453238e+02,	 3.6870450034698420e+03,	 4.3356009002360122e+02,	 3.8441408698171613e+00 