TITLE = "Final State"
VARIABLES = "X", "Y", "rho", "u", "v", "T", "p", "c", "M"
ZONE I=102, J=27, DATAPACKING=POINT, STRANDID=43000, SOLUTIONTIME=0.001037
1.0000000000000000e+00,	 2.6805000000000001e-01,	 2.4705874662457099e-02,	 1.5915504886444385e+03,	 4.0021489917401186e+02,	 4.6094135286631530e+02,	 3.2762410189859652e+03,	 4.3087552208625726e+02,	 3.8087535955787515e+00 
1.0004999999999999e+00,	 2.6803939999999998e-01,	 1.9218465184599971e-02,	 1.6063025188494935e+03,	 3.2683008465324679e+02,	 4.5849892625516441e+02,	 2.5350525226766581e+03,	 4.2973244865047343e+02,	 3.8145012449409079e+00 
1.0009999999999999e+00,	 2.6802890000000001e-01,	 1.4488524077048436e-02,	 1.6232416070127970e+03,	 2.3514126489624209e+02,	 4.5006520894908226e+02,	 1.8759857130681653e+03,	 4.2576181415411850e+02,	 3.8523519577567127e+00 
1.0014989999999999e+00,	 2.6801829999999999e-01,	 1.2143170180720853e-02,	 1.6365678106739792e+03,	 1.6439283204375812e+02,	 4.3595954461776478e+02,	 1.5230291276815499e+03,	 4.1903672004147819e+02,	 3.9252018223801168e+00 
1.0019990000000001e+00,	 2.6800770000000002e-01,	 1.0729794613421450e-02,	 1.6479793346195102e+03,	 1.1736719731728246e+02,	 4.2078258339823560e+02,	 1.2989101246562504e+03,	 4.1167819470331426e+02,	 4.0132157793492329e+00 
1.0024999999999999e+00,	 2.6799719999999999e-01,	 9.7537840899055497e-03,	 1.6577268871197684e+03,	 8.4766229172340459e+01,	 4.0678169950363122e+02,	 1.1414699469525247e+03,	 4.0477127966961564e+02,	 4.1008163732144167e+00 
1.0029999999999999e+00,	 2.6798659999999996e-01,	 9.0277109807975278e-03,	 1.6658180094593772e+03,	 6.1092472531278375e+01,	 3.9473986564365958e+02,	 1.0252235491323488e+03,	 3.9873511237177371e+02,	 4.1805645873548061e+00 
1.0035000000000001e+00,	 2.6797599999999999e-01,	 8.4741187678256478e-03,	 1.6723061253074734e+03,	 4.3058429816419995e+01,	 3.8481579912560153e+02,	 9.3816100686127834e+02,	 3.9369095197706378e+02,	 4.2491714830977738e+00 
1.0040009999999999e+00,	 2.6796539999999996e-01,	 8.0551830428948808e-03,	 1.6772468792999341e+03,	 2.8678596948506218e+01,	 3.7698020553692936e+02,	 8.7362267556773065e+02,	 3.8966218369628547e+02,	 4.3049906141750789e+00 
1.0045020000000000e+00,	 2.6795490000000000e-01,	 7.7553779493776814e-03,	 1.6806286445324827e+03,	 1.6566694045813534e+01,	 3.7117907876674286e+02,	 8.2816408881998586e+02,	 3.8665241879098085e+02,	 4.3468247279842842e+00 
1.0050030000000001e+00,	 2.6794429999999997e-01,	 7.5664400967275450e-03,	 1.6822410486773815e+03,	 5.8012055894228594e+00,	 3.6785796045561335e+02,	 8.0075875233161264e+02,	 3.8491874920772284e+02,	 4.3704055851640247e+00 
1.0055050000000001e+00,	 2.6793370000000000e-01,	 7.5375078375608841e-03,	 1.6814636771629853e+03,	 -9.6117690316904998e+00,	 3.6788826844241009e+02,	 7.9776256478909647e+02,	 3.8493460569764380e+02,	 4.3682514483747230e+00 
1.0060070000000001e+00,	 2.6792309999999997e-01,	 7.7089032653477061e-03,	 1.6777100321744397e+03,	 -2.9154324893854138e+01,	 3.7254485186094325e+02,	 8.2623026604846734e+02,	 3.8736311966037056e+02,	 4.3317580890504752e+00 
1.0065100000000000e+00,	 2.6791239999999999e-01,	 8.1354305689980387e-03,	 1.6703470549103672e+03,	 -5.0120096542684877e+01,	 3.8324756047797075e+02,	 8.9699470529936809e+02,	 3.9288792923736065e+02,	 4.2533728020775090e+00 
1.0070129999999999e+00,	 2.6790179999999997e-01,	 8.8701843766366886e-03,	 1.6591409189385304e+03,	 -7.2780961172415630e+01,	 4.0095447255286297e+02,	 1.0231932041491450e+03,	 4.0186160803046590e+02,	 4.1326079604901178e+00 
1.0075160000000001e+00,	 2.6789120000000000e-01,	 9.9416657596717167e-03,	 1.6444177151886281e+03,	 -9.2428800885733722e+01,	 4.2552519823005105e+02,	 1.2170666951200508e+03,	 4.1399169405241645e+02,	 3.9783727348885107e+00 
1.0080199999999999e+00,	 2.6788049999999997e-01,	 1.1358903978176457e-02,	 1.6270531593659503e+03,	 -1.0527842424038010e+02,	 4.5546467967472097e+02,	 1.4884048267989117e+03,	 4.2830815018293578e+02,	 3.8067349866652478e+00 
1.0085249999999999e+00,	 2.6786989999999999e-01,	 1.3103815799991401e-02,	 1.6081816058424292e+03,	 -1.1009139356572871e+02,	 4.8478551005326295e+02,	 1.8275840014460855e+03,	 4.4187944702102919e+02,	 3.6479304005257918e+00 
1.0090300000000001e+00,	 2.6785919999999996e-01,	 1.5126054465293668e-02,	 1.5892317633173566e+03,	 -1.0798925723292143e+02,	 5.1576062903248385e+02,	 2.2444182127059239e+03,	 4.5577770790413842e+02,	 3.4948977930901224e+00 
1.0095360000000000e+00,	 2.6784849999999999e-01,	 1.7371469906503713e-02,	 1.5713461337369486e+03,	 -1.0060844416911537e+02,	 5.4881638899738255e+02,	 2.7427964442395214e+03,	 4.7015658431076400e+02,	 3.3490197016159580e+00 
1.0100420000000001e+00,	 2.6783780000000001e-01,	 1.9789568510399688e-02,	 1.5550028426669417e+03,	 -9.2444237555586483e+01,	 5.7706268923130074e+02,	 3.2854076026223756e+03,	 4.8210372182315115e+02,	 3.2311476414962637e+00 
1.0105489999999999e+00,	 2.6782709999999998e-01,	 2.2288700654779788e-02,	 1.5406338852281383e+03,	 -8.6575983843083520e+01,	 6.0141347445324891e+02,	 3.8564512263100469e+03,	 4.9217048239313988e+02,	 3.1352236541596663e+00 
1.0110570000000001e+00,	 2.6781630000000001e-01,	 2.4794799499830232e-02,	 1.5284921194653812e+03,	 -8.1407944989124303e+01,	 6.2189882950583467e+02,	 4.4361914213344453e+03,	 5.0048245373524310e+02,	 3.0583659397044527e+00 
1.0115660000000000e+00,	 2.6780559999999998e-01,	 2.7240866117261880e-02,	 1.5185835219877176e+03,	 -7.5866344896290798e+01,	 6.3851202916127977e+02,	 5.0040303230515365e+03,	 5.0712325734839942e+02,	 2.9982403845606456e+00 
1.0120750000000001e+00,	 2.6779480000000000e-01,	 2.9473709000703598e-02,	 1.5108596765027758e+03,	 -6.9882916395109120e+01,	 6.5150559710978951e+02,	 5.5243715485648090e+03,	 5.1225718916104438e+02,	 2.9525695651923072e+00 
1.0125860000000000e+00,	 2.6778399999999997e-01,	 3.1520765040310213e-02,	 1.5046393683857632e+03,	 -6.4484422501270402e+01,	 6.6182455575145957e+02,	 6.0016347853268371e+03,	 5.1629797891488931e+02,	 2.9169599774045603e+00 
1.0130969999999999e+00,	 2.6777319999999999e-01,	 3.3360955952778187e-02,	 1.4996622570669629e+03,	 -5.9563066751943097e+01,	 6.7000283548466348e+02,	 6.4305047728949075e+03,	 5.1947817593081572e+02,	 2.8891389727787971e+00 
1.0136090000000000e+00,	 2.6776240000000001e-01,	 3.4987798583037397e-02,	 1.4957129717853118e+03,	 -5.5127090728498644e+01,	 6.7645911986952899e+02,	 6.8090748992828403e+03,	 5.2197507418297209e+02,	 2.8674329546010804e+00 
1.0141220000000000e+00,	 2.6775159999999998e-01,	 3.6400486953609049e-02,	 1.4925911288055700e+03,	 -5.1230439498736594e+01,	 6.8152418869507437e+02,	 7.1370445136333983e+03,	 5.2392560528209333e+02,	 2.8505384164607284e+00 
1.0146360000000001e+00,	 2.6774070000000000e-01,	 3.7611179358140664e-02,	 1.4901217146732465e+03,	 -4.7902913925601453e+01,	 6.8547578205781406e+02,	 7.4171831805038282e+03,	 5.2544231488697710e+02,	 2.8374027759711495e+00 
1.0151509999999999e+00,	 2.6772979999999996e-01,	 3.8652660845521956e-02,	 1.4881133775949877e+03,	 -4.5053640703143856e+01,	 6.8864281831108758e+02,	 7.6577883027511452e+03,	 5.2665474077994861e+02,	 2.8268904100688168e+00 
1.0156670000000001e+00,	 2.6771889999999998e-01,	 3.9550653102676664e-02,	 1.4864414126568627e+03,	 -4.2667780993012755e+01,	 6.9124012484323544e+02,	 7.8652500989616610e+03,	 5.2764697971750820e+02,	 2.8182738186577816e+00 
1.0161849999999999e+00,	 2.6770800000000000e-01,	 4.0324906406777120e-02,	 1.4850404929559113e+03,	 -4.0738939446807976e+01,	 6.9338990643298280e+02,	 8.0441622363314082e+03,	 5.2846684328045592e+02,	 2.8111492707569230e+00 
1.0167029999999999e+00,	 2.6769699999999996e-01,	 4.0987742220078102e-02,	 1.4838646557407224e+03,	 -3.9229387738750297e+01,	 6.9517458357797659e+02,	 8.1974319299417421e+03,	 5.2914650171840913e+02,	 2.8052403635972412e+00 
1.0172230000000000e+00,	 2.6768599999999998e-01,	 4.1565836312868379e-02,	 1.4828533234349125e+03,	 -3.7942248077499094e+01,	 6.9672520816047131e+02,	 8.3315918117177298e+03,	 5.2973631797148187e+02,	 2.8001453062184538e+00 
1.0177430000000001e+00,	 2.6767500000000000e-01,	 4.2064132997794559e-02,	 1.4819852516679553e+03,	 -3.6853777379017160e+01,	 6.9806405543078642e+02,	 8.4476741846180503e+03,	 5.3024505198876329e+02,	 2.7957703938399661e+00 
1.0182650000000000e+00,	 2.6766400000000001e-01,	 4.2493762785716677e-02,	 1.4812380143743744e+03,	 -3.5940697914300650e+01,	 6.9921800821860779e+02,	 8.5480633405833851e+03,	 5.3068313864422691e+02,	 2.7920125478361726e+00 
1.0187889999999999e+00,	 2.6765289999999997e-01,	 4.2863037597392857e-02,	 1.4805929966400045e+03,	 -3.5193024452062147e+01,	 7.0021166402936910e+02,	 8.6345999995770817e+03,	 5.3106008057750580e+02,	 2.7887827627481858e+00 
1.0193129999999999e+00,	 2.6764189999999999e-01,	 4.3184135558744577e-02,	 1.4800189046792193e+03,	 -3.4575445511226675e+01,	 7.0109363974796588e+02,	 8.7102414761284908e+03,	 5.3139443283222727e+02,	 2.7859206364792106e+00 
1.0198389999999999e+00,	 2.6763070000000000e-01,	 4.3455422151152737e-02,	 1.4795156277278834e+03,	 -3.4115278817840498e+01,	 7.0185275078457357e+02,	 8.7744502743570920e+03,	 5.3168203938203123e+02,	 2.7834472257773850e+00 
1.0203670000000000e+00,	 2.6761960000000001e-01,	 4.3703269945396785e-02,	 1.4790444667644006e+03,	 -3.3675102312954927e+01,	 7.0257509926560908e+02,	 8.8335775009689623e+03,	 5.3195557321455135e+02,	 2.7811115277919907e+00 
1.0208950000000001e+00,	 2.6760839999999997e-01,	 4.3917089346190916e-02,	 1.4786138811676069e+03,	 -3.3377199212145911e+01,	 7.0322463059150505e+02,	 8.8850026179432298e+03,	 5.3220141311638872e+02,	 2.7790053043003482e+00 
1.0214259999999999e+00,	 2.6759719999999998e-01,	 4.4115171660849065e-02,	 1.4782031810530198e+03,	 -3.3087918842868248e+01,	 7.0385851658250795e+02,	 8.9331223215374430e+03,	 5.3244122200309971e+02,	 2.7769702861780425e+00 
1.0219570000000000e+00,	 2.6758599999999999e-01,	 4.4289851546145093e-02,	 1.4778283444381236e+03,	 -3.2861626968532256e+01,	 7.0443524039523618e+02,	 8.9758427632583589e+03,	 5.3265931175301057e+02,	 2.7751202866594071e+00 
1.0224910000000000e+00,	 2.6757470000000000e-01,	 4.4444552974115717e-02,	 1.4774843812560493e+03,	 -3.2684178186814343e+01,	 7.0496177604698664e+02,	 9.0139272677437239e+03,	 5.3285834476030186e+02,	 2.7734309937671759e+00 
1.0230260000000000e+00,	 2.6756340000000001e-01,	 4.4586519844655920e-02,	 1.4771620063112800e+03,	 -3.2504238649739122e+01,	 7.0546008494102512e+02,	 9.0491119080359131e+03,	 5.3304663947024244e+02,	 2.7718392232248235e+00 
1.0235620000000001e+00,	 2.6755210000000001e-01,	 4.4713517747635378e-02,	 1.4768662665613624e+03,	 -3.2358296169442823e+01,	 7.0591343009958814e+02,	 9.0807186581396563e+03,	 5.3321788608487873e+02,	 2.7703885211378694e+00 
1.0241000000000000e+00,	 2.6754069999999996e-01,	 4.4826370815775549e-02,	 1.4765992417391376e+03,	 -3.2259549161221152e+01,	 7.0631707511911600e+02,	 9.1088431179782001e+03,	 5.3337031269708098e+02,	 2.7690922326291219e+00 
1.0246400000000000e+00,	 2.6752929999999997e-01,	 4.4932046347804351e-02,	 1.4763436936573737e+03,	 -3.2160054769537069e+01,	 7.0670538619671925e+02,	 9.1353362428226392e+03,	 5.3351690772490497e+02,	 2.7678484249254978e+00 
1.0251820000000000e+00,	 2.6751779999999997e-01,	 4.5029902356476845e-02,	 1.4761035138117986e+03,	 -3.2070590667088780e+01,	 7.0707368052634388e+02,	 9.1600029695660633e+03,	 5.3365590882945708e+02,	 2.7666738799743209e+00 
1.0257250000000000e+00,	 2.6750639999999998e-01,	 4.5123233717333858e-02,	 1.4758739494394608e+03,	 -3.1962776941123401e+01,	 7.0742847669614798e+02,	 9.1835943193494240e+03,	 5.3378978124751472e+02,	 2.7655456646397849e+00 
1.0262700000000000e+00,	 2.6749479999999998e-01,	 4.5201398585496266e-02,	 1.4756639154712843e+03,	 -3.1930962434403085e+01,	 7.0773739030205638e+02,	 9.2035197878223389e+03,	 5.3390631382590857e+02,	 2.7645474567662776e+00 
1.0268170000000001e+00,	 2.6748329999999998e-01,	 4.5286807801989383e-02,	 1.4754468058645884e+03,	 -3.1828265835455579e+01,	 7.0807333055712991e+02,	 9.2252869479429082e+03,	 5.3403301290001048e+02,	 2.7634809631203989e+00 
1.0273660000000000e+00,	 2.6747169999999998e-01,	 4.5359504299056441e-02,	 1.4752562252998021e+03,	 -3.1811986663639956e+01,	 7.0835491192110749e+02,	 9.2437703419699992e+03,	 5.3413918749435334e+02,	 2.7625742729537692e+00 
1.0279170000000000e+00,	 2.6745999999999998e-01,	 4.5430164483431935e-02,	 1.4750618540415658e+03,	 -3.1784968554629010e+01,	 7.0864502526823162e+02,	 9.2619618836380214e+03,	 5.3424855713500540e+02,	 2.7616439005067903e+00 
1.0284690000000001e+00,	 2.6744839999999998e-01,	 4.5503368057466256e-02,	 1.4748710423779996e+03,	 -3.1731695798280047e+01,	 7.0893922468890173e+02,	 9.2807374508238354e+03,	 5.3435944432155065e+02,	 2.7607116719188394e+00 
1.0290239999999999e+00,	 2.6743659999999997e-01,	 4.5566576985844084e-02,	 1.4746905287086579e+03,	 -3.1719015131860271e+01,	 7.0920773053610594e+02,	 9.2971492620636163e+03,	 5.3446062722094382e+02,	 2.7598508387225720e+00 
1.0295810000000001e+00,	 2.6742489999999997e-01,	 4.5638449189259189e-02,	 1.4745040581525304e+03,	 -3.1639461100810699e+01,	 7.0950109430651787e+02,	 9.3156654956952807e+03,	 5.3457115560857403e+02,	 2.7589282710007863e+00 
1.0301400000000001e+00,	 2.6741310000000001e-01,	 4.5698152548204196e-02,	 1.4743357959761840e+03,	 -3.1638102092373956e+01,	 7.0974969570248481e+02,	 9.3311204506807298e+03,	 5.3466480133892185e+02,	 2.7581303608753807e+00 
1.0307010000000001e+00,	 2.6740120000000001e-01,	 4.5754989625927972e-02,	 1.4741765721771708e+03,	 -3.1655592759533636e+01,	 7.0998215655394063e+02,	 9.3457860092695755e+03,	 5.3475235224628329e+02,	 2.7573818114456312e+00 
1.0312640000000000e+00,	 2.6738930000000000e-01,	 4.5817031829197732e-02,	 1.4740053867487363e+03,	 -3.1613072070895729e+01,	 7.1024515167494917e+02,	 9.3619251826761283e+03,	 5.3485138588875861e+02,	 2.7565495580515207e+00 
1.0318290000000001e+00,	 2.6737739999999999e-01,	 4.5878270767667179e-02,	 1.4738353316457408e+03,	 -3.1568443532173866e+01,	 7.1050688802000775e+02,	 9.3778929359530630e+03,	 5.3494992732322839e+02,	 2.7557221783434520e+00 
1.0323970000000000e+00,	 2.6736539999999998e-01,	 4.5931906501920611e-02,	 1.4736853623386376e+03,	 -3.1599322136978380e+01,	 7.1072585520043469e+02,	 9.3917500173908156e+03,	 5.3503235259996416e+02,	 2.7550186424925003e+00 
1.0329660000000001e+00,	 2.6735330000000002e-01,	 4.5983961200233230e-02,	 1.4735380326161776e+03,	 -3.1619648794850256e+01,	 7.1094020416081128e+02,	 9.4052293848536756e+03,	 5.3511302715408863e+02,	 2.7543288446219960e+00 
1.0335390000000000e+00,	 2.6734120000000000e-01,	 4.6044636174954648e-02,	 1.4733706783218513e+03,	 -3.1569993434698006e+01,	 7.1120041552748694e+02,	 9.4210863607911779e+03,	 5.3521094660821075e+02,	 2.7535103211722536e+00 
1.0341130000000001e+00,	 2.6732909999999999e-01,	 4.6102754582223196e-02,	 1.4732025203337967e+03,	 -3.1535467275863411e+01,	 7.1145705208270840e+02,	 9.4363817220201945e+03,	 5.3530750329025580e+02,	 2.7526982112787532e+00 
1.0346900000000001e+00,	 2.6731689999999997e-01,	 4.6158915745453569e-02,	 1.4730409915867992e+03,	 -3.1524657537346169e+01,	 7.1169853829852582e+02,	 9.4510837184363045e+03,	 5.3539834392177409e+02,	 2.7519291018426046e+00 
1.0352690000000000e+00,	 2.6730470000000001e-01,	 4.6217528472894967e-02,	 1.4728778488068451e+03,	 -3.1509522271887043e+01,	 7.1194509065600869e+02,	 9.4663630107004665e+03,	 5.3549107440126375e+02,	 2.7511473578537244e+00 
1.0358510000000001e+00,	 2.6729239999999999e-01,	 4.6270494549841015e-02,	 1.4727212203792692e+03,	 -3.1544029150472483e+01,	 7.1217286157723447e+02,	 9.4802436464427228e+03,	 5.3557672675223000e+02,	 2.7504163770461432e+00 
1.0364350000000000e+00,	 2.6727999999999996e-01,	 4.6323210659666374e-02,	 1.4725623125275094e+03,	 -3.1567515775938475e+01,	 7.1240510416702796e+02,	 9.4941395856266372e+03,	 5.3566404655469807e+02,	 2.7496723770640106e+00 
1.0370220000000001e+00,	 2.6726759999999999e-01,	 4.6385225912524392e-02,	 1.4723897844760108e+03,	 -3.1516014747194610e+01,	 7.1267412357096691e+02,	 9.5104398660263632e+03,	 5.3576517610869098e+02,	 2.7488293499522345e+00 
1.0376120000000000e+00,	 2.6725519999999997e-01,	 4.6447882754714412e-02,	 1.4722175150899125e+03,	 -3.1470078215526961e+01,	 7.1294212563780616e+02,	 9.5268677471409901e+03,	 5.3586590424893279e+02,	 2.7479894069251958e+00 
1.0382039999999999e+00,	 2.6724270000000000e-01,	 4.6501718577971980e-02,	 1.4720564844828059e+03,	 -3.1503884927601391e+01,	 7.1317624670683881e+02,	 9.5410420737707846e+03,	 5.3595388277894335e+02,	 2.7472392771959044e+00 
1.0387980000000001e+00,	 2.6723009999999997e-01,	 4.6556529965541230e-02,	 1.4718969351244084e+03,	 -3.1515097351995919e+01,	 7.1341009321343222e+02,	 9.5554202033499223e+03,	 5.3604174371908039e+02,	 2.7464918580154327e+00 
1.0393960000000000e+00,	 2.6721750000000000e-01,	 4.6617076858201469e-02,	 1.4717273699428058e+03,	 -3.1499974115265545e+01,	 7.1366926830542457e+02,	 9.5713229607755729e+03,	 5.3613910430732233e+02,	 2.7456763045995296e+00 
1.0399959999999999e+00,	 2.6720479999999996e-01,	 4.6670986123770984e-02,	 1.4715702330523579e+03,	 -3.1536059357493578e+01,	 7.1389977751860101e+02,	 9.5854865334450824e+03,	 5.3622568154341434e+02,	 2.7449414623663899e+00 
1.0405990000000001e+00,	 2.6719199999999999e-01,	 4.6726699171138759e-02,	 1.4714095558186832e+03,	 -3.1548443036260430e+01,	 7.1413890104057123e+02,	 9.6001436460830246e+03,	 5.3631547946889339e+02,	 2.7441828324069162e+00 
1.0412049999999999e+00,	 2.6717920000000001e-01,	 4.6790221285693739e-02,	 1.4712307262109098e+03,	 -3.1487173277509861e+01,	 7.1441830665472628e+02,	 9.6169556050909541e+03,	 5.3642038546230378e+02,	 2.7433104158916706e+00 
1.0418140000000000e+00,	 2.6716639999999997e-01,	 4.6851015958973286e-02,	 1.4710585294833841e+03,	 -3.1477043113727159e+01,	 7.1468133289052207e+02,	 9.6329962034534346e+03,	 5.3651912288924700e+02,	 2.7424842730041070e+00 
1.0424260000000001e+00,	 2.6715339999999999e-01,	 4.6902519743398846e-02,	 1.4709087619620664e+03,	 -3.1521875091783958e+01,	 7.1489525463957943e+02,	 9.6464724143751482e+03,	 5.3659941358425272e+02,	 2.7417966662950390e+00 
1.0430400000000000e+00,	 2.6714040000000000e-01,	 4.6963014400200911e-02,	 1.4707383391441640e+03,	 -3.1492392410660301e+01,	 7.1515594999647669e+02,	 9.6624366327137359e+03,	 5.3669724345792497e+02,	 2.7409782444142707e+00 
1.0436580000000000e+00,	 2.6712740000000001e-01,	 4.7026680852255594e-02,	 1.4705606351335653e+03,	 -3.1431371168279988e+01,	 7.1543385588754393e+02,	 9.6792955922119709e+03,	 5.3680151221121866e+02,	 2.7401124367109615e+00 
1.0442790000000000e+00,	 2.6711429999999997e-01,	 4.7083194044425708e-02,	 1.4704018953451362e+03,	 -3.1431460860739818e+01,	 7.1567069610163935e+02,	 9.6941355799791745e+03,	 5.3689035736709889e+02,	 2.7393634060530467e+00 
1.0449029999999999e+00,	 2.6710109999999998e-01,	 4.7136035769116368e-02,	 1.4702552525294429e+03,	 -3.1466599086336139e+01,	 7.1588410198271754e+02,	 9.7079093000739067e+03,	 5.3697039908204590e+02,	 2.7386834407797140e+00 
1.0455300000000001e+00,	 2.6708779999999999e-01,	 4.7189690888636948e-02,	 1.4701073543750495e+03,	 -3.1474061334243927e+01,	 7.1610451591777587e+02,	 9.7219522239351718e+03,	 5.3705305677034460e+02,	 2.7379869028470352e+00 
1.0461600000000000e+00,	 2.6707449999999999e-01,	 4.7246552079073890e-02,	 1.4699507324324297e+03,	 -3.1447888301852970e+01,	 7.1634570997063474e+02,	 9.7369451201514421e+03,	 5.3714349266001045e+02,	 2.7372333641933757e+00 
1.0467930000000001e+00,	 2.6706110000000000e-01,	 4.7301736863404671e-02,	 1.4697976320635680e+03,	 -3.1418784136308325e+01,	 7.1658042458593559e+02,	 9.7515121293619777e+03,	 5.3723148446400319e+02,	 2.7364989661958634e+00 
1.0474300000000001e+00,	 2.6704770000000000e-01,	 4.7360196591817338e-02,	 1.4696396410339621e+03,	 -3.1358944401163601e+01,	 7.1682709685658983e+02,	 9.7669248858259452e+03,	 5.3732394352584129e+02,	 2.7357317440172984e+00 
1.0480700000000001e+00,	 2.6703420000000000e-01,	 4.7412015516822476e-02,	 1.4694995925288536e+03,	 -3.1349940618176877e+01,	 7.1703629275365768e+02,	 9.7804647766317594e+03,	 5.3740234302067529e+02,	 2.7350717381756038e+00 
1.0487139999999999e+00,	 2.6702060000000000e-01,	 4.7460649065666709e-02,	 1.4693664384254607e+03,	 -3.1364681531451065e+01,	 7.1723142762983298e+02,	 9.7931616217724095e+03,	 5.3747546261525872e+02,	 2.7344525533758950e+00 
1.0493610000000000e+00,	 2.6700689999999999e-01,	 4.7505412179305803e-02,	 1.4692418872636731e+03,	 -3.1403722631335640e+01,	 7.1741154346264625e+02,	 9.8048598086159836e+03,	 5.3754294555022602e+02,	 2.7338791705033811e+00 
1.0500110000000000e+00,	 2.6699309999999998e-01,	 4.7552216902813887e-02,	 1.4691201097172725e+03,	 -3.1405097450572534e+01,	 7.1759513398579315e+02,	 9.8170316529180200e+03,	 5.3761172160950071e+02,	 2.7333030190208198e+00 
1.0506650000000000e+00,	 2.6697929999999997e-01,	 4.7603431196578901e-02,	 1.4689869916750833e+03,	 -3.1363335046523439e+01,	 7.1780473222183514e+02,	 9.8304751993709342e+03,	 5.3769022983523723e+02,	 2.7326547527586351e+00 
1.0513220000000001e+00,	 2.6696539999999996e-01,	 4.7651715662672955e-02,	 1.4688567380495174e+03,	 -3.1325015081273492e+01,	 7.1800560870942627e+02,	 9.8432001464283494e+03,	 5.3776546044074303e+02,	 2.7320287907504666e+00 
1.0519829999999999e+00,	 2.6695150000000001e-01,	 4.7700299108698746e-02,	 1.4687298108407401e+03,	 -3.1295201653815084e+01,	 7.1820086791722588e+02,	 9.8559153642198944e+03,	 5.3783857722328401e+02,	 2.7314202607300522e+00 
1.0526480000000000e+00,	 2.6693739999999999e-01,	 4.7740620117718360e-02,	 1.4686219482339166e+03,	 -3.1318499055160146e+01,	 7.1835586057909268e+02,	 9.8663753302647765e+03,	 5.3789660871522244e+02,	 2.7309260207691759e+00 
1.0533159999999999e+00,	 2.6692329999999997e-01,	 4.7786281555157364e-02,	 1.4685044080319390e+03,	 -3.1297523868489122e+01,	 7.1853594072272676e+02,	 9.8782877143157748e+03,	 5.3796402546090849e+02,	 2.7303645135017245e+00 
1.0539879999999999e+00,	 2.6690910000000001e-01,	 4.7828355388685725e-02,	 1.4683939221540536e+03,	 -3.1292628548678870e+01,	 7.1870208775532444e+02,	 9.8892713029398947e+03,	 5.3802621856434848e+02,	 2.7298433958824710e+00 
1.0546640000000000e+00,	 2.6689479999999999e-01,	 4.7868467607198019e-02,	 1.4682891705375587e+03,	 -3.1301000724889860e+01,	 7.1885747994095311e+02,	 9.8997051152153545e+03,	 5.3808437934670269e+02,	 2.7293540316480978e+00 
1.0553440000000001e+00,	 2.6688039999999996e-01,	 4.7909708880767073e-02,	 1.4681788367255017e+03,	 -3.1288596541299164e+01,	 7.1902463886758892e+02,	 9.9105382495634149e+03,	 5.3814693721217111e+02,	 2.7288312828772781e+00 
1.0560270000000000e+00,	 2.6686599999999999e-01,	 4.7955345383878828e-02,	 1.4680648265905165e+03,	 -3.1237696298889880e+01,	 7.1920454060264433e+02,	 9.9224605585703503e+03,	 5.3821425584598103e+02,	 2.7282761709639387e+00 
1.0567150000000001e+00,	 2.6685149999999996e-01,	 4.7992081439150014e-02,	 1.4679824337009627e+03,	 -3.1202925794946690e+01,	 7.1935351110355703e+02,	 9.9321184677683523e+03,	 5.3826999374203785e+02,	 2.7278392490966397e+00 
1.0000000000000000e+00,	 2.6872979999999996e-01,	 2.7968946652173862e-02,	 1.5887055280913646e+03,	 4.1980125564141673e+02,	 4.5997579309518107e+02,	 3.7011869731278343e+03,	 4.3042399591059797e+02,	 3.8177102771641018e+00 
1.0004999999999999e+00,	 2.6871940000000000e-01,	 2.5447747843706799e-02,	 1.5983089576263494e+03,	 3.8911699849451855e+02,	 4.5673019680500994e+02,	 3.3437901666597249e+03,	 4.2890276853251220e+02,	 3.8353529161678459e+00 
1.0009999999999999e+00,	 2.6870909999999998e-01,	 2.2487272492822140e-02,	 1.6126168955275680e+03,	 3.4960094384821201e+02,	 4.4967402720224140e+02,	 2.9091393435879472e+03,	 4.2557674491013950e+02,	 3.8772724528699856e+00 
1.0014989999999999e+00,	 2.6869870000000001e-01,	 1.9332923096423517e-02,	 1.6272678710875073e+03,	 3.0249226531657689e+02,	 4.4024554430105349e+02,	 2.4486258502562068e+03,	 4.2109149628858756e+02,	 3.9306046456569410e+00 
1.0019990000000001e+00,	 2.6868839999999999e-01,	 1.6706597135512539e-02,	 1.6398908375141214e+03,	 2.5455025609103228e+02,	 4.2992819354672622e+02,	 2.0663974798859431e+03,	 4.1612800995871544e+02,	 3.9880261576922522e+00 
1.0024999999999999e+00,	 2.6867799999999997e-01,	 1.4689768430384612e-02,	 1.6502046611259320e+03,	 2.1070130477349471e+02,	 4.1976080526858857e+02,	 1.7739720436909770e+03,	 4.1117805583922177e+02,	 4.0459397831378299e+00 
1.0029999999999999e+00,	 2.6866770000000001e-01,	 1.3186365603846884e-02,	 1.6583935187402526e+03,	 1.7178315948710662e+02,	 4.1047729455057271e+02,	 1.5571992629177771e+03,	 4.0660578771528304e+02,	 4.1004501921275729e+00 
1.0035000000000001e+00,	 2.6865729999999999e-01,	 1.2084296409040983e-02,	 1.6646344759475990e+03,	 1.3679604515850929e+02,	 4.0250380371453707e+02,	 1.3993337074445985e+03,	 4.0263727765055609e+02,	 4.1482642365479423e+00 
1.0040009999999999e+00,	 2.6864689999999997e-01,	 1.1311540200620869e-02,	 1.6687675917857841e+03,	 1.0398094618551646e+02,	 3.9717016938279352e+02,	 1.2924933071212595e+03,	 3.9996067957899783e+02,	 4.1804208923366648e+00 
1.0045020000000000e+00,	 2.6863660000000000e-01,	 1.0832535834486474e-02,	 1.6706569766710672e+03,	 7.1198036579123638e+01,	 3.9449911296425182e+02,	 1.2294365011030825e+03,	 3.9861349913148132e+02,	 4.1949743497463201e+00 
1.0050040000000000e+00,	 2.6862619999999998e-01,	 1.0644413317475912e-02,	 1.6698247595513812e+03,	 3.4367879552604123e+01,	 3.9576659197133546e+02,	 1.2119670095440852e+03,	 3.9925333463635201e+02,	 4.1832547217312959e+00 
1.0055050000000001e+00,	 2.6861580000000002e-01,	 1.0711242106478131e-02,	 1.6661304348985684e+03,	 -6.0359024526266758e+00,	 4.0103810596893663e+02,	 1.2358205531737742e+03,	 4.0190351716100128e+02,	 4.1456252480328351e+00 
1.0060070000000001e+00,	 2.6860539999999999e-01,	 1.1030463871705668e-02,	 1.6595151335445414e+03,	 -4.7600833593200790e+01,	 4.0993112915903009e+02,	 1.3008721401088885e+03,	 4.0633519061748723e+02,	 4.0857836403449639e+00 
1.0065100000000000e+00,	 2.6859499999999997e-01,	 1.1582606737630822e-02,	 1.6502192313021826e+03,	 -9.0120390825390160e+01,	 4.2171323441506115e+02,	 1.4052496280334965e+03,	 4.1213320060980681e+02,	 4.0100583658289990e+00 
1.0070129999999999e+00,	 2.6858460000000001e-01,	 1.2349284917446560e-02,	 1.6389305424789809e+03,	 -1.2988013429047930e+02,	 4.3524993649700832e+02,	 1.5463594919368356e+03,	 4.1869554967253123e+02,	 3.9266449979204507e+00 
1.0075160000000001e+00,	 2.6857409999999998e-01,	 1.3308601573045441e-02,	 1.6265717294769247e+03,	 -1.6444722910819743e+02,	 4.4958192460080056e+02,	 1.7213580035478549e+03,	 4.2553315919000715e+02,	 3.8419178605316056e+00 
1.0080199999999999e+00,	 2.6856370000000002e-01,	 1.4440158488804606e-02,	 1.6140240220428484e+03,	 -1.9226966082502258e+02,	 4.6422097592230875e+02,	 1.9285311479534159e+03,	 4.3240565667142681e+02,	 3.7590527782485936e+00 
1.0085249999999999e+00,	 2.6855329999999999e-01,	 1.5724312876026471e-02,	 1.6020515477897764e+03,	 -2.1285342243898396e+02,	 4.8071442701602894e+02,	 2.1746470012396185e+03,	 4.4002014993036568e+02,	 3.6728542214816580e+00 
1.0090300000000001e+00,	 2.6854279999999997e-01,	 1.7140326622375100e-02,	 1.5910099073754759e+03,	 -2.2696565986638458e+02,	 4.9622401278974132e+02,	 2.4469596466138937e+03,	 4.4706212157829765e+02,	 3.5948410692650445e+00 
1.0095360000000000e+00,	 2.6853230000000000e-01,	 1.8673055547682338e-02,	 1.5809596539479392e+03,	 -2.3599553344307739e+02,	 5.0979185049764817e+02,	 2.7386606085581325e+03,	 4.5313272817314288e+02,	 3.5276122482472636e+00 
1.0100420000000001e+00,	 2.6852179999999998e-01,	 2.0304607275741904e-02,	 1.5719447148721993e+03,	 -2.3887252944486420e+02,	 5.2413947781513684e+02,	 3.0617618198514897e+03,	 4.5946498736555236e+02,	 3.4605262538978900e+00 
1.0105489999999999e+00,	 2.6851130000000001e-01,	 2.2034899144234392e-02,	 1.5637995027772372e+03,	 -2.3380971262468790e+02,	 5.3890054477954072e+02,	 3.4162498618848485e+03,	 4.6588990255600316e+02,	 3.3938958230652774e+00 
1.0110570000000001e+00,	 2.6850079999999998e-01,	 2.3836007333719905e-02,	 1.5562680846721132e+03,	 -2.2230293610424994e+02,	 5.5415576874265548e+02,	 3.8001024601659115e+03,	 4.7243810176583082e+02,	 3.3275580005171879e+00 
1.0115660000000000e+00,	 2.6849030000000002e-01,	 2.5592911189593025e-02,	 1.5492844730221457e+03,	 -2.0668764303179586e+02,	 5.6990251834945457e+02,	 4.1961422572278170e+03,	 4.7910342398196991e+02,	 3.2623657639937216e+00 
1.0120750000000001e+00,	 2.6847969999999999e-01,	 2.7436662528179376e-02,	 1.5424952716594130e+03,	 -1.8854481721769517e+02,	 5.8544973963239522e+02,	 4.6211581976717607e+03,	 4.8559454029117575e+02,	 3.2001509054374746e+00 
1.0125860000000000e+00,	 2.6846919999999996e-01,	 2.9391316319921916e-02,	 1.5360486079769612e+03,	 -1.6950835213461019e+02,	 5.9994631824270346e+02,	 5.0729591688640476e+03,	 4.9156978758314841e+02,	 3.1437514367128179e+00 
1.0130969999999999e+00,	 2.6845859999999999e-01,	 3.1253658038904675e-02,	 1.5302839272962910e+03,	 -1.5088330166284362e+02,	 6.1304916593819507e+02,	 5.5122143757746881e+03,	 4.9690874459877108e+02,	 3.0945407320594036e+00 
1.0136090000000000e+00,	 2.6844799999999996e-01,	 3.3023487870685292e-02,	 1.5251162759646086e+03,	 -1.3339372802138428e+02,	 6.2453280817628831e+02,	 5.9334615978582124e+03,	 5.0154120088203558e+02,	 3.0524686212739573e+00 
1.0141220000000000e+00,	 2.6843729999999999e-01,	 3.4683622668242105e-02,	 1.5205601549929381e+03,	 -1.1750943650571635e+02,	 6.3432984934589388e+02,	 6.3295019574157986e+03,	 5.0545972960368420e+02,	 3.0172413196308514e+00 
1.0146360000000001e+00,	 2.6842669999999996e-01,	 3.6219699719933288e-02,	 1.5166070063851048e+03,	 -1.0363712897630691e+02,	 6.4251740648018676e+02,	 6.6951402737629487e+03,	 5.0871135937195038e+02,	 2.9882247930532753e+00 