TITLE = "Final State"
VARIABLES = "X", "Y", "rho", "u", "v", "T", "p", "c", "M"
ZONE I=77, J=25, DATAPACKING=POINT, STRANDID=76000, SOLUTIONTIME=0.001834
-5.0000000000000000e-01,	 1.5710879999999999e-01,	 1.1586407740522196e-02,	 1.7360000000000000e+03,	 -2.3044142968483764e-12,	 3.0000000000000000e+02,	 9.9999999999999977e+02,	 3.4760788074254771e+02,	 4.9941330337264445e+00 
-4.9499440000000000e-01,	 1.5710879999999999e-01,	 1.1586407740522199e-02,	 1.7360000000000000e+03,	 -1.0538585218829301e-12,	 3.0000000000000000e+02,	 1.0000000000000000e+03,	 3.4760788074254771e+02,	 4.9941330337264445e+00 
-4.8998870000000000e-01,	 1.5710879999999999e-01,	 1.1586407740522203e-02,	 1.7360000000000000e+03,	 9.8472515611801912e-14,	 3.0000000000000000e+02,	 1.0000000000000005e+03,	 3.4760788074254771e+02,	 4.9941330337264445e+00 
-4.8498310000000000e-01,	 1.5710879999999999e-01,	 1.1586407740522199e-02,	 1.7360000000000000e+03,	 1.9583445941617350e-13,	 3.0000000000000000e+02,	 1.0000000000000000e+03,	 3.4760788074254771e+02,	 4.9941330337264445e+00 
-4.7997750000000000e-01,	 1.5710879999999999e-01,	 1.1586407740522199e-02,	 1.7360000000000000e+03,	 1.9363023653595956e-13,	 3.0000000000000000e+02,	 1.0000000000000000e+03,	 3.4760788074254771e+02,	 4.9941330337264445e+00 
-4.7497190000000000e-01,	 1.5710879999999999e-01,	 1.1586407740522199e-02,	 1.7360000000000000e+03,	 9.3876962763181467e-14,	 3.0000000000000000e+02,	 1.0000000000000000e+03,	 3.4760788074254771e+02,	 4.9941330337264445e+00 
-4.6996620000000000e-01,	 1.5710879999999999e-01,	 1.1586407740522199e-02,	 1.7360000000000000e+03,	 1.1232305904461500e-13,	 3.0000000000000000e+02,	 1.0000000000000000e+03,	 3.4760788074254771e+02,	 4.9941330337264445e+00 
-4.6496060000000000e-01,	 1.5710879999999999e-01,	 1.1586407740522199e-02,	 1.7360000000000000e+03,	 3.1507362003164637e-14,	 3.0000000000000000e+02,	 1.0000000000000000e+03,	 3.4760788074254771e+02,	 4.9941330337264445e+00 
-4.5995500000000000e-01,	 1.5710879999999999e-01,	 1.1586407740522199e-02,	 1.7360000000000000e+03,	 7.5465851907869346e-14,	 3.0000000000000000e+02,	 1.0000000000000000e+03,	 3.4760788074254771e+02,	 4.9941330337264445e+00 
-4.5494940000000000e-01,	 1.5710879999999999e-01,	 1.1586407740522199e-02,	 1.7360000000000000e+03,	 1.2397532809713276e-13,	 3.0000000000000000e+02,	 1.0000000000000000e+03,	 3.4760788074254771e+02,	 4.9941330337264445e+00 
-4.4994370000000000e-01,	 1.5710879999999999e-01,	 1.1586407740522199e-02,	 1.7360000000000000e+03,	 7.9761182968399091e-14,	 3.0000000000000000e+02,	 1.0000000000000000e+03,	 3.4760788074254771e+02,	 4.9941330337264445e+00 
-4.4493810000000000e-01,	 1.5710879999999999e-01,	 1.1586407740522199e-02,	 1.7360000000000000e+03,	 9.0770398609659215e-14,	 3.0000000000000000e+02,	 1.0000000000000000e+03,	 3.4760788074254771e+02,	 4.9941330337264445e+00 
-4.3993250000000000e-01,	 1.5710879999999999e-01,	 1.1586407740522199e-02,	 1.7360000000000000e+03,	 7.2213948724901614e-14,	 3.0000000000000000e+02,	 1.0000000000000000e+03,	 3.4760788074254771e+02,	 4.9941330337264445e+00 
-4.3492690000000001e-01,	 1.5710879999999999e-01,	 1.1586407740522199e-02,	 1.7360000000000000e+03,	 3.3097323485197118e-15,	 3.0000000000000000e+02,	 1.0000000000000000e+03,	 3.4760788074254771e+02,	 4.9941330337264445e+00 
-4.2992120000000000e-01,	 1.5710879999999999e-01,	 1.1586407740522199e-02,	 1.7360000000000000e+03,	 -3.9515440101577307e-15,	 3.0000000000000000e+02,	 1.0000000000000000e+03,	 3.4760788074254771e+02,	 4.9941330337264445e+00 
-4.2491560000000000e-01,	 1.5710879999999999e-01,	 1.1586407740522199e-02,	 1.7360000000000000e+03,	 -9.7269117989573852e-15,	 3.0000000000000000e+02,	 1.0000000000000000e+03,	 3.4760788074254771e+02,	 4.9941330337264445e+00 
-4.1991000000000001e-01,	 1.5710879999999999e-01,	 1.1586407740522199e-02,	 1.7360000000000000e+03,	 3.5397036542117870e-14,	 3.0000000000000000e+02,	 1.0000000000000000e+03,	 3.4760788074254771e+02,	 4.9941330337264445e+00 
-4.1490430000000000e-01,	 1.5710879999999999e-01,	 1.1586407740522199e-02,	 1.7360000000000000e+03,	 7.4044856908639515e-14,	 3.0000000000000000e+02,	 1.0000000000000000e+03,	 3.4760788074254771e+02,	 4.9941330337264445e+00 
-4.0989870000000000e-01,	 1.5710879999999999e-01,	 1.1586407740522199e-02,	 1.7360000000000000e+03,	 1.4284862892144601e-14,	 3.0000000000000000e+02,	 1.0000000000000000e+03,	 3.4760788074254771e+02,	 4.9941330337264445e+00 
-4.0489310000000001e-01,	 1.5710879999999999e-01,	 1.1586407740522199e-02,	 1.7360000000000000e+03,	 -4.7251402553900124e-14,	 3.0000000000000000e+02,	 1.0000000000000000e+03,	 3.4760788074254771e+02,	 4.9941330337264445e+00 
-3.9988750000000001e-01,	 1.5710879999999999e-01,	 1.1586407740522199e-02,	 1.7360000000000000e+03,	 -4.7221472089563783e-14,	 3.0000000000000000e+02,	 1.0000000000000000e+03,	 3.4760788074254771e+02,	 4.9941330337264445e+00 
-3.9488180000000001e-01,	 1.5710879999999999e-01,	 1.1586407740522199e-02,	 1.7360000000000000e+03,	 9.0064720556086940e-15,	 3.0000000000000000e+02,	 1.0000000000000000e+03,	 3.4760788074254771e+02,	 4.9941330337264445e+00 
-3.8987620000000001e-01,	 1.5710879999999999e-01,	 1.1586407740522199e-02,	 1.7360000000000000e+03,	 5.5236800989006045e-14,	 3.0000000000000000e+02,	 1.0000000000000000e+03,	 3.4760788074254771e+02,	 4.9941330337264445e+00 
-3.8487060000000001e-01,	 1.5710879999999999e-01,	 1.1586407740522199e-02,	 1.7360000000000000e+03,	 -1.6538241669904331e-14,	 3.0000000000000000e+02,	 1.0000000000000000e+03,	 3.4760788074254771e+02,	 4.9941330337264445e+00 
-3.7986500000000001e-01,	 1.5710879999999999e-01,	 1.1586407740522199e-02,	 1.7360000000000000e+03,	 -1.9075603089202964e-14,	 3.0000000000000000e+02,	 1.0000000000000000e+03,	 3.4760788074254771e+02,	 4.9941330337264445e+00 
-3.7485930000000001e-01,	 1.5710879999999999e-01,	 1.1586407740522199e-02,	 1.7360000000000000e+03,	 -3.3807250916989384e-14,	 3.0000000000000000e+02,	 1.0000000000000000e+03,	 3.4760788074254771e+02,	 4.9941330337264445e+00 
-3.6985370000000001e-01,	 1.5710879999999999e-01,	 1.1586407740522199e-02,	 1.7360000000000000e+03,	 -3.2335874646398232e-14,	 3.0000000000000000e+02,	 1.0000000000000000e+03,	 3.4760788074254771e+02,	 4.9941330337264445e+00 
-3.6484810000000001e-01,	 1.5710879999999999e-01,	 1.1586407740522199e-02,	 1.7360000000000000e+03,	 1.7754973406896690e-14,	 3.0000000000000000e+02,	 1.0000000000000000e+03,	 3.4760788074254771e+02,	 4.9941330337264445e+00 
-3.5984250000000001e-01,	 1.5710879999999999e-01,	 1.1586407740522199e-02,	 1.7360000000000000e+03,	 -4.3418676866988646e-14,	 3.0000000000000000e+02,	 1.0000000000000000e+03,	 3.4760788074254771e+02,	 4.9941330337264445e+00 
-3.5483680000000001e-01,	 1.5710879999999999e-01,	 1.1586407740522199e-02,	 1.7360000000000000e+03,	 -9.3592425324315303e-14,	 3.0000000000000000e+02,	 1.0000000000000000e+03,	 3.4760788074254771e+02,	 4.9941330337264445e+00 
-3.4983120000000001e-01,	 1.5710879999999999e-01,	 1.1586407740522199e-02,	 1.7360000000000000e+03,	 -4.9930174427889958e-14,	 3.0000000000000000e+02,	 1.0000000000000000e+03,	 3.4760788074254771e+02,	 4.9941330337264445e+00 
-3.4482560000000001e-01,	 1.5710879999999999e-01,	 1.1586407740522199e-02,	 1.7360000000000000e+03,	 -5.6653562439493955e-14,	 3.0000000000000000e+02,	 1.0000000000000000e+03,	 3.4760788074254771e+02,	 4.9941330337264445e+00 
-3.3981990000000001e-01,	 1.5710879999999999e-01,	 1.1586407740522199e-02,	 1.7360000000000000e+03,	 -1.0146572372440755e-13,	 3.0000000000000000e+02,	 1.0000000000000000e+03,	 3.4760788074254771e+02,	 4.9941330337264445e+00 
-3.3481430000000001e-01,	 1.5710879999999999e-01,	 1.1586407740522199e-02,	 1.7360000000000000e+03,	 -6.6487190321412039e-14,	 3.0000000000000000e+02,	 1.0000000000000000e+03,	 3.4760788074254771e+02,	 4.9941330337264445e+00 
-3.2980870000000001e-01,	 1.5710879999999999e-01,	 1.1586407740522199e-02,	 1.7360000000000000e+03,	 -3.7666869516952360e-14,	 3.0000000000000000e+02,	 1.0000000000000000e+03,	 3.4760788074254771e+02,	 4.9941330337264445e+00 
-3.2480310000000001e-01,	 1.5710879999999999e-01,	 1.1586407740522199e-02,	 1.7360000000000000e+03,	 -7.6202739009019317e-14,	 3.0000000000000000e+02,	 1.0000000000000000e+03,	 3.4760788074254771e+02,	 4.9941330337264445e+00 
-3.1979740000000001e-01,	 1.5710879999999999e-01,	 1.1586407740522199e-02,	 1.7360000000000000e+03,	 -7.8280621774913293e-14,	 3.0000000000000000e+02,	 1.0000000000000000e+03,	 3.4760788074254771e+02,	 4.9941330337264445e+00 
-3.1479180000000001e-01,	 1.5710879999999999e-01,	 1.1586407740522199e-02,	 1.7360000000000000e+03,	 -7.9598991708728157e-14,	 3.0000000000000000e+02,	 1.0000000000000000e+03,	 3.4760788074254771e+02,	 4.9941330337264445e+00 
-3.0978620000000001e-01,	 1.5710879999999999e-01,	 1.1586407740522199e-02,	 1.7360000000000000e+03,	 -1.0488489669819189e-13,	 3.0000000000000000e+02,	 1.0000000000000000e+03,	 3.4760788074254771e+02,	 4.9941330337264445e+00 
-3.0478060000000001e-01,	 1.5710879999999999e-01,	 1.1586407740522199e-02,	 1.7360000000000000e+03,	 -1.0725774382008546e-13,	 3.0000000000000000e+02,	 1.0000000000000000e+03,	 3.4760788074254771e+02,	 4.9941330337264445e+00 
-2.9977490000000001e-01,	 1.5710879999999999e-01,	 1.1586407740522199e-02,	 1.7360000000000000e+03,	 -8.2360390141058182e-14,	 3.0000000000000000e+02,	 1.0000000000000000e+03,	 3.4760788074254771e+02,	 4.9941330337264445e+00 
-2.9476930000000001e-01,	 1.5710879999999999e-01,	 1.1586407740522199e-02,	 1.7360000000000000e+03,	 -8.7445268696095169e-14,	 3.0000000000000000e+02,	 1.0000000000000000e+03,	 3.4760788074254771e+02,	 4.9941330337264445e+00 
-2.8976370000000001e-01,	 1.5710879999999999e-01,	 1.1586407740522199e-02,	 1.7360000000000000e+03,	 -9.2852650596950515e-14,	 3.0000000000000000e+02,	 1.0000000000000000e+03,	 3.4760788074254771e+02,	 4.9941330337264445e+00 
-2.8475810000000001e-01,	 1.5710879999999999e-01,	 1.1586407740522199e-02,	 1.7360000000000000e+03,	 -1.0701053663438910e-13,	 3.0000000000000000e+02,	 1.0000000000000000e+03,	 3.4760788074254771e+02,	 4.9941330337264445e+00 
-2.7975240000000001e-01,	 1.5710879999999999e-01,	 1.1586407740522199e-02,	 1.7360000000000000e+03,	 -8.8226048943354288e-14,	 3.0000000000000000e+02,	 1.0000000000000000e+03,	 3.4760788074254771e+02,	 4.9941330337264445e+00 
-2.7474680000000001e-01,	 1.5710879999999999e-01,	 1.1586407740522199e-02,	 1.7360000000000000e+03,	 -5.0612036393784645e-14,	 3.0000000000000000e+02,	 1.0000000000000000e+03,	 3.4760788074254771e+02,	 4.9941330337264445e+00 
-2.6974120000000001e-01,	 1.5710879999999999e-01,	 1.1586407740522199e-02,	 1.7360000000000000e+03,	 -1.0895910763374552e-13,	 3.0000000000000000e+02,	 1.0000000000000000e+03,	 3.4760788074254771e+02,	 4.9941330337264445e+00 
-2.6473550000000001e-01,	 1.5710879999999999e-01,	 1.1586407740522199e-02,	 1.7360000000000000e+03,	 -3.6883714638019110e-14,	 3.0000000000000000e+02,	 1.0000000000000000e+03,	 3.4760788074254771e+02,	 4.9941330337264445e+00 
-2.5972990000000001e-01,	 1.5710879999999999e-01,	 1.1586407740522199e-02,	 1.7360000000000000e+03,	 -1.2028586752574013e-13,	 3.0000000000000000e+02,	 1.0000000000000000e+03,	 3.4760788074254771e+02,	 4.9941330337264445e+00 
-2.5472430000000001e-01,	 1.5710879999999999e-01,	 1.1586407740522199e-02,	 1.7360000000000000e+03,	 -4.3433603351528427e-13,	 3.0000000000000000e+02,	 1.0000000000000000e+03,	 3.4760788074254771e+02,	 4.9941330337264445e+00 
-2.4971869999999999e-01,	 1.5710879999999999e-01,	 1.1586407740522199e-02,	 1.7360000000000000e+03,	 4.9095299847101011e-14,	 3.0000000000000000e+02,	 1.0000000000000000e+03,	 3.4760788074254771e+02,	 4.9941330337264445e+00 
-2.4471300000000001e-01,	 1.5710879999999999e-01,	 1.1586407740522199e-02,	 1.7360000000000000e+03,	 9.2520627786647478e-13,	 3.0000000000000000e+02,	 1.0000000000000000e+03,	 3.4760788074254771e+02,	 4.9941330337264445e+00 
-2.3970739999999999e-01,	 1.5710879999999999e-01,	 1.1586407740522199e-02,	 1.7360000000000000e+03,	 1.6214708849035409e-12,	 3.0000000000000000e+02,	 1.0000000000000000e+03,	 3.4760788074254771e+02,	 4.9941330337264445e+00 
-2.3470179999999999e-01,	 1.5710879999999999e-01,	 1.1586407740522197e-02,	 1.7360000000000000e+03,	 1.8110374701703437e-12,	 3.0000000000000000e+02,	 9.9999999999999989e+02,	 3.4760788074254771e+02,	 4.9941330337264445e+00 
-2.2969619999999999e-01,	 1.5710879999999999e-01,	 1.1586407740522196e-02,	 1.7360000000000000e+03,	 1.3418255452549182e-12,	 3.0000000000000000e+02,	 9.9999999999999977e+02,	 3.4760788074254771e+02,	 4.9941330337264445e+00 
-2.2469049999999999e-01,	 1.5710879999999999e-01,	 1.1586407740522194e-02,	 1.7360000000000000e+03,	 1.0315950492700187e-12,	 3.0000000000000000e+02,	 9.9999999999999966e+02,	 3.4760788074254771e+02,	 4.9941330337264445e+00 
-2.1968489999999999e-01,	 1.5710879999999999e-01,	 1.1586407740522199e-02,	 1.7360000000000000e+03,	 -1.2202701221372213e-13,	 2.9999999999999994e+02,	 9.9999999999999989e+02,	 3.4760788074254765e+02,	 4.9941330337264453e+00 
-2.1467929999999999e-01,	 1.5710879999999999e-01,	 1.1586407740522220e-02,	 1.7360000000000000e+03,	 -1.1048566418493299e-12,	 2.9999999999999989e+02,	 1.0000000000000015e+03,	 3.4760788074254759e+02,	 4.9941330337264462e+00 
-2.0967369999999999e-01,	 1.5710879999999999e-01,	 1.1586407740522239e-02,	 1.7360000000000000e+03,	 -6.2981491136684904e-12,	 2.9999999999999966e+02,	 1.0000000000000024e+03,	 3.4760788074254748e+02,	 4.9941330337264480e+00 
-2.0466799999999999e-01,	 1.5710879999999999e-01,	 1.1586407740522227e-02,	 1.7360000000000000e+03,	 -1.6197784638042431e-11,	 3.0000000000000023e+02,	 1.0000000000000032e+03,	 3.4760788074254782e+02,	 4.9941330337264436e+00 
-1.9966239999999999e-01,	 1.5710879999999999e-01,	 1.1586407740522631e-02,	 1.7360000000000000e+03,	 -1.7626919089117156e-11,	 3.0000000000000057e+02,	 1.0000000000000392e+03,	 3.4760788074254799e+02,	 4.9941330337264409e+00 
-1.9465679999999999e-01,	 1.5710879999999999e-01,	 1.1586407740522619e-02,	 1.7360000000000000e+03,	 -2.4805503256106929e-11,	 3.0000000000000227e+02,	 1.0000000000000439e+03,	 3.4760788074254901e+02,	 4.9941330337264258e+00 
-1.8965109999999999e-01,	 1.5710879999999999e-01,	 1.1586407740523311e-02,	 1.7360000000000000e+03,	 -3.6634102439602755e-11,	 3.0000000000000568e+02,	 1.0000000000001151e+03,	 3.4760788074255095e+02,	 4.9941330337263983e+00 
-1.8464549999999999e-01,	 1.5710879999999999e-01,	 1.1586407740523368e-02,	 1.7360000000000000e+03,	 -5.2658962129973621e-11,	 3.0000000000000966e+02,	 1.0000000000001332e+03,	 3.4760788074255328e+02,	 4.9941330337263645e+00 
-1.7963989999999999e-01,	 1.5710879999999999e-01,	 1.1586407740523823e-02,	 1.7360000000000000e+03,	 -7.3483371730805491e-11,	 3.0000000000001450e+02,	 1.0000000000001885e+03,	 3.4760788074255606e+02,	 4.9941330337263246e+00 
-1.7463429999999999e-01,	 1.5710879999999999e-01,	 1.1586407740525240e-02,	 1.7360000000000000e+03,	 -9.3820273154500305e-11,	 3.0000000000002069e+02,	 1.0000000000003315e+03,	 3.4760788074255964e+02,	 4.9941330337262730e+00 
-1.6962859999999999e-01,	 1.5710879999999999e-01,	 1.1586407740525256e-02,	 1.7360000000000000e+03,	 -1.2539823509207740e-10,	 3.0000000000002831e+02,	 1.0000000000003582e+03,	 3.4760788074256408e+02,	 4.9941330337262100e+00 
-1.6462299999999999e-01,	 1.5710879999999999e-01,	 1.1586407740526713e-02,	 1.7360000000000000e+03,	 -1.5988561802009332e-10,	 3.0000000000003917e+02,	 1.0000000000005201e+03,	 3.4760788074257039e+02,	 4.9941330337261185e+00 
-1.5961739999999999e-01,	 1.5710879999999999e-01,	 1.1586407740528520e-02,	 1.7360000000000000e+03,	 -1.9706412908356224e-10,	 3.0000000000005195e+02,	 1.0000000000007188e+03,	 3.4760788074257778e+02,	 4.9941330337260128e+00 
-1.5461179999999999e-01,	 1.5710879999999999e-01,	 1.1586407740528954e-02,	 1.7360000000000000e+03,	 -2.4870762649984030e-10,	 3.0000000000006656e+02,	 1.0000000000008049e+03,	 3.4760788074258625e+02,	 4.9941330337258911e+00 
-1.4960609999999999e-01,	 1.5710879999999999e-01,	 1.1586407740532181e-02,	 1.7360000000000002e+03,	 -3.0669291203011545e-10,	 3.0000000000008589e+02,	 1.0000000000011479e+03,	 3.4760788074259744e+02,	 4.9941330337257313e+00 
-1.4460049999999999e-01,	 1.5710879999999999e-01,	 1.1586407740534262e-02,	 1.7359999999999991e+03,	 -3.7340826529703206e-10,	 3.0000000000010863e+02,	 1.0000000000014034e+03,	 3.4760788074261063e+02,	 4.9941330337255385e+00 
-1.3959489999999999e-01,	 1.5710879999999999e-01,	 1.1586407740535775e-02,	 1.7359999999999918e+03,	 -4.5713053220158823e-10,	 3.0000000000013563e+02,	 1.0000000000016239e+03,	 3.4760788074262626e+02,	 4.9941330337252925e+00 
-1.3458930000000000e-01,	 1.5710879999999999e-01,	 1.1586407740539695e-02,	 1.7359999999999868e+03,	 -5.5270864584515205e-10,	 3.0000000000016803e+02,	 1.0000000000020702e+03,	 3.4760788074264502e+02,	 4.9941330337250083e+00 
-1.2958359999999999e-01,	 1.5710879999999999e-01,	 1.1586407740543179e-02,	 1.7359999999999768e+03,	 -6.6193744030571506e-10,	 3.0000000000020469e+02,	 1.0000000000024932e+03,	 3.4760788074266628e+02,	 4.9941330337246743e+00 
-1.2457799999999999e-01,	 1.5710879999999999e-01,	 1.1555936475102852e-02,	 1.7359790455129992e+03,	 9.7209538891078751e-01,	 3.0001957525188271e+02,	 9.9743516441615077e+02,	 3.4761922141059028e+02,	 4.9939106089718521e+00 
-1.1957240000000000e-01,	 1.5710879999999999e-01,	 1.1525465209647969e-02,	 1.7359580910260129e+03,	 1.9441907789376234e+00,	 3.0003915050365009e+02,	 9.9486998562055169e+02,	 3.4763056170860216e+02,	 4.9936897699506106e+00 
-5.0000000000000000e-01,	 1.6314759999999998e-01,	 1.1586407740521439e-02,	 1.7359999999999986e+03,	 4.5325690498567625e-13,	 3.0000000000000011e+02,	 9.9999999999993486e+02,	 3.4760788074254776e+02,	 4.9941330337264400e+00 
-4.9501550000000000e-01,	 1.6314759999999998e-01,	 1.1586407740522157e-02,	 1.7360000000000007e+03,	 3.1226911511006723e-13,	 2.9999999999999994e+02,	 9.9999999999999625e+02,	 3.4760788074254765e+02,	 4.9941330337264471e+00 
-4.9003099999999999e-01,	 1.6314759999999998e-01,	 1.1586407740522341e-02,	 1.7360000000000000e+03,	 1.2466641062016523e-13,	 3.0000000000000000e+02,	 1.0000000000000123e+03,	 3.4760788074254771e+02,	 4.9941330337264445e+00 
-4.8504659999999999e-01,	 1.6314759999999998e-01,	 1.1586407740522282e-02,	 1.7360000000000000e+03,	 -1.2032838846076171e-13,	 3.0000000000000000e+02,	 1.0000000000000073e+03,	 3.4760788074254771e+02,	 4.9941330337264445e+00 
-4.8006209999999999e-01,	 1.6314759999999998e-01,	 1.1586407740522253e-02,	 1.7360000000000000e+03,	 -1.3279182519513387e-13,	 3.0000000000000000e+02,	 1.0000000000000047e+03,	 3.4760788074254771e+02,	 4.9941330337264445e+00 
-4.7507759999999999e-01,	 1.6314759999999998e-01,	 1.1586407740522225e-02,	 1.7360000000000000e+03,	 5.7199780820627236e-14,	 3.0000000000000000e+02,	 1.0000000000000023e+03,	 3.4760788074254771e+02,	 4.9941330337264445e+00 
-4.7009309999999999e-01,	 1.6314759999999998e-01,	 1.1586407740522196e-02,	 1.7360000000000000e+03,	 4.3415891403545615e-14,	 3.0000000000000000e+02,	 9.9999999999999977e+02,	 3.4760788074254771e+02,	 4.9941330337264445e+00 
-4.6510869999999999e-01,	 1.6314759999999998e-01,	 1.1586407740522199e-02,	 1.7360000000000000e+03,	 4.6515121141476096e-14,	 3.0000000000000000e+02,	 1.0000000000000000e+03,	 3.4760788074254771e+02,	 4.9941330337264445e+00 
-4.6012419999999998e-01,	 1.6314759999999998e-01,	 1.1586407740522199e-02,	 1.7360000000000000e+03,	 2.1250115464723540e-14,	 3.0000000000000000e+02,	 1.0000000000000000e+03,	 3.4760788074254771e+02,	 4.9941330337264445e+00 
-4.5513969999999998e-01,	 1.6314759999999998e-01,	 1.1586407740522199e-02,	 1.7360000000000000e+03,	 1.8312008092965318e-14,	 3.0000000000000000e+02,	 1.0000000000000000e+03,	 3.4760788074254771e+02,	 4.9941330337264445e+00 
-4.5015519999999998e-01,	 1.6314759999999998e-01,	 1.1586407740522199e-02,	 1.7360000000000000e+03,	 6.2917032922160327e-14,	 3.0000000000000000e+02,	 1.0000000000000000e+03,	 3.4760788074254771e+02,	 4.9941330337264445e+00 
-4.4517079999999998e-01,	 1.6314759999999998e-01,	 1.1586407740522199e-02,	 1.7360000000000000e+03,	 1.3475662838237307e-14,	 3.0000000000000000e+02,	 1.0000000000000000e+03,	 3.4760788074254771e+02,	 4.9941330337264445e+00 
-4.4018629999999997e-01,	 1.6314759999999998e-01,	 1.1586407740522199e-02,	 1.7360000000000000e+03,	 -1.7846843034895323e-14,	 3.0000000000000000e+02,	 1.0000000000000000e+03,	 3.4760788074254771e+02,	 4.9941330337264445e+00 
-4.3520180000000003e-01,	 1.6314759999999998e-01,	 1.1586407740522199e-02,	 1.7360000000000000e+03,	 3.4482512522254631e-14,	 3.0000000000000000e+02,	 1.0000000000000000e+03,	 3.4760788074254771e+02,	 4.9941330337264445e+00 
-4.3021730000000002e-01,	 1.6314759999999998e-01,	 1.1586407740522199e-02,	 1.7360000000000000e+03,	 2.1965043921354458e-14,	 3.0000000000000000e+02,	 1.0000000000000000e+03,	 3.4760788074254771e+02,	 4.9941330337264445e+00 
-4.2523290000000002e-01,	 1.6314759999999998e-01,	 1.1586407740522199e-02,	 1.7360000000000000e+03,	 -2.4519379098634811e-14,	 3.0000000000000000e+02,	 1.0000000000000000e+03,	 3.4760788074254771e+02,	 4.9941330337264445e+00 
-4.2024840000000002e-01,	 1.6314759999999998e-01,	 1.1586407740522199e-02,	 1.7360000000000000e+03,	 -1.5896564025691260e-14,	 3.0000000000000000e+02,	 1.0000000000000000e+03,	 3.4760788074254771e+02,	 4.9941330337264445e+00 
-4.1526390000000002e-01,	 1.6314759999999998e-01,	 1.1586407740522199e-02,	 1.7360000000000000e+03,	 -6.7998668650487711e-14,	 3.0000000000000000e+02,	 1.0000000000000000e+03,	 3.4760788074254771e+02,	 4.9941330337264445e+00 
-4.1027940000000002e-01,	 1.6314759999999998e-01,	 1.1586407740522199e-02,	 1.7360000000000000e+03,	 -4.2275497895557890e-14,	 3.0000000000000000e+02,	 1.0000000000000000e+03,	 3.4760788074254771e+02,	 4.9941330337264445e+00 
-4.0529500000000002e-01,	 1.6314759999999998e-01,	 1.1586407740522199e-02,	 1.7360000000000000e+03,	 -1.6320883604717075e-14,	 3.0000000000000000e+02,	 1.0000000000000000e+03,	 3.4760788074254771e+02,	 4.9941330337264445e+00 
-4.0031050000000001e-01,	 1.6314759999999998e-01,	 1.1586407740522199e-02,	 1.7360000000000000e+03,	 -1.8557557948778305e-14,	 3.0000000000000000e+02,	 1.0000000000000000e+03,	 3.4760788074254771e+02,	 4.9941330337264445e+00 
-3.9532600000000001e-01,	 1.6314759999999998e-01,	 1.1586407740522199e-02,	 1.7360000000000000e+03,	 -5.6705447731937742e-14,	 3.0000000000000000e+02,	 1.0000000000000000e+03,	 3.4760788074254771e+02,	 4.9941330337264445e+00 
-3.9034150000000001e-01,	 1.6314759999999998e-01,	 1.1586407740522199e-02,	 1.7360000000000000e+03,	 -1.1840478856635048e-13,	 3.0000000000000000e+02,	 1.0000000000000000e+03,	 3.4760788074254771e+02,	 4.9941330337264445e+00 
-3.8535710000000001e-01,	 1.6314759999999998e-01,	 1.1586407740522199e-02,	 1.7360000000000000e+03,	 -9.7835587387500173e-14,	 3.0000000000000000e+02,	 1.0000000000000000e+03,	 3.4760788074254771e+02,	 4.9941330337264445e+00 
-3.8037260000000001e-01,	 1.6314759999999998e-01,	 1.1586407740522199e-02,	 1.7360000000000000e+03,	 -6.7921365388116299e-14,	 3.0000000000000000e+02,	 1.0000000000000000e+03,	 3.4760788074254771e+02,	 4.9941330337264445e+00 
-3.7538810000000000e-01,	 1.6314759999999998e-01,	 1.1586407740522199e-02,	 1.7360000000000000e+03,	 -8.1319342503519445e-14,	 3.0000000000000000e+02,	 1.0000000000000000e+03,	 3.4760788074254771e+02,	 4.9941330337264445e+00 
-3.7040360000000000e-01,	 1.6314759999999998e-01,	 1.1586407740522199e-02,	 1.7360000000000000e+03,	 -8.5826028762127880e-14,	 3.0000000000000000e+02,	 1.0000000000000000e+03,	 3.4760788074254771e+02,	 4.9941330337264445e+00 
-3.6541920000000000e-01,	 1.6314759999999998e-01,	 1.1586407740522199e-02,	 1.7360000000000000e+03,	 -1.1206433428947634e-13,	 3.0000000000000000e+02,	 1.0000000000000000e+03,	 3.4760788074254771e+02,	 4.9941330337264445e+00 
-3.6043470000000000e-01,	 1.6314759999999998e-01,	 1.1586407740522199e-02,	 1.7360000000000000e+03,	 -9.3705706279509943e-14,	 3.0000000000000000e+02,	 1.0000000000000000e+03,	 3.4760788074254771e+02,	 4.9941330337264445e+00 
-3.5545019999999999e-01,	 1.6314759999999998e-01,	 1.1586407740522199e-02,	 1.7360000000000000e+03,	 -6.8965484577010871e-14,	 3.0000000000000000e+02,	 1.0000000000000000e+03,	 3.4760788074254771e+02,	 4.9941330337264445e+00 
-3.5046569999999999e-01,	 1.6314759999999998e-01,	 1.1586407740522199e-02,	 1.7360000000000000e+03,	 -1.1057569574407686e-13,	 3.0000000000000000e+02,	 1.0000000000000000e+03,	 3.4760788074254771e+02,	 4.9941330337264445e+00 
-3.4548129999999999e-01,	 1.6314759999999998e-01,	 1.1586407740522199e-02,	 1.7360000000000000e+03,	 -1.0035202278541849e-13,	 3.0000000000000000e+02,	 1.0000000000000000e+03,	 3.4760788074254771e+02,	 4.9941330337264445e+00 
-3.4049679999999999e-01,	 1.6314759999999998e-01,	 1.1586407740522199e-02,	 1.7360000000000000e+03,	 -8.1138277104091657e-14,	 3.0000000000000000e+02,	 1.0000000000000000e+03,	 3.4760788074254771e+02,	 4.9941330337264445e+00 
-3.3551229999999999e-01,	 1.6314759999999998e-01,	 1.1586407740522199e-02,	 1.7360000000000000e+03,	 -1.1469539572390924e-13,	 3.0000000000000000e+02,	 1.0000000000000000e+03,	 3.4760788074254771e+02,	 4.9941330337264445e+00 
-3.3052779999999998e-01,	 1.6314759999999998e-01,	 1.1586407740522199e-02,	 1.7360000000000000e+03,	 -1.2152076607058732e-13,	 3.0000000000000000e+02,	 1.0000000000000000e+03,	 3.4760788074254771e+02,	 4.9941330337264445e+00 
-3.2554339999999998e-01,	 1.6314759999999998e-01,	 1.1586407740522199e-02,	 1.7360000000000000e+03,	 -1.0064046047269674e-13,	 3.0000000000000000e+02,	 1.0000000000000000e+03,	 3.4760788074254771e+02,	 4.9941330337264445e+00 
-3.2055889999999998e-01,	 1.6314759999999998e-01,	 1.1586407740522199e-02,	 1.7360000000000000e+03,	 -1.0631839071644400e-13,	 3.0000000000000000e+02,	 1.0000000000000000e+03,	 3.4760788074254771e+02,	 4.9941330337264445e+00 
-3.1557439999999998e-01,	 1.6314759999999998e-01,	 1.1586407740522199e-02,	 1.7360000000000000e+03,	 -1.0747792680346288e-13,	 3.0000000000000000e+02,	 1.0000000000000000e+03,	 3.4760788074254771e+02,	 4.9941330337264445e+00 
-3.1058989999999997e-01,	 1.6314759999999998e-01,	 1.1586407740522199e-02,	 1.7360000000000000e+03,	 -9.5158693011364921e-14,	 3.0000000000000000e+02,	 1.0000000000000000e+03,	 3.4760788074254771e+02,	 4.9941330337264445e+00 
-3.0560549999999997e-01,	 1.6314759999999998e-01,	 1.1586407740522199e-02,	 1.7360000000000000e+03,	 -9.7266403831829297e-14,	 3.0000000000000000e+02,	 1.0000000000000000e+03,	 3.4760788074254771e+02,	 4.9941330337264445e+00 
-3.0062100000000003e-01,	 1.6314759999999998e-01,	 1.1586407740522199e-02,	 1.7360000000000000e+03,	 -9.6910505525787321e-14,	 3.0000000000000000e+02,	 1.0000000000000000e+03,	 3.4760788074254771e+02,	 4.9941330337264445e+00 
-2.9563650000000002e-01,	 1.6314759999999998e-01,	 1.1586407740522199e-02,	 1.7360000000000000e+03,	 -1.1355223242832293e-13,	 3.0000000000000000e+02,	 1.0000000000000000e+03,	 3.4760788074254771e+02,	 4.9941330337264445e+00 
-2.9065200000000002e-01,	 1.6314759999999998e-01,	 1.1586407740522199e-02,	 1.7360000000000000e+03,	 -9.6947795486959071e-14,	 3.0000000000000000e+02,	 1.0000000000000000e+03,	 3.4760788074254771e+02,	 4.9941330337264445e+00 
-2.8566760000000002e-01,	 1.6314759999999998e-01,	 1.1586407740522199e-02,	 1.7360000000000000e+03,	 -6.1535583426952325e-14,	 3.0000000000000000e+02,	 1.0000000000000000e+03,	 3.4760788074254771e+02,	 4.9941330337264445e+00 
-2.8068310000000002e-01,	 1.6314759999999998e-01,	 1.1586407740522199e-02,	 1.7360000000000000e+03,	 -1.2222795781510868e-13,	 3.0000000000000000e+02,	 1.0000000000000000e+03,	 3.4760788074254771e+02,	 4.9941330337264445e+00 
-2.7569860000000002e-01,	 1.6314759999999998e-01,	 1.1586407740522199e-02,	 1.7360000000000000e+03,	 -1.2221890125455905e-13,	 3.0000000000000000e+02,	 1.0000000000000000e+03,	 3.4760788074254771e+02,	 4.9941330337264445e+00 
-2.7071410000000001e-01,	 1.6314759999999998e-01,	 1.1586407740522199e-02,	 1.7360000000000000e+03,	 -4.0234878061304882e-14,	 3.0000000000000000e+02,	 1.0000000000000000e+03,	 3.4760788074254771e+02,	 4.9941330337264445e+00 
-2.6572960000000001e-01,	 1.6314759999999998e-01,	 1.1586407740522199e-02,	 1.7360000000000000e+03,	 6.5171898011457808e-14,	 3.0000000000000000e+02,	 1.0000000000000000e+03,	 3.4760788074254771e+02,	 4.9941330337264445e+00 
-2.6074520000000001e-01,	 1.6314759999999998e-01,	 1.1586407740522199e-02,	 1.7360000000000000e+03,	 -3.4769113247979689e-13,	 3.0000000000000000e+02,	 1.0000000000000000e+03,	 3.4760788074254771e+02,	 4.9941330337264445e+00 
-2.5576070000000001e-01,	 1.6314759999999998e-01,	 1.1586407740522199e-02,	 1.7360000000000000e+03,	 -1.6722791627842946e-14,	 3.0000000000000000e+02,	 1.0000000000000000e+03,	 3.4760788074254771e+02,	 4.9941330337264445e+00 
-2.5077620000000000e-01,	 1.6314759999999998e-01,	 1.1586407740522199e-02,	 1.7360000000000000e+03,	 6.6692733739828480e-13,	 3.0000000000000000e+02,	 1.0000000000000000e+03,	 3.4760788074254771e+02,	 4.9941330337264445e+00 
-2.4579170000000000e-01,	 1.6314759999999998e-01,	 1.1586407740522196e-02,	 1.7360000000000000e+03,	 -5.2073960078336865e-13,	 3.0000000000000000e+02,	 9.9999999999999977e+02,	 3.4760788074254771e+02,	 4.9941330337264445e+00 
-2.4080730000000000e-01,	 1.6314759999999998e-01,	 1.1586407740522194e-02,	 1.7360000000000000e+03,	 -2.2551119567541538e-12,	 3.0000000000000000e+02,	 9.9999999999999966e+02,	 3.4760788074254771e+02,	 4.9941330337264445e+00 
-2.3582280000000000e-01,	 1.6314759999999998e-01,	 1.1586407740522204e-02,	 1.7360000000000000e+03,	 -3.5589398365518790e-12,	 2.9999999999999994e+02,	 1.0000000000000003e+03,	 3.4760788074254765e+02,	 4.9941330337264453e+00 
-2.3083830000000000e-01,	 1.6314759999999998e-01,	 1.1586407740522230e-02,	 1.7360000000000000e+03,	 -4.4258680848821867e-12,	 2.9999999999999989e+02,	 1.0000000000000023e+03,	 3.4760788074254759e+02,	 4.9941330337264462e+00 