TITLE = "Final State"
VARIABLES = "X", "Y", "rho", "u", "v", "T", "p", "c", "M"
ZONE I=77, J=25, DATAPACKING=POINT, STRANDID=60000, SOLUTIONTIME=0.001448
2.1589400000000000e-01,	 1.8936299999999998e-01,	 1.1581772824918212e-02,	 1.7359372319414404e+03,	 4.0140205120146832e-01,	 3.0010309439206014e+02,	 9.9994348007963822e+02,	 3.4766760298403238e+02,	 4.9930947360355988e+00 
2.2017450000000000e-01,	 1.8988320000000000e-01,	 1.1585801957814007e-02,	 1.7359045717416138e+03,	 5.2107362049010242e-01,	 3.0016852667317295e+02,	 1.0005094422957171e+03,	 3.4770550236744987e+02,	 4.9924566569370565e+00 
2.2445490000000001e-01,	 1.9040340000000000e-01,	 1.1591636075197862e-02,	 1.7358532232186030e+03,	 6.9401646325573796e-01,	 3.0025782636515373e+02,	 1.0013110562825595e+03,	 3.4775721945720801e+02,	 4.9915667161887756e+00 
2.2873540000000001e-01,	 1.9092370000000000e-01,	 1.1597127254964043e-02,	 1.7358071285611190e+03,	 8.6231138623335990e-01,	 3.0033734267504599e+02,	 1.0020506960751554e+03,	 3.4780326411928183e+02,	 4.9907735832939375e+00 
2.3301580000000000e-01,	 1.9144390000000000e-01,	 1.1602255801968228e-02,	 1.7357672957615969e+03,	 1.0195094177156263e+00,	 3.0040556564989055e+02,	 1.0027215495547844e+03,	 3.4784276441216969e+02,	 4.9900925727209957e+00 
2.3729629999999999e-01,	 1.9196410000000000e-01,	 1.1606995656264909e-02,	 1.7357343945208477e+03,	 1.1614556876933619e+00,	 3.0046172949538709e+02,	 1.0033187355472844e+03,	 3.4787527924623890e+02,	 4.9895318427687112e+00 
2.4157670000000001e-01,	 1.9248430000000000e-01,	 1.1611294236934473e-02,	 1.7357081940032176e+03,	 1.2864779872805778e+00,	 3.0050618890837711e+02,	 1.0038388249338215e+03,	 3.4790101589935261e+02,	 4.9890876756258544e+00 
2.4585720000000000e-01,	 1.9300460000000000e-01,	 1.1615139862466876e-02,	 1.7356881024013003e+03,	 1.3952228286361572e+00,	 3.0054024141348316e+02,	 1.0042850831462958e+03,	 3.4792072691689953e+02,	 4.9887475188756776e+00 
2.5013760000000002e-01,	 1.9352480000000000e-01,	 1.1618436904740684e-02,	 1.7356735290368479e+03,	 1.4873516622179874e+00,	 3.0056471414037617e+02,	 1.0046519580635187e+03,	 3.4793489206756919e+02,	 4.9885027511934528e+00 
2.5441799999999998e-01,	 1.9404500000000000e-01,	 1.1621289645632644e-02,	 1.7356640045440315e+03,	 1.5633264411925500e+00,	 3.0058054611687749e+02,	 1.0049515681061985e+03,	 3.4794405552595134e+02,	 4.9883441922023151e+00 
2.5869850000000000e-01,	 1.9456530000000000e-01,	 1.1623691694902105e-02,	 1.7356589042190280e+03,	 1.6243436168861489e+00,	 3.0058889889312684e+02,	 1.0051872176119174e+03,	 3.4794888996831679e+02,	 4.9882603863476476e+00 
2.6297890000000002e-01,	 1.9508550000000000e-01,	 1.1625593011612683e-02,	 1.7356577845130223e+03,	 1.6714674429965573e+00,	 3.0059091765461665e+02,	 1.0053583905958919e+03,	 3.4795005838245766e+02,	 4.9882405463791617e+00 
2.6725939999999998e-01,	 1.9560569999999999e-01,	 1.1627094278814658e-02,	 1.7356591264227159e+03,	 1.7059232494162764e+00,	 3.0058762180835691e+02,	 1.0054771924943303e+03,	 3.4794815081809912e+02,	 4.9882718465093756e+00 
2.7153980000000000e-01,	 1.9612589999999999e-01,	 1.1628228844413783e-02,	 1.7356634170320476e+03,	 1.7288927961306562e+00,	 3.0057988235997908e+02,	 1.0055494151377303e+03,	 3.4794367135206249e+02,	 4.9883484627312473e+00 
2.7582030000000002e-01,	 1.9664619999999999e-01,	 1.1629028768756790e-02,	 1.7356699040940366e+03,	 1.7416156353894159e+00,	 3.0056850381700787e+02,	 1.0055805204822515e+03,	 3.4793708553292214e+02,	 4.9884615640388619e+00 
2.8010069999999998e-01,	 1.9716639999999999e-01,	 1.1629441818809542e-02,	 1.7356780284215597e+03,	 1.7450342451806318e+00,	 3.0055425060091409e+02,	 1.0055685503899766e+03,	 3.4792883569769623e+02,	 4.9886032072083273e+00 
2.8438120000000000e-01,	 1.9768659999999999e-01,	 1.1629612970870371e-02,	 1.7356875029081657e+03,	 1.7401980112432485e+00,	 3.0053771084108843e+02,	 1.0055280113580413e+03,	 3.4791926215391754e+02,	 4.9887676943284847e+00 
2.8866160000000002e-01,	 1.9820689999999999e-01,	 1.1629554769198837e-02,	 1.7356981058971614e+03,	 1.7281897489787885e+00,	 3.0051939000214634e+02,	 1.0054616822011568e+03,	 3.4790865737840602e+02,	 4.9889502012766398e+00 
2.9294209999999998e-01,	 1.9872709999999999e-01,	 1.1629201474775308e-02,	 1.7357093659508957e+03,	 1.7096892442600420e+00,	 3.0049979549453121e+02,	 1.0053655810025265e+03,	 3.4789731499886386e+02,	 4.9891451676939669e+00 
2.9722250000000000e-01,	 1.9924729999999999e-01,	 1.1628681710981213e-02,	 1.7357212340066039e+03,	 1.6855953841764013e+00,	 3.0047929903084378e+02,	 1.0052520756564093e+03,	 3.4788545012177104e+02,	 4.9893493730692429e+00 
3.0150290000000002e-01,	 1.9976749999999999e-01,	 1.1627999445047072e-02,	 1.7357334004902818e+03,	 1.6566125114454384e+00,	 3.0045822928613995e+02,	 1.0051226119550780e+03,	 3.4787325296519219e+02,	 4.9895592036588514e+00 
3.0578339999999998e-01,	 2.0028779999999999e-01,	 1.1627194472854784e-02,	 1.7357458207958221e+03,	 1.6235220082880022e+00,	 3.0043684250454891e+02,	 1.0049814900476347e+03,	 3.4786087184037029e+02,	 4.9897724078296397e+00 
3.1006380000000000e-01,	 2.0080799999999999e-01,	 1.1626196166773906e-02,	 1.7357582035255568e+03,	 1.5867667927077629e+00,	 3.0041542814342614e+02,	 1.0048235764238196e+03,	 3.4784847430780911e+02,	 4.9899857467006852e+00 
3.1434430000000002e-01,	 2.0132819999999998e-01,	 1.1625143824798539e-02,	 1.7357705184398928e+03,	 1.5469568081261835e+00,	 3.0039415058765161e+02,	 1.0046614627863513e+03,	 3.4783615553906634e+02,	 4.9901977702422844e+00 
3.1862469999999998e-01,	 2.0184849999999999e-01,	 1.1624036613944190e-02,	 1.7357816962891714e+03,	 1.5050031409424323e+00,	 3.0037529623045646e+02,	 1.0045027240829673e+03,	 3.4782523933111128e+02,	 4.9903864138231695e+00 
3.2290520000000000e-01,	 2.0236869999999998e-01,	 1.1622795614336360e-02,	 1.7357936771305490e+03,	 1.4609881966286018e+00,	 3.0035456968082389e+02,	 1.0043261763876745e+03,	 3.4781323877456731e+02,	 4.9905929345605431e+00 
3.2718560000000002e-01,	 2.0288889999999998e-01,	 1.1621534059601904e-02,	 1.7358064578593439e+03,	 1.4147521191098935e+00,	 3.0033227155190184e+02,	 1.0041426129662303e+03,	 3.4780032782003286e+02,	 4.9908148312539460e+00 
3.3146609999999999e-01,	 2.0340909999999998e-01,	 1.1620266341233598e-02,	 1.7358175971130649e+03,	 1.3704612885702510e+00,	 3.0031294071087837e+02,	 1.0039684530735666e+03,	 3.4778913458229096e+02,	 4.9910073821038345e+00 
3.3574650000000000e-01,	 2.0392939999999998e-01,	 1.1619029997451680e-02,	 1.7358283651658530e+03,	 1.3221718401258875e+00,	 3.0029454418169507e+02,	 1.0038001409517514e+03,	 3.4777848200945226e+02,	 4.9911911130386217e+00 
3.4002700000000002e-01,	 2.0444959999999998e-01,	 1.1617648265272562e-02,	 1.7358387674216185e+03,	 1.2700189788499445e+00,	 3.0027655162342046e+02,	 1.0036206323809301e+03,	 3.4776806304171077e+02,	 4.9913704462716231e+00 
3.4430739999999999e-01,	 2.0496979999999998e-01,	 1.1616314877969148e-02,	 1.7358487879179897e+03,	 1.2205456503241634e+00,	 3.0025928837090112e+02,	 1.0034477515559762e+03,	 3.4775806610030941e+02,	 4.9915426448363114e+00 
3.4858790000000001e-01,	 2.0549009999999998e-01,	 1.1615017429880352e-02,	 1.7358584061717477e+03,	 1.1712289433535585e+00,	 3.0024279573713375e+02,	 1.0032805633927630e+03,	 3.4774851514650504e+02,	 4.9917072990800584e+00 
3.5286830000000002e-01,	 2.0601029999999998e-01,	 1.1613680673039809e-02,	 1.7358674694307615e+03,	 1.1218946462065404e+00,	 3.0022713135605346e+02,	 1.0031127596627675e+03,	 3.4773944359443158e+02,	 4.9918634884475512e+00 
3.5714869999999999e-01,	 2.0653049999999998e-01,	 1.1612383207026015e-02,	 1.7358761189550328e+03,	 1.0727995237075021e+00,	 3.0021229076764246e+02,	 1.0029511136169344e+03,	 3.4773084889862696e+02,	 4.9920116548669720e+00 
3.6142920000000001e-01,	 2.0705069999999998e-01,	 1.1611128938812498e-02,	 1.7358842397093565e+03,	 1.0240783465086358e+00,	 3.0019826316278801e+02,	 1.0027959251482952e+03,	 3.4772272483429765e+02,	 4.9921515558470224e+00 
3.6570960000000002e-01,	 2.0757099999999998e-01,	 1.1609939996745162e-02,	 1.7358919990840534e+03,	 9.7602036024386929e-01,	 3.0018501040920546e+02,	 1.0026489765199427e+03,	 3.4771504934943647e+02,	 4.9922839886274515e+00 
3.6999009999999999e-01,	 2.0809119999999998e-01,	 1.1608702568289435e-02,	 1.7358991733477596e+03,	 9.2848965137452177e-01,	 3.0017259576163099e+02,	 1.0025006488597534e+03,	 3.4770785910962280e+02,	 4.9924077819407779e+00 
3.7427050000000001e-01,	 2.0861140000000000e-01,	 1.1607570602981239e-02,	 1.7359059245799558e+03,	 8.8169638085171376e-01,	 3.0016096668086936e+02,	 1.0023640605540151e+03,	 3.4770112371472715e+02,	 4.9925238375661012e+00 
3.7855100000000003e-01,	 2.0913169999999998e-01,	 1.1606501491714903e-02,	 1.7359122842028514e+03,	 8.3579570516388113e-01,	 3.0015009284475121e+02,	 1.0022354291794102e+03,	 3.4769482562853415e+02,	 4.9926324968211064e+00 
3.8283139999999999e-01,	 2.0965190000000000e-01,	 1.1605419233556740e-02,	 1.7359181008533355e+03,	 7.9063131621602700e-01,	 3.0014001936974387e+02,	 1.0021083415329349e+03,	 3.4768899100677760e+02,	 4.9927329475545381e+00 
3.8711190000000001e-01,	 2.1017210000000000e-01,	 1.1604407882296545e-02,	 1.7359235075704257e+03,	 7.4628961199199106e-01,	 3.0013073000642760e+02,	 1.0019900004108991e+03,	 3.4768361046079707e+02,	 4.9928257063603052e+00 
3.9139230000000003e-01,	 2.1069230000000000e-01,	 1.1603475384740495e-02,	 1.7359284330072362e+03,	 7.0276406791577806e-01,	 3.0012220448133280e+02,	 1.0018810230351991e+03,	 3.4767867226870248e+02,	 4.9929107354542115e+00 
3.9567279999999999e-01,	 2.1121260000000000e-01,	 1.1602621175505102e-02,	 1.7359329822562950e+03,	 6.6013231354971480e-01,	 3.0011441802210743e+02,	 1.0017812767050538e+03,	 3.4767416210030444e+02,	 4.9929885421610800e+00 
3.9995320000000001e-01,	 2.1173280000000000e-01,	 1.1601756290446684e-02,	 1.7359369840664101e+03,	 6.1813096117508182e-01,	 3.0010743737209089e+02,	 1.0016833020541148e+03,	 3.4767011863285876e+02,	 4.9930580774223419e+00 
4.0423360000000003e-01,	 2.1225300000000000e-01,	 1.1601009556123648e-02,	 1.7359405499140621e+03,	 5.7679381268999319e-01,	 3.0010122724090968e+02,	 1.0015981032815836e+03,	 3.4766652144074487e+02,	 4.9931199545607639e+00 
4.0851409999999999e-01,	 2.1277330000000000e-01,	 1.1600353657594091e-02,	 1.7359437296659262e+03,	 5.3615146269512071e-01,	 3.0009576862816039e+02,	 1.0015232575951944e+03,	 3.4766335953175548e+02,	 4.9931744742959108e+00 
4.1279450000000001e-01,	 2.1329350000000000e-01,	 1.1599703877795922e-02,	 1.7359463481108087e+03,	 4.9590794464932475e-01,	 3.0009112728041418e+02,	 1.0014516695663613e+03,	 3.4766067100202912e+02,	 4.9932205847169531e+00 
4.1707499999999997e-01,	 2.1381370000000000e-01,	 1.1599147049895755e-02,	 1.7359485376257430e+03,	 4.5605010671845020e-01,	 3.0008730015180430e+02,	 1.0013908251284868e+03,	 3.4765845409819264e+02,	 4.9932586913010315e+00 
4.2135539999999999e-01,	 2.1433389999999999e-01,	 1.1598690451743738e-02,	 1.7359502206827924e+03,	 4.1648311742491018e-01,	 3.0008427615654114e+02,	 1.0013413149048027e+03,	 3.4765670240765718e+02,	 4.9932886626987258e+00 
4.2563590000000001e-01,	 2.1485420000000000e-01,	 1.1598333852604240e-02,	 1.7359515040019360e+03,	 3.7722955979078521e-01,	 3.0008203514997774e+02,	 1.0013030511794902e+03,	 3.4765540426832035e+02,	 4.9933109730948209e+00 
4.2991629999999997e-01,	 2.1537439999999999e-01,	 1.1597977493592967e-02,	 1.7359522163211393e+03,	 3.3797853581590831e-01,	 3.0008065381259769e+02,	 1.0012676770698885e+03,	 3.4765460410386248e+02,	 4.9933244914070638e+00 
4.3419679999999999e-01,	 2.1589459999999999e-01,	 1.1597757155411333e-02,	 1.7359524569989958e+03,	 2.9875126756117870e-01,	 3.0008001600639454e+02,	 1.0012465269001644e+03,	 3.4765423464255593e+02,	 4.9933304695420988e+00 
4.3847720000000001e-01,	 2.1641489999999999e-01,	 1.1597648960674365e-02,	 1.7359523299526027e+03,	 2.5965449195340007e-01,	 3.0008029958273141e+02,	 1.0012381325067090e+03,	 3.4765439890956105e+02,	 4.9933277266629981e+00 
4.4275769999999998e-01,	 2.1693509999999999e-01,	 1.1597542578077508e-02,	 1.7359516043404465e+03,	 2.2039557152147890e-01,	 3.0008133281323234e+02,	 1.0012323957885204e+03,	 3.4765499742739121e+02,	 4.9933170274466203e+00 
4.4703809999999999e-01,	 2.1745529999999999e-01,	 1.1597542969422163e-02,	 1.7359505248707637e+03,	 1.8113439004260967e-01,	 3.0008314601611562e+02,	 1.0012384793921275e+03,	 3.4765604775612303e+02,	 4.9932988237229594e+00 
4.5131850000000001e-01,	 2.1797549999999999e-01,	 1.1597633762444725e-02,	 1.7359489604998930e+03,	 1.4184911753130564e-01,	 3.0008569762242087e+02,	 1.0012548313258052e+03,	 3.4765752581227110e+02,	 4.9932730845950779e+00 
4.5559899999999998e-01,	 2.1849579999999999e-01,	 1.1597822853230570e-02,	 1.7359470975692984e+03,	 1.0272878345294814e-01,	 3.0008889938085917e+02,	 1.0012818390834217e+03,	 3.4765938046988504e+02,	 4.9932410805733438e+00 
4.5987939999999999e-01,	 2.1901599999999999e-01,	 1.1597993956222585e-02,	 1.7359447849279668e+03,	 6.3611631187099199e-02,	 3.0009277084868120e+02,	 1.0013095288187021e+03,	 3.4766162305161043e+02,	 4.9932022144294939e+00 
4.6415990000000001e-01,	 2.1953619999999999e-01,	 1.1598283556355768e-02,	 1.7359421313218036e+03,	 2.4851895598290381e-02,	 3.0009725291237351e+02,	 1.0013494868900148e+03,	 3.4766421930828665e+02,	 4.9931572911170665e+00 
4.6844029999999998e-01,	 2.2005649999999999e-01,	 1.1598659699492269e-02,	 1.7359392996382121e+03,	 -1.3162366195290241e-02,	 3.0010223679756831e+02,	 1.0013985921042578e+03,	 3.4766710622468554e+02,	 4.9931076843554862e+00 
4.7272080000000000e-01,	 2.2057669999999999e-01,	 1.1598989392834118e-02,	 1.7359361707692856e+03,	 -5.0874997196393337e-02,	 3.0010754284225169e+02,	 1.0014447630052368e+03,	 3.4767017972568010e+02,	 4.9930545463648190e+00 
4.7700120000000001e-01,	 2.2109689999999999e-01,	 1.1599381149653799e-02,	 1.7359330344026628e+03,	 -8.7889004581522517e-02,	 3.0011304800771802e+02,	 1.0014969579832216e+03,	 3.4767336853771650e+02,	 4.9929997339995333e+00 
4.8128169999999998e-01,	 2.2161709999999998e-01,	 1.1599804660837676e-02,	 1.7359297473946619e+03,	 -1.2386242305970534e-01,	 3.0011872266500438e+02,	 1.0015524615677143e+03,	 3.4767665549558291e+02,	 4.9929430819540457e+00 
4.8556210000000000e-01,	 2.2213739999999998e-01,	 1.1600275032475977e-02,	 1.7359265724785591e+03,	 -1.5831983150103618e-01,	 3.0012441986465137e+02,	 1.0016120878766118e+03,	 3.4767995547950437e+02,	 4.9928865680622412e+00 
4.8984260000000002e-01,	 2.2265759999999998e-01,	 1.1600643310654113e-02,	 1.7359233006450254e+03,	 -1.9135073882355297e-01,	 3.0013012502547974e+02,	 1.0016629269903731e+03,	 3.4768326004338695e+02,	 4.9928297122349026e+00 
4.9412299999999998e-01,	 2.2317779999999998e-01,	 1.1601073669815980e-02,	 1.7359201976851959e+03,	 -2.2248903120876029e-01,	 3.0013564775624513e+02,	 1.0017185189563653e+03,	 3.4768645890955122e+02,	 4.9927748621200925e+00 
4.9840350000000000e-01,	 2.2369809999999998e-01,	 1.1601496484451671e-02,	 1.7359173595081427e+03,	 -2.5135613262904011e-01,	 3.0014084590699110e+02,	 1.0017723774879487e+03,	 3.4768946974617444e+02,	 4.9927234752702372e+00 
5.0268389999999996e-01,	 2.2421829999999998e-01,	 1.1601816095387810e-02,	 1.7359146574325978e+03,	 -2.7797342180590201e-01,	 3.0014567807245191e+02,	 1.0018161040668723e+03,	 3.4769226857596971e+02,	 4.9926755253959874e+00 
5.0696430000000003e-01,	 2.2473849999999998e-01,	 1.1602111426031589e-02,	 1.7359123319496414e+03,	 -3.0198281700815621e-01,	 3.0015001948952602e+02,	 1.0018560968538478e+03,	 3.4769478314106800e+02,	 4.9926327410903690e+00 
5.1124480000000005e-01,	 2.2525869999999998e-01,	 1.1602370303536304e-02,	 1.7359103031861403e+03,	 -3.2323329401288303e-01,	 3.0015375446249573e+02,	 1.0018909182958527e+03,	 3.4769694643690758e+02,	 4.9925958541450326e+00 
5.1552520000000002e-01,	 2.2577899999999998e-01,	 1.1602604759388249e-02,	 1.7359088203996776e+03,	 -3.4134467500076360e-01,	 3.0015675105651326e+02,	 1.0019211666991488e+03,	 3.4769868205402662e+02,	 4.9925666778642492e+00 
5.1980570000000004e-01,	 2.2629919999999998e-01,	 1.1602664982968726e-02,	 1.7359076337864999e+03,	 -3.5655924785634696e-01,	 3.0015905061427003e+02,	 1.0019340431412454e+03,	 3.4770001394422587e+02,	 4.9925441495207457e+00 
5.2408610000000000e-01,	 2.2681939999999998e-01,	 1.1602734582528126e-02,	 1.7359069686800844e+03,	 -3.6856958734243261e-01,	 3.0016051675217670e+02,	 1.0019449473396573e+03,	 3.4770086311993299e+02,	 4.9925300507777441e+00 
5.2836660000000002e-01,	 2.2733969999999998e-01,	 1.1602732693409803e-02,	 1.7359069026659802e+03,	 -3.7722234042740327e-01,	 3.0016108209429046e+02,	 1.0019466713352300e+03,	 3.4770119056114754e+02,	 4.9925251646412407e+00 
5.3264699999999998e-01,	 2.2785989999999998e-01,	 1.1602581404323267e-02,	 1.7359072200512815e+03,	 -3.8281460886560570e-01,	 3.0016080993001299e+02,	 1.0019326983808292e+03,	 3.4770103292601362e+02,	 4.9925283444043158e+00 
5.3692750000000000e-01,	 2.2838010000000000e-01,	 1.1613647753369729e-02,	 1.7358644490837182e+03,	 -3.7191895045235907e-01,	 3.0019485801339266e+02,	 1.0030020855521445e+03,	 3.4772075271898387e+02,	 4.9921221996475786e+00 
5.4120789999999996e-01,	 2.2890030000000000e-01,	 1.1634435998682729e-02,	 1.7358733947215903e+03,	 -5.4236105101630627e-01,	 3.0025617072916680e+02,	 1.0050026662824263e+03,	 3.4775626068093248e+02,	 4.9916383275199925e+00 
2.1455240000000000e-01,	 1.9405780000000000e-01,	 1.1582098533358006e-02,	 1.7359866148676301e+03,	 1.9227643813840381e-01,	 3.0000986352794791e+02,	 9.9966094702716282e+02,	 3.4761359509565602e+02,	 4.9940124609859184e+00 
2.1884200000000001e-01,	 1.9455639999999999e-01,	 1.1584066071991228e-02,	 1.7359686147780435e+03,	 2.6298582790043851e-01,	 3.0004484859714944e+02,	 9.9994736031771777e+02,	 3.4763386264788960e+02,	 4.9936695507034834e+00 
2.2313150000000001e-01,	 1.9505499999999998e-01,	 1.1587104310677264e-02,	 1.7359390546791969e+03,	 3.7202343587409015e-01,	 3.0009543578900514e+02,	 1.0003782580181131e+03,	 3.4766316673328396e+02,	 4.9931636729136670e+00 
2.2742100000000001e-01,	 1.9555349999999999e-01,	 1.1590316147299409e-02,	 1.7359107542552117e+03,	 4.8533641670350747e-01,	 3.0014453046949427e+02,	 1.0008192576253408e+03,	 3.4769160387698133e+02,	 4.9926739752854266e+00 
2.3171050000000001e-01,	 1.9605209999999998e-01,	 1.1593526913960883e-02,	 1.7358842689456633e+03,	 5.9889615595969281e-01,	 3.0019081036457425e+02,	 1.0012508671730218e+03,	 3.4771840848123185e+02,	 4.9922130376704406e+00 
2.3599999999999999e-01,	 1.9655059999999999e-01,	 1.1596670387405975e-02,	 1.7358601406871594e+03,	 7.0934119690467279e-01,	 3.0023321234787477e+02,	 1.0016638118627811e+03,	 3.4774296524484907e+02,	 4.9917912340724708e+00 
2.4028949999999999e-01,	 1.9704919999999998e-01,	 1.1599685962502441e-02,	 1.7358386107383137e+03,	 8.1426479063278490e-01,	 3.0027109543461717e+02,	 1.0020507041990160e+03,	 3.4776490345961696e+02,	 4.9914145575120328e+00 
2.4457899999999999e-01,	 1.9754769999999999e-01,	 1.1602558147821842e-02,	 1.7358197726104740e+03,	 9.1266277663381978e-01,	 3.0030443264137602e+02,	 1.0024100997770156e+03,	 3.4778420799624342e+02,	 4.9910834725423552e+00 
2.4886849999999999e-01,	 1.9804629999999998e-01,	 1.1605222967137400e-02,	 1.7358035822168147e+03,	 1.0035096414748734e+00,	 3.0033322504785667e+02,	 1.0027364590119122e+03,	 3.4780087991844829e+02,	 4.9907978171311198e+00 
2.5315799999999999e-01,	 1.9854479999999999e-01,	 1.1607677526633938e-02,	 1.7357898966962860e+03,	 1.0861817880385813e+00,	 3.0035753713027350e+02,	 1.0030297315559690e+03,	 3.4781495693663123e+02,	 4.9905566219084365e+00 
2.5744760000000000e-01,	 1.9904339999999998e-01,	 1.1609930212959835e-02,	 1.7357787068623795e+03,	 1.1604725127529043e+00,	 3.0037758158805644e+02,	 1.0032913386888423e+03,	 3.4782656251506182e+02,	 4.9903580745361396e+00 
2.6173710000000000e-01,	 1.9954189999999999e-01,	 1.1611940699327361e-02,	 1.7357699459376406e+03,	 1.2262720838906065e+00,	 3.0039366822260484e+02,	 1.0035188184786756e+03,	 3.4783587626586734e+02,	 4.9901993944236658e+00 
2.6602660000000000e-01,	 2.0004049999999998e-01,	 1.1613726880197461e-02,	 1.7357629004994374e+03,	 1.2837105960707145e+00,	 3.0040612378262165e+02,	 1.0037147989502504e+03,	 3.4784308754589972e+02,	 4.9900758052708234e+00 
2.7031610000000000e-01,	 2.0053900000000000e-01,	 1.1615291316006974e-02,	 1.7357578767097716e+03,	 1.3330289703379414e+00,	 3.0041526025245344e+02,	 1.0038805359267261e+03,	 3.4784837710802947e+02,	 4.9899855880053545e+00 
2.7460560000000001e-01,	 2.0103759999999998e-01,	 1.1616658004902761e-02,	 1.7357546142196388e+03,	 1.3745485756946991e+00,	 3.0042138868322945e+02,	 1.0040191368619865e+03,	 3.4785192511991482e+02,	 4.9899254054019586e+00 
2.7889510000000001e-01,	 2.0153610000000000e-01,	 1.1617798342671667e-02,	 1.7357529028462163e+03,	 1.4084968561596318e+00,	 3.0042483343763126e+02,	 1.0041292090335205e+03,	 3.4785391942035483e+02,	 4.9898919558217338e+00 
2.8318460000000001e-01,	 2.0203469999999998e-01,	 1.1618737176886796e-02,	 1.7357524568689184e+03,	 1.4352841472175411e+00,	 3.0042588229016150e+02,	 1.0042138586393866e+03,	 3.4785452663904067e+02,	 4.9898820264145645e+00 
2.8747410000000001e-01,	 2.0253320000000000e-01,	 1.1619512609455773e-02,	 1.7357532953455980e+03,	 1.4553802406173078e+00,	 3.0042479462189704e+02,	 1.0042772437838626e+03,	 3.4785389694850130e+02,	 4.9898935177090458e+00 
2.9176360000000001e-01,	 2.0303179999999998e-01,	 1.1620087309469703e-02,	 1.7357551848515491e+03,	 1.4690425068334052e+00,	 3.0042184000549418e+02,	 1.0043170378932434e+03,	 3.4785218640833432e+02,	 4.9899235201875785e+00 
2.9605310000000001e-01,	 2.0353030000000000e-01,	 1.1620501684132364e-02,	 1.7357579990463291e+03,	 1.4767338935914021e+00,	 3.0041725137258084e+02,	 1.0043375115907301e+03,	 3.4784952985698885e+02,	 4.9899697376092069e+00 
3.0034270000000002e-01,	 2.0402889999999999e-01,	 1.1620758847634617e-02,	 1.7357615589053210e+03,	 1.4788627000009784e+00,	 3.0041124935503569e+02,	 1.0043396716948156e+03,	 3.4784605500759221e+02,	 4.9900298247171797e+00 
3.0463220000000002e-01,	 2.0452740000000000e-01,	 1.1620891722869477e-02,	 1.7357658610429405e+03,	 1.4758856283497446e+00,	 3.0040402512833407e+02,	 1.0043270031893406e+03,	 3.4784187251796880e+02,	 4.9901021861897767e+00 
3.0892170000000002e-01,	 2.0502599999999999e-01,	 1.1620874511713298e-02,	 1.7357707700006169e+03,	 1.4680648976593722e+00,	 3.0039577690775860e+02,	 1.0042979398710376e+03,	 3.4783709712226118e+02,	 4.9901847881794295e+00 
3.1321120000000002e-01,	 2.0552460000000000e-01,	 1.1620734129677663e-02,	 1.7357761062096658e+03,	 1.4558489984978489e+00,	 3.0038667321732476e+02,	 1.0042553722521222e+03,	 3.4783182636699615e+02,	 4.9902757170670542e+00 
3.1750070000000002e-01,	 2.0602309999999999e-01,	 1.1620511420394261e-02,	 1.7357825557896979e+03,	 1.4397439795117752e+00,	 3.0037559033670021e+02,	 1.0041990742041604e+03,	 3.4782540961400554e+02,	 4.9903862826276013e+00 
3.2179020000000003e-01,	 2.0652170000000000e-01,	 1.1620168351471309e-02,	 1.7357886569863163e+03,	 1.4200878080134940e+00,	 3.0036495039784216e+02,	 1.0041338577263374e+03,	 3.4781924920353259e+02,	 4.9904921647203215e+00 
3.2607969999999997e-01,	 2.0702019999999999e-01,	 1.1619743955968261e-02,	 1.7357943878993203e+03,	 1.3967912649799332e+00,	 3.0035531690958828e+02,	 1.0040649804100610e+03,	 3.4781367142304555e+02,	 4.9905886183121044e+00 
3.3036919999999997e-01,	 2.0751879999999998e-01,	 1.1619238870307941e-02,	 1.7358007455483753e+03,	 1.3687017726479918e+00,	 3.0034430676893555e+02,	 1.0039845313689449e+03,	 3.4780729645259771e+02,	 4.9906983058492518e+00 
3.3465869999999998e-01,	 2.0801729999999999e-01,	 1.1618689088826838e-02,	 1.7358073525986681e+03,	 1.3395905231710743e+00,	 3.0033300396067722e+02,	 1.0038992453569673e+03,	 3.4780075190342484e+02,	 4.9908111469172951e+00 
3.3894829999999998e-01,	 2.0851589999999998e-01,	 1.1618051869349898e-02,	 1.7358140820284541e+03,	 1.3103703581857666e+00,	 3.0032148435785751e+02,	 1.0038056836048269e+03,	 3.4779408169920333e+02,	 4.9909261484517016e+00 
3.4323779999999998e-01,	 2.0901439999999999e-01,	 1.1617367691491598e-02,	 1.7358207648275306e+03,	 1.2774907413649643e+00,	 3.0030989106368804e+02,	 1.0037078227093392e+03,	 3.4778736869626675e+02,	 4.9910416281766032e+00 
3.4752729999999998e-01,	 2.0951299999999998e-01,	 1.1616657415305829e-02,	 1.7358275102228647e+03,	 1.2427772569355813e+00,	 3.0029829106066450e+02,	 1.0036076892216327e+03,	 3.4778065167893305e+02,	 4.9911573479729601e+00 
3.5181679999999999e-01,	 2.1001149999999999e-01,	 1.1615892205812512e-02,	 1.7358342024524177e+03,	 1.2064828111142594e+00,	 3.0028676398632308e+02,	 1.0035030584726005e+03,	 3.4777397676266270e+02,	 4.9912723139629271e+00 
3.5610629999999999e-01,	 2.1051009999999998e-01,	 1.1615101710332738e-02,	 1.7358408289113738e+03,	 1.1689004107951670e+00,	 3.0027536355079553e+02,	 1.0033966715877715e+03,	 3.4776737505238560e+02,	 4.9913860442303895e+00 
3.6039579999999999e-01,	 2.1100859999999999e-01,	 1.1614284029502564e-02,	 1.7358472650316710e+03,	 1.1302640243959323e+00,	 3.0026414583185817e+02,	 1.0032885520305379e+03,	 3.4776087902644053e+02,	 4.9914977149417821e+00 
3.6468529999999999e-01,	 2.1150719999999998e-01,	 1.1613477542083273e-02,	 1.7358536501871863e+03,	 1.0908537909438023e+00,	 3.0025314266970889e+02,	 1.0031821215069809e+03,	 3.4775450712947907e+02,	 4.9916074626193936e+00 
3.6897479999999999e-01,	 2.1200569999999999e-01,	 1.1612635578657066e-02,	 1.7358598827846613e+03,	 1.0506619660310488e+00,	 3.0024241752434142e+02,	 1.0030735605742447e+03,	 3.4774829611880443e+02,	 4.9917144674034288e+00 
3.7326429999999999e-01,	 2.1250429999999998e-01,	 1.1611794403126636e-02,	 1.7358658429950228e+03,	 1.0099408542993340e+00,	 3.0023200879577155e+02,	 1.0029661299252368e+03,	 3.4774226824135405e+02,	 4.9918180656315867e+00 
3.7755379999999999e-01,	 2.1300279999999999e-01,	 1.1610978339208553e-02,	 1.7358716669755954e+03,	 9.6887074308141052e-01,	 3.0022194411772512e+02,	 1.0028620225158412e+03,	 3.4773643951023467e+02,	 4.9919184190370247e+00 
3.8184340000000000e-01,	 2.1350139999999998e-01,	 1.1610153003251487e-02,	 1.7358772614998513e+03,	 9.2741317609593321e-01,	 3.0021228057477322e+02,	 1.0027584588730317e+03,	 3.4773084299551238e+02,	 4.9920147844435627e+00 
3.8613290000000000e-01,	 2.1399989999999999e-01,	 1.1609344015564863e-02,	 1.7358825859713597e+03,	 8.8567915633801730e-01,	 3.0020305488435207e+02,	 1.0026577741569183e+03,	 3.4772549997332163e+02,	 4.9921067395097776e+00 
3.9042240000000000e-01,	 2.1449849999999998e-01,	 1.1608557354677635e-02,	 1.7358875640929612e+03,	 8.4376042891205638e-01,	 3.0019430838957624e+02,	 1.0025606223346209e+03,	 3.4772043439958310e+02,	 4.9921937206626046e+00 
3.9471190000000000e-01,	 2.1499699999999999e-01,	 1.1607818598397424e-02,	 1.7358923072114535e+03,	 8.0173563045382967e-01,	 3.0018606816406026e+02,	 1.0024693022635186e+03,	 3.4771566196656391e+02,	 4.9922758225436095e+00 
3.9900140000000001e-01,	 2.1549559999999998e-01,	 1.1607092502160424e-02,	 1.7358967387352723e+03,	 7.5946465316152367e-01,	 3.0017839297240187e+02,	 1.0023809658147759e+03,	 3.4771121672128032e+02,	 4.9923523354777890e+00 
4.0329090000000001e-01,	 2.1599420000000000e-01,	 1.1606405463032404e-02,	 1.7359007294983483e+03,	 7.1702545176896726e-01,	 3.0017131739328198e+02,	 1.0022980075910921e+03,	 3.4770711870360088e+02,	 4.9924225999645984e+00 
4.0758040000000001e-01,	 2.1649269999999998e-01,	 1.1605786709818138e-02,	 1.7359044187806244e+03,	 6.7447457232518659e-01,	 3.0016486595797619e+02,	 1.0022230329727188e+03,	 3.4770338213400731e+02,	 4.9924868120580514e+00 
4.1186990000000001e-01,	 2.1699130000000000e-01,	 1.1605198599687266e-02,	 1.7359077188987212e+03,	 6.3163876952937237e-01,	 3.0015909287397471e+02,	 1.0021529716300302e+03,	 3.4770003842074817e+02,	 4.9925442680401044e+00 
4.1615940000000001e-01,	 2.1748979999999998e-01,	 1.1604665987541514e-02,	 1.7359105974463673e+03,	 5.8852565626621567e-01,	 3.0015402827191912e+02,	 1.0020900699384867e+03,	 3.4769710502675912e+02,	 4.9925946236356342e+00 
4.2044900000000002e-01,	 2.1798840000000000e-01,	 1.1604193605814730e-02,	 1.7359129829086714e+03,	 5.4515443180985679e-01,	 3.0014970230784792e+02,	 1.0020348366550595e+03,	 3.4769459942886283e+02,	 4.9926374219260392e+00 
4.2473850000000002e-01,	 2.1848689999999998e-01,	 1.1603805582642528e-02,	 1.7359149985023444e+03,	 5.0156191824462470e-01,	 3.0014612299433361e+02,	 1.0019893814684585e+03,	 3.4769252627723341e+02,	 4.9926729502863321e+00 
4.2902800000000002e-01,	 2.1898550000000000e-01,	 1.1603461307797396e-02,	 1.7359165926719479e+03,	 4.5756774986206766e-01,	 3.0014332500418641e+02,	 1.0019503129514327e+03,	 3.4769090566238037e+02,	 4.9927007715939284e+00 
4.3331750000000002e-01,	 2.1948399999999998e-01,	 1.1603181276703615e-02,	 1.7359176216495928e+03,	 4.1326695146940989e-01,	 3.0014127936267886e+02,	 1.0019193037967850e+03,	 3.4768972080817730e+02,	 4.9927207131906810e+00 
4.3760700000000002e-01,	 2.1998260000000000e-01,	 1.1602999803490541e-02,	 1.7359182946855644e+03,	 3.6879543607331816e-01,	 3.0014007230084758e+02,	 1.0018996045244230e+03,	 3.4768902166507047e+02,	 4.9927326596265953e+00 
4.4189650000000003e-01,	 2.2048109999999999e-01,	 1.1602860581614440e-02,	 1.7359185159182230e+03,	 3.2402041323278419e-01,	 3.0013959648726245e+02,	 1.0018859946510527e+03,	 3.4768874606837289e+02,	 4.9927372277304229e+00 
4.4618600000000003e-01,	 2.2097970000000000e-01,	 1.1602789882889481e-02,	 1.7359183189577848e+03,	 2.7911069863350219e-01,	 3.0013986135134354e+02,	 1.0018807740727948e+03,	 3.4768889948072001e+02,	 4.9927344358387762e+00 
4.5047549999999997e-01,	 2.2147819999999999e-01,	 1.1602781569350025e-02,	 1.7359176544480929e+03,	 2.3418870827131646e-01,	 3.0014083078761871e+02,	 1.0018832922340065e+03,	 3.4768946098887483e+02,	 4.9927244424028459e+00 