TITLE = "Final State"
VARIABLES = "X", "Y", "rho", "u", "v", "T", "p", "c", "M"
ZONE I=102, J=25, DATAPACKING=POINT, STRANDID=84000, SOLUTIONTIME=0.002027
1.1565000000000001e+00,	 2.8413739999999998e-01,	 5.2096082457931264e-02,	 1.5437766585601967e+03,	 1.9175467730113699e+01,	 6.1379480971630778e+02,	 9.1993727291900723e+03,	 4.9721084460886016e+02,	 3.1051127731877113e+00 
1.1579079999999999e+00,	 2.8412319999999996e-01,	 5.1902792071880921e-02,	 1.5442133546206942e+03,	 2.1406626776427466e+01,	 6.1293155652786936e+02,	 9.1523504222101910e+03,	 4.9686107799155553e+02,	 3.1082364676337328e+00 
1.1593270000000000e+00,	 2.8410879999999999e-01,	 5.1679244423586040e-02,	 1.5448233222371864e+03,	 2.4483864093260404e+01,	 6.1194448551469850e+02,	 9.0982552857964547e+03,	 4.9646084180466596e+02,	 3.1120628295608181e+00 
1.1607580000000000e+00,	 2.8409429999999997e-01,	 5.1455364530161370e-02,	 1.5454272111635346e+03,	 2.7508530765870681e+01,	 6.1094624004175284e+02,	 9.0440632948825223e+03,	 4.9605574618363994e+02,	 3.1159240245364157e+00 
1.1621999999999999e+00,	 2.8407959999999999e-01,	 5.1226974140825887e-02,	 1.5460328380245348e+03,	 3.0461588135423817e+01,	 6.0992634015176816e+02,	 8.9888892670585428e+03,	 4.9564152109305132e+02,	 3.1198615056434917e+00 
1.1636530000000000e+00,	 2.8406490000000001e-01,	 5.0998823722168407e-02,	 1.5466435158033178e+03,	 3.3364297189261180e+01,	 6.0888989708557176e+02,	 8.9336485829204321e+03,	 4.9522022215657836e+02,	 3.1238694890789120e+00 
1.1651170000000000e+00,	 2.8404999999999997e-01,	 5.0769897507018755e-02,	 1.5472480084403644e+03,	 3.6232675025544239e+01,	 6.0785247833237543e+02,	 8.8783940387869097e+03,	 4.9479816739349246e+02,	 3.1278858564106038e+00 
1.1665930000000000e+00,	 2.8403509999999998e-01,	 5.0545555670182082e-02,	 1.5478484448130716e+03,	 3.9070318445692052e+01,	 6.0681577988287836e+02,	 8.8240869446657925e+03,	 4.9437604573482372e+02,	 3.1319103750766430e+00 
1.1680809999999999e+00,	 2.8401999999999999e-01,	 5.0323414939134170e-02,	 1.5484342932761131e+03,	 4.1879881656710751e+01,	 6.0579133088304468e+02,	 8.7704746208605884e+03,	 4.9395855742909453e+02,	 3.1358917071655688e+00 
1.1695810000000000e+00,	 2.8400480000000000e-01,	 5.0107143517433492e-02,	 1.5490063351857993e+03,	 4.4655540893472562e+01,	 6.0478133510370640e+02,	 8.7182227754457472e+03,	 4.9354661345569491e+02,	 3.1398247613408046e+00 
1.1710920000000000e+00,	 2.8398940000000000e-01,	 4.9896223128763406e-02,	 1.5495577157320258e+03,	 4.7389371380847066e+01,	 6.0379377057114152e+02,	 8.6673480900696704e+03,	 4.9314348571268073e+02,	 3.1436736656932118e+00 
1.1726160000000001e+00,	 2.8397400000000000e-01,	 4.9694545821181990e-02,	 1.5500901712742120e+03,	 5.0068790692899398e+01,	 6.0282990036416561e+02,	 8.6185349756142878e+03,	 4.9274971205521297e+02,	 3.1474368176750769e+00 
1.1741520000000001e+00,	 2.8395840000000000e-01,	 4.9499688447791165e-02,	 1.5505921593760620e+03,	 5.2685434646281749e+01,	 6.0190337798909309e+02,	 8.5715464629966991e+03,	 4.9237089940015403e+02,	 3.1510533339409932e+00 
1.1756990000000000e+00,	 2.8394269999999999e-01,	 4.9316668515994380e-02,	 1.5510630388381901e+03,	 5.5217298400979658e+01,	 6.0101956461094915e+02,	 8.5273144484871373e+03,	 4.9200927669955644e+02,	 3.1545047204002112e+00 
1.1772600000000000e+00,	 2.8392689999999998e-01,	 4.9146320479419442e-02,	 1.5514958108699275e+03,	 5.7646443637293146e+01,	 6.0018935387079750e+02,	 8.4861212650368507e+03,	 4.9166934388660889e+02,	 3.1577449338271677e+00 
1.1788320000000001e+00,	 2.8391089999999997e-01,	 4.8990025096599568e-02,	 1.5518800155653551e+03,	 5.9948798888643211e+01,	 5.9942870008926309e+02,	 8.4484129216025467e+03,	 4.9135768498003085e+02,	 3.1607066219555606e+00 
1.1804170000000000e+00,	 2.8389480000000000e-01,	 4.8852840860058547e-02,	 1.5522106394821810e+03,	 6.2090460450568095e+01,	 5.9874969903923102e+02,	 8.4152121512378199e+03,	 4.9107931415977231e+02,	 3.1633423526959246e+00 
1.1820150000000000e+00,	 2.8387859999999998e-01,	 4.8737115742555570e-02,	 1.5524759855035659e+03,	 6.4035915908686178e+01,	 5.9817093249869765e+02,	 8.3871626777128804e+03,	 4.9084191195892356e+02,	 3.1655733760042351e+00 
1.1836260000000001e+00,	 2.8386230000000001e-01,	 4.8647019367336175e-02,	 1.5526641483233791e+03,	 6.5740839261539406e+01,	 5.9771505497718101e+02,	 8.3652778056277966e+03,	 4.9065483629873796e+02,	 3.1673085960213148e+00 
1.1852490000000000e+00,	 2.8384579999999998e-01,	 4.8585941870449761e-02,	 1.5527616231439131e+03,	 6.7161298873008164e+01,	 5.9740523896444824e+02,	 8.3504444355418636e+03,	 4.9052765828373691e+02,	 3.1684521261263803e+00 
1.1868860000000001e+00,	 2.8382920000000000e-01,	 4.8560603780463243e-02,	 1.5527581122174911e+03,	 6.8240453514612483e+01,	 5.9726284468772315e+02,	 8.3441002604677014e+03,	 4.9046919504201878e+02,	 3.1689184902760297e+00 
1.1885349999999999e+00,	 2.8381249999999997e-01,	 4.8574877463577193e-02,	 1.5526373621508446e+03,	 6.8925108310539827e+01,	 5.9731814544023985e+02,	 8.3473256972924792e+03,	 4.9049190086408970e+02,	 3.1685874480196938e+00 
1.1901980000000001e+00,	 2.8379559999999998e-01,	 4.8633634016438651e-02,	 1.5523848198234959e+03,	 6.9134766989868439e+01,	 5.9759756228332390e+02,	 8.3613321701534824e+03,	 4.9060660998149041e+02,	 3.1673513334271624e+00 
1.1918740000000001e+00,	 2.8377859999999999e-01,	 4.8744822943919727e-02,	 1.5519888895784893e+03,	 6.8857874046345572e+01,	 5.9812731014984774e+02,	 8.3878772679498470e+03,	 4.9082401400841081e+02,	 3.1651174764746957e+00 
1.1935640000000001e+00,	 2.8376150000000000e-01,	 4.8908097443360082e-02,	 1.5514511617566507e+03,	 6.8011331328780400e+01,	 5.9890922468688052e+02,	 8.4269750604032706e+03,	 4.9114472924759588e+02,	 3.1618809450519492e+00 
1.1952670000000001e+00,	 2.8374420000000000e-01,	 4.9121115047573646e-02,	 1.5507671540236511e+03,	 6.6560853589074043e+01,	 5.9994555460015135e+02,	 8.4783237018684449e+03,	 4.9156947473538594e+02,	 3.1576308412270451e+00 
1.1969840000000000e+00,	 2.8372680000000000e-01,	 4.9390977662447752e-02,	 1.5499333660943287e+03,	 6.4595694543546742e+01,	 6.0126737206963173e+02,	 8.5436844067976836e+03,	 4.9211069686176427e+02,	 3.1522965281398854e+00 
1.1987140000000001e+00,	 2.8370919999999999e-01,	 4.9706371162706840e-02,	 1.5489782211574407e+03,	 6.2086310052684581e+01,	 6.0281461606152482e+02,	 8.6203672784228311e+03,	 4.9274346536484552e+02,	 3.1461036133714133e+00 
1.2004589999999999e+00,	 2.8369159999999999e-01,	 5.0061866457540266e-02,	 1.5479312245225674e+03,	 5.9106086926533813e+01,	 6.0454298809182944e+02,	 8.7069121610628154e+03,	 4.9344934941483456e+02,	 3.1392467463497691e+00 
1.2022180000000000e+00,	 2.8367369999999997e-01,	 5.0442525521218529e-02,	 1.5468162245591661e+03,	 5.5762089295377805e+01,	 6.0640507810793201e+02,	 8.8001401624179471e+03,	 4.9420871695635770e+02,	 3.1319176398918440e+00 
1.2039899999999999e+00,	 2.8365570000000001e-01,	 5.0839445475525394e-02,	 1.5456785832281519e+03,	 5.2161818220353737e+01,	 6.0832795755155007e+02,	 8.8975106929290796e+03,	 4.9499165205028925e+02,	 3.1244132612982818e+00 
1.2057780000000000e+00,	 2.8363759999999999e-01,	 5.1236478968196941e-02,	 1.5445555482729235e+03,	 4.8424786670731471e+01,	 6.1024371093957211e+02,	 8.9952352679821051e+03,	 4.9577045607439766e+02,	 3.1169958757802356e+00 
1.2075790000000000e+00,	 2.8361929999999996e-01,	 5.1618985061994485e-02,	 1.5434821120667889e+03,	 4.4664931057525180e+01,	 6.1208766616083949e+02,	 9.0897727762178238e+03,	 4.9651891849978256e+02,	 3.1099081446043209e+00 
1.2093950000000000e+00,	 2.8360089999999999e-01,	 5.1976627556345641e-02,	 1.5424937100785373e+03,	 4.0973644879129893e+01,	 6.1379980756109831e+02,	 9.1783535519186316e+03,	 4.9721286888271493e+02,	 3.1033746454578255e+00 
1.2112259999999999e+00,	 2.8358230000000001e-01,	 5.2298261407125811e-02,	 1.5416114571211542e+03,	 3.7421471375179024e+01,	 6.1533899715733526e+02,	 9.2583080819153474e+03,	 4.9783589424750886e+02,	 3.0975379582779632e+00 
1.2130719999999999e+00,	 2.8356359999999997e-01,	 5.2578629768517966e-02,	 1.5408545589391420e+03,	 3.4051989433035061e+01,	 6.1667314452712549e+02,	 9.3281224231046453e+03,	 4.9837529352800527e+02,	 3.0925103984964859e+00 
1.2149319999999999e+00,	 2.8354469999999998e-01,	 5.2812509251556561e-02,	 1.5402280894784412e+03,	 3.0885336852996915e+01,	 6.1778949124728979e+02,	 9.3865772011177341e+03,	 4.9882618721960461e+02,	 3.0883256754817952e+00 
1.2168079999999999e+00,	 2.8352569999999999e-01,	 5.3000504164293659e-02,	 1.5397366826317304e+03,	 2.7918093922184035e+01,	 6.1868212015499603e+02,	 9.4336009975343277e+03,	 4.9918642801222228e+02,	 3.0849992650500364e+00 
1.2186990000000000e+00,	 2.8350649999999999e-01,	 5.3142018124734444e-02,	 1.5393726366954729e+03,	 2.5134198463588064e+01,	 6.1936064800493864e+02,	 9.4691629246777757e+03,	 4.9946008961049910e+02,	 3.0824841566103860e+00 
1.2206049999999999e+00,	 2.8348719999999999e-01,	 5.3240999845687698e-02,	 1.5391314275027075e+03,	 2.2506263242899646e+01,	 6.1983491936712846e+02,	 9.4940645353379678e+03,	 4.9965128216359534e+02,	 3.0807405582037850e+00 
1.2225269999999999e+00,	 2.8346769999999999e-01,	 5.3299675120870187e-02,	 1.5389996667508499e+03,	 2.0002681817949011e+01,	 6.2012493874226925e+02,	 9.5089748003358309e+03,	 4.9976816135310332e+02,	 3.0796872823837620e+00 
1.2244640000000000e+00,	 2.8344809999999998e-01,	 5.3323511023007586e-02,	 1.5389687916913481e+03,	 1.7588743835927218e+01,	 6.2024720436864413e+02,	 9.5151029205451850e+03,	 4.9981742679292540e+02,	 3.0792629789157830e+00 
1.2264170000000001e+00,	 2.8342829999999997e-01,	 5.3315460754786048e-02,	 1.5390233020683145e+03,	 1.5249509190228412e+01,	 6.2022519940208065e+02,	 9.5133288989421289e+03,	 4.9980856051893107e+02,	 3.0793767297153400e+00 
1.2283860000000000e+00,	 2.8340830000000000e-01,	 5.3279534109377399e-02,	 1.5391555575798343e+03,	 1.2924747521236343e+01,	 6.2007406381687156e+02,	 9.5046017061086332e+03,	 4.9974766049284352e+02,	 3.0799740444647692e+00 
1.2303710000000001e+00,	 2.8338809999999998e-01,	 5.3218610034043032e-02,	 1.5393544251522289e+03,	 1.0585005695400426e+01,	 6.1980832928787208e+02,	 9.4896648184465248e+03,	 4.9964056486672604e+02,	 3.0809964714805536e+00 
1.2323720000000000e+00,	 2.8336780000000000e-01,	 5.3140396712951517e-02,	 1.5396067993940583e+03,	 8.2628537810467630e+00,	 6.1945529156373698e+02,	 9.4703209360587134e+03,	 4.9949824902118212e+02,	 3.0823510893986072e+00 
1.2343890000000000e+00,	 2.8334739999999997e-01,	 5.3043723596744266e-02,	 1.5399094930741353e+03,	 5.9035369255359909e+00,	 6.1901522392091192e+02,	 9.4463769315376976e+03,	 4.9932079305842990e+02,	 3.0840310089391547e+00 
1.2364230000000000e+00,	 2.8332679999999999e-01,	 5.2931525718537702e-02,	 1.5402520323858594e+03,	 3.5044677076987085e+00,	 6.1850556562166878e+02,	 9.4186348886672713e+03,	 4.9911519602362620e+02,	 3.0859730006866242e+00 
1.2384729999999999e+00,	 2.8330600000000000e-01,	 5.2806934670882551e-02,	 1.5406285721745321e+03,	 1.0590595853130691e+00,	 6.1793651042586646e+02,	 9.3878199546661708e+03,	 4.9888553806219738e+02,	 3.0881411038057047e+00 
1.2405409999999999e+00,	 2.8328500000000001e-01,	 5.2671677104943387e-02,	 1.5410336323255146e+03,	 -1.4374453861882914e+00,	 6.1731646234825462e+02,	 9.3543785973326940e+03,	 4.9863518009655576e+02,	 3.0905045697680871e+00 
1.2426250000000001e+00,	 2.8326380000000001e-01,	 5.2527149553770552e-02,	 1.5414614338834508e+03,	 -3.9868100453609827e+00,	 6.1665365856555297e+02,	 9.3186947072670246e+03,	 4.9836741950379843e+02,	 3.0930324280005568e+00 
1.2447260000000000e+00,	 2.8324250000000001e-01,	 5.2375935784969366e-02,	 1.5419108594510176e+03,	 -6.5917750266247932e+00,	 6.1595048355683082e+02,	 9.2812727050461981e+03,	 4.9808319231328386e+02,	 3.0957176899932777e+00 
1.2468440000000001e+00,	 2.8322110000000000e-01,	 5.2217912819744902e-02,	 1.5423765231259367e+03,	 -9.2481008911408473e+00,	 6.1521452318585898e+02,	 9.2422141117433839e+03,	 4.9778553928440203e+02,	 3.0985316506668079e+00 
1.2489790000000001e+00,	 2.8319939999999999e-01,	 5.2053507556605219e-02,	 1.5428520087929408e+03,	 -1.1954359185983265e+01,	 6.1445390154249606e+02,	 9.2017248496171487e+03,	 4.9747772506517987e+02,	 3.1014420201577066e+00 
1.2511319999999999e+00,	 2.8317759999999997e-01,	 5.1886069290734013e-02,	 1.5433410998871968e+03,	 -1.4709442555718985e+01,	 6.1366641854890054e+02,	 9.1603710794287927e+03,	 4.9715883959151284e+02,	 3.1044629453594155e+00 
1.2533030000000001e+00,	 2.8315550000000000e-01,	 5.1713559560486941e-02,	 1.5438364952666359e+03,	 -1.7508880443416832e+01,	 6.1286063852155075e+02,	 9.1179267529770368e+03,	 4.9683233300690659e+02,	 3.1075589789923304e+00 
1.2554909999999999e+00,	 2.8313329999999998e-01,	 5.1539861370796226e-02,	 1.5443418830877433e+03,	 -2.0352661213310938e+01,	 6.1203323647658760e+02,	 9.0750325348902825e+03,	 4.9649684162233081e+02,	 3.1107468571737242e+00 
1.2576970000000001e+00,	 2.8311100000000000e-01,	 5.1363590213896304e-02,	 1.5448515046736529e+03,	 -2.3233561643026547e+01,	 6.1119044776807459e+02,	 9.0315412118672484e+03,	 4.9615487809966214e+02,	 3.1139998250945360e+00 
1.2599220000000000e+00,	 2.8308839999999996e-01,	 5.1184281121650389e-02,	 1.5453589342783143e+03,	 -2.6145457489685501e+01,	 6.1034084571817539e+02,	 8.9875015986784074e+03,	 4.9580991132519608e+02,	 3.1172835731365351e+00 
1.2621640000000001e+00,	 2.8306559999999997e-01,	 5.1004551229994421e-02,	 1.5458663909051043e+03,	 -2.9087119697229575e+01,	 6.0948263614171492e+02,	 8.9433495509170025e+03,	 4.9546120576104005e+02,	 3.1206076303276897e+00 
1.2644249999999999e+00,	 2.8304269999999998e-01,	 5.0824586413859799e-02,	 1.5463738722654143e+03,	 -3.2054364224258670e+01,	 6.0861553555924070e+02,	 8.8991151162019723e+03,	 4.9510863820226416e+02,	 3.1239730845921985e+00 
1.2667050000000000e+00,	 2.8301959999999998e-01,	 5.0643469880816055e-02,	 1.5468768361502321e+03,	 -3.5040385250289674e+01,	 6.0774521220724978e+02,	 8.8547221419296275e+03,	 4.9475450760288601e+02,	 3.1273563654174019e+00 
1.2690030000000001e+00,	 2.8299629999999998e-01,	 5.0462327233663659e-02,	 1.5473754613111405e+03,	 -3.8041048592428325e+01,	 6.0687243346223772e+02,	 8.8103796598826830e+03,	 4.9439912318252215e+02,	 3.1307559484246221e+00 
1.2713200000000000e+00,	 2.8297279999999997e-01,	 5.0281364967566314e-02,	 1.5478694469992238e+03,	 -4.1051256963574836e+01,	 6.0599774487490208e+02,	 8.7661319659961591e+03,	 4.9404270461692539e+02,	 3.1341697789201568e+00 
1.2736559999999999e+00,	 2.8294910000000001e-01,	 5.0100694183206285e-02,	 1.5483579967657083e+03,	 -4.4064333967326313e+01,	 6.0512260080974329e+02,	 8.7220195265194925e+03,	 4.9368584293414887e+02,	 3.1375922562440368e+00 
1.2760110000000000e+00,	 2.8292519999999999e-01,	 4.9920406487112212e-02,	 1.5488411106908070e+03,	 -4.7073499167991805e+01,	 6.0424727177661975e+02,	 8.6780620020017595e+03,	 4.9332864759944897e+02,	 3.1410223165188613e+00 
1.2783860000000000e+00,	 2.8290110000000002e-01,	 4.9740648408670249e-02,	 1.5493190053306621e+03,	 -5.0070153355582733e+01,	 6.0337223933609982e+02,	 8.6342914584316004e+03,	 4.9297131461155072e+02,	 3.1444585514838059e+00 
1.2807800000000000e+00,	 2.8287679999999998e-01,	 4.9561201299931426e-02,	 1.5497921123425358e+03,	 -5.3045368756978213e+01,	 6.0249730088961189e+02,	 8.5906666618281233e+03,	 4.9261376084659958e+02,	 3.1479016069859371e+00 
1.2831939999999999e+00,	 2.8285230000000000e-01,	 4.9381967883683042e-02,	 1.5502612548626794e+03,	 -5.5987696077190222e+01,	 6.0162243298225326e+02,	 8.5471701925719517e+03,	 4.9225597622794004e+02,	 3.1513521386230083e+00 
1.2856280000000000e+00,	 2.8282760000000001e-01,	 4.9203188860964517e-02,	 1.5507276271542066e+03,	 -5.8884149595981640e+01,	 6.0074669954261196e+02,	 8.5038302285352511e+03,	 4.9189757701953306e+02,	 3.1548136642645423e+00 
1.2880810000000000e+00,	 2.8280279999999997e-01,	 4.9024766122891569e-02,	 1.5511944475600324e+03,	 -6.1719369375200472e+01,	 5.9986743136571022e+02,	 8.4605919815829020e+03,	 4.9153746829139396e+02,	 3.1582980263244211e+00 
1.2905549999999999e+00,	 2.8277769999999997e-01,	 4.8845127701349661e-02,	 1.5516591031159373e+03,	 -6.4475211999186982e+01,	 5.9898875511927270e+02,	 8.4172428276015689e+03,	 4.9117733824276036e+02,	 3.1617869055962546e+00 
1.2930500000000000e+00,	 2.8275240000000001e-01,	 4.8666204777688002e-02,	 1.5521268701522977e+03,	 -6.7131893675441773e+01,	 5.9810657426999046e+02,	 8.3740585446238692e+03,	 4.9081550599028139e+02,	 3.1652992868196081e+00 
1.2955639999999999e+00,	 2.8272690000000000e-01,	 4.8486636741304198e-02,	 1.5525971178385216e+03,	 -6.9665163579479866e+01,	 5.9722349045842691e+02,	 8.3308416447191230e+03,	 4.9045303602986519e+02,	 3.1688238397197455e+00 
1.2981000000000000e+00,	 2.8270109999999998e-01,	 4.8306884548613829e-02,	 1.5530699400184267e+03,	 -7.2050097936219657e+01,	 5.9634155736578145e+02,	 8.2877003837460979e+03,	 4.9009077083465155e+02,	 3.1723517563124140e+00 
1.3006570000000000e+00,	 2.8267520000000002e-01,	 4.8129061725163215e-02,	 1.5535491939083047e+03,	 -7.4257058943473481e+01,	 5.9545960806250287e+02,	 8.2449806339458355e+03,	 4.8972823099605364e+02,	 3.1758897378768607e+00 
1.3032340000000000e+00,	 2.8264909999999999e-01,	 4.7952102399667351e-02,	 1.5540297582922258e+03,	 -7.6251309945029163e+01,	 5.9458755143647295e+02,	 8.2026353035297216e+03,	 4.8936949362749789e+02,	 3.1793958529971098e+00 
1.3058330000000000e+00,	 2.8262270000000000e-01,	 4.7778137050306986e-02,	 1.5545087876946382e+03,	 -7.7996520443165650e+01,	 5.9373429764271191e+02,	 8.1611486146906846e+03,	 4.8901823645305956e+02,	 3.1828348216906104e+00 
1.3084530000000001e+00,	 2.8259610000000002e-01,	 4.7610160276734703e-02,	 1.5549839571856216e+03,	 -7.9452440678541336e+01,	 5.9290852586724304e+02,	 8.1211452183624751e+03,	 4.8867805232941066e+02,	 3.1861722693766774e+00 
1.3110949999999999e+00,	 2.8256929999999997e-01,	 4.7450473561227779e-02,	 1.5554483493927817e+03,	 -8.0574646236200266e+01,	 5.9212473286903014e+02,	 8.0832068089825007e+03,	 4.8835494253544329e+02,	 3.1893480778869736e+00 
1.3137589999999999e+00,	 2.8254229999999997e-01,	 4.7302243428229224e-02,	 1.5558926749816242e+03,	 -8.1313699199671447e+01,	 5.9140264358787636e+02,	 8.0481291635236948e+03,	 4.8805708008833631e+02,	 3.1922823957065178e+00 
1.3164450000000001e+00,	 2.8251500000000002e-01,	 4.7169829729633087e-02,	 1.5563044608090663e+03,	 -8.1616933726560347e+01,	 5.9076560373142888e+02,	 8.0169550281680495e+03,	 4.8779414959015713e+02,	 3.1948786228068227e+00 
1.3191530000000000e+00,	 2.8248760000000001e-01,	 4.7055420859133106e-02,	 1.5566762312138021e+03,	 -8.1443486836109912e+01,	 5.9023024522862147e+02,	 7.9902627328535491e+03,	 4.8757307719371153e+02,	 3.1970700646721966e+00 
1.3218829999999999e+00,	 2.8245989999999999e-01,	 4.6967604461546679e-02,	 1.5569907143557489e+03,	 -8.0749431409436482e+01,	 5.8982508916862889e+02,	 7.9698764592588341e+03,	 4.8740570429101388e+02,	 3.1987381932605459e+00 
1.3246359999999999e+00,	 2.8243200000000002e-01,	 4.6913893500179216e-02,	 1.5572359679870558e+03,	 -7.9443090931752380e+01,	 5.8957557201568102e+02,	 7.9573946228722143e+03,	 4.8730259834434372e+02,	 3.1997799087704588e+00 
1.3274120000000000e+00,	 2.8240379999999998e-01,	 4.6891599446679366e-02,	 1.5573957552406596e+03,	 -7.7519555008586153e+01,	 5.8950607762192976e+02,	 7.9526756645353889e+03,	 4.8727387785604782e+02,	 3.2000973272845923e+00 
1.3302099999999999e+00,	 2.8237540000000000e-01,	 4.6903186066373906e-02,	 1.5574841348066343e+03,	 -7.5010623284951706e+01,	 5.8960446300920830e+02,	 7.9559683074065524e+03,	 4.8731453785168833e+02,	 3.1997596540683388e+00 
1.3330320000000000e+00,	 2.8234680000000001e-01,	 4.6949899191625337e-02,	 1.5574561451235072e+03,	 -7.1888747330798765e+01,	 5.8987991267032430e+02,	 7.9676125840041950e+03,	 4.8742835563888593e+02,	 3.1986534174518595e+00 
1.3358770000000000e+00,	 2.8231790000000001e-01,	 4.7030504027787440e-02,	 1.5573490254310595e+03,	 -6.8191751606838665e+01,	 5.9032629573553209e+02,	 7.9873313198992400e+03,	 4.8761274792939423e+02,	 3.1968837476849639e+00 
1.3387460000000000e+00,	 2.8228880000000001e-01,	 4.7139009366871966e-02,	 1.5571695541743418e+03,	 -6.4017620150773297e+01,	 5.9090150754873343e+02,	 8.0135598893234164e+03,	 4.8785025413854106e+02,	 3.1945969413572008e+00 
1.3416390000000000e+00,	 2.8225950000000000e-01,	 4.7267064031031619e-02,	 1.5569331922013914e+03,	 -5.9457201983829634e+01,	 5.9156845700959229e+02,	 8.0443984487150292e+03,	 4.8812549434359551e+02,	 3.1919416057068806e+00 
1.3445549999999999e+00,	 2.8222989999999998e-01,	 4.7404853481639232e-02,	 1.5566633403890987e+03,	 -5.4622825950062150e+01,	 5.9227901068810831e+02,	 8.0775394613822991e+03,	 4.8841855871656628e+02,	 3.1891118112626047e+00 
1.3474960000000000e+00,	 2.8220010000000001e-01,	 4.7542604809168457e-02,	 1.5563901763464985e+03,	 -4.9632515638088826e+01,	 5.9297711959668379e+02,	 8.1105600888032623e+03,	 4.8870631915237527e+02,	 3.1863335759280407e+00 
1.3504609999999999e+00,	 2.8216999999999998e-01,	 4.7669342750288807e-02,	 1.5561370233214839e+03,	 -4.4599585495867331e+01,	 5.9361753512639461e+02,	 8.1409637851068037e+03,	 4.8897014944885763e+02,	 3.1837853823008362e+00 
1.3534500000000000e+00,	 2.8213969999999999e-01,	 4.7777752320693187e-02,	 1.5559290090892055e+03,	 -3.9620635926546591e+01,	 5.9415850874601097e+02,	 8.1669138257629638e+03,	 4.8919290206149111e+02,	 3.1816352538425945e+00 
1.3564650000000000e+00,	 2.8210910000000000e-01,	 4.7860664209875066e-02,	 1.5557818643983346e+03,	 -3.4767294577007149e+01,	 5.9457286352267249e+02,	 8.1867917438691156e+03,	 4.8936344921796410e+02,	 3.1799888067112261e+00 
1.3595040000000000e+00,	 2.8207830000000000e-01,	 4.7915140486829724e-02,	 1.5557165683353928e+03,	 -3.0087117735895212e+01,	 5.9484146666606102e+02,	 8.1998128269483168e+03,	 4.8947397370272176e+02,	 3.1789381313418685e+00 
1.3625689999999999e+00,	 2.8204720000000000e-01,	 4.7939051971242437e-02,	 1.5557127588959561e+03,	 -2.5601865569198115e+01,	 5.9496687205108640e+02,	 8.2056344063315610e+03,	 4.8952556680837722e+02,	 3.1784313444989647e+00 
1.3656590000000000e+00,	 2.8201579999999998e-01,	 4.7933723342393854e-02,	 1.5557917250211883e+03,	 -2.1302423061276837e+01,	 5.9494159123082204e+02,	 8.2043736872830232e+03,	 4.8951516644835982e+02,	 3.1785277858549108e+00 
1.3687739999999999e+00,	 2.8198419999999996e-01,	 4.7902309053425574e-02,	 1.5559443065087210e+03,	 -1.7204884575896415e+01,	 5.9478663068434446e+02,	 8.1968612538525686e+03,	 4.8945141188920445e+02,	 3.1791499370058873e+00 
1.3719159999999999e+00,	 2.8195239999999999e-01,	 4.7833005200629247e-02,	 1.5562037269832549e+03,	 -1.3419694397231101e+01,	 5.9445272098759744e+02,	 8.1804072298386700e+03,	 4.8931400503770129e+02,	 3.1804967184008115e+00 
1.3750830000000001e+00,	 2.8192020000000001e-01,	 4.7759016810461727e-02,	 1.5563985869213693e+03,	 -1.1053522006147817e+01,	 5.9410639160305288e+02,	 8.1629951748082094e+03,	 4.8917144659535995e+02,	 3.1817839087751447e+00 
1.1565000000000001e+00,	 2.8488340000000001e-01,	 5.1759305404216464e-02,	 1.5445719646289494e+03,	 2.2127137097963107e+01,	 6.1212849815544973e+02,	 9.1150903116252994e+03,	 4.9653547946059098e+02,	 3.1110172670596890e+00 
1.1579079999999999e+00,	 2.8486970000000000e-01,	 5.1562225299717247e-02,	 1.5450325836050310e+03,	 2.4262209072471563e+01,	 6.1121228689216514e+02,	 9.0667922702988526e+03,	 4.9616374235072959e+02,	 3.1143409707687506e+00 
1.1593279999999999e+00,	 2.8485590000000000e-01,	 5.1325202101625202e-02,	 1.5456873628518958e+03,	 2.7120548172627586e+01,	 6.1011692986466392e+02,	 9.0089397370358238e+03,	 4.9571895404732817e+02,	 3.1185518725235699e+00 
1.1607580000000000e+00,	 2.8484199999999998e-01,	 5.1101142670749264e-02,	 1.5463093249380222e+03,	 3.0077108883086009e+01,	 6.0908033776453146e+02,	 8.9543719201244821e+03,	 4.9529766037872344e+02,	 3.1225703943769219e+00 
1.1621999999999999e+00,	 2.8482799999999997e-01,	 5.0879318586270129e-02,	 1.5469179626813700e+03,	 3.3031418757592839e+01,	 6.0805865807253986e+02,	 8.9005470536571720e+03,	 4.9488207649296845e+02,	 3.1265439925555705e+00 
1.1636530000000000e+00,	 2.8481390000000001e-01,	 5.0658631656940442e-02,	 1.5475226095132139e+03,	 3.5944248864909454e+01,	 6.0703445136698019e+02,	 8.8470143532415823e+03,	 4.9446511412240341e+02,	 3.1305342821326247e+00 
1.1651180000000001e+00,	 2.8479959999999999e-01,	 5.0437821689725930e-02,	 1.5481188490989107e+03,	 3.8809010791885356e+01,	 6.0601213230042345e+02,	 8.7936176467299538e+03,	 4.9404856929256869e+02,	 3.1345201883245410e+00 
1.1665939999999999e+00,	 2.8478529999999996e-01,	 5.0219875819981247e-02,	 1.5487062225080924e+03,	 4.1628038719415564e+01,	 6.0499508770877310e+02,	 8.7409255329912121e+03,	 4.9363382477342691e+02,	 3.1384915470974253e+00 
1.1680820000000001e+00,	 2.8477079999999999e-01,	 5.0005204598179975e-02,	 1.5492788101855911e+03,	 4.4401112236439644e+01,	 6.0399279175730499e+02,	 8.6891421408147071e+03,	 4.9322475345667169e+02,	 3.1424110797542371e+00 
1.1695810000000000e+00,	 2.8475620000000001e-01,	 4.9796325142479975e-02,	 1.5498338863036702e+03,	 4.7124013597415967e+01,	 6.0301144465508389e+02,	 8.6387874007639512e+03,	 4.9282390310234558e+02,	 3.1462559624869328e+00 
1.1710929999999999e+00,	 2.8474149999999998e-01,	 4.9593506026680625e-02,	 1.5503643001947125e+03,	 4.9789932854263832e+01,	 6.0206043299568796e+02,	 8.5900330746378186e+03,	 4.9243513252621881e+02,	 3.1499856392798611e+00 
1.1726160000000001e+00,	 2.8472670000000000e-01,	 4.9399995737471600e-02,	 1.5508687140153352e+03,	 5.2386098993598559e+01,	 6.0114484469452054e+02,	 8.5435029937858089e+03,	 4.9206055269385763e+02,	 3.1535818438669065e+00 
1.1741520000000001e+00,	 2.8471180000000001e-01,	 4.9216527127045426e-02,	 1.5513404486613019e+03,	 5.4895599510596483e+01,	 6.0027590784317238e+02,	 8.4994694253538019e+03,	 4.9170479469924402e+02,	 3.1569987256959888e+00 
1.1757000000000000e+00,	 2.8469679999999997e-01,	 4.9045492774642277e-02,	 1.5517722644829128e+03,	 5.7298445272077124e+01,	 5.9946489096541814e+02,	 8.4584890724065590e+03,	 4.9137251776725026e+02,	 3.1601884655422250e+00 
1.1772600000000000e+00,	 2.8468159999999998e-01,	 4.8890078151566568e-02,	 1.5521591277356565e+03,	 5.9568939214231058e+01,	 5.9872343311658710e+02,	 8.4212570717294966e+03,	 4.9106854271991949e+02,	 3.1631058472938736e+00 
1.1788330000000000e+00,	 2.8466629999999998e-01,	 4.8752451047928760e-02,	 1.5524904581880796e+03,	 6.1675984437361457e+01,	 5.9806920008361112e+02,	 8.3883748536300136e+03,	 4.9080017083300180e+02,	 3.1656775452290713e+00 
1.1804180000000000e+00,	 2.8465089999999998e-01,	 4.8636668121852349e-02,	 1.5527566418790555e+03,	 6.3583741341106190e+01,	 5.9751979972367894e+02,	 8.3607657196910350e+03,	 4.9057468877786067e+02,	 3.1678314752258929e+00 
1.1820160000000000e+00,	 2.8463539999999998e-01,	 4.8546782480879118e-02,	 1.5529455549354784e+03,	 6.5248689516439867e+01,	 5.9709659815003670e+02,	 8.3394034687396197e+03,	 4.9040092988785710e+02,	 3.1694795073957875e+00 
1.1836260000000001e+00,	 2.8461969999999998e-01,	 4.8488138980638119e-02,	 1.5530464470435013e+03,	 6.6616857273086580e+01,	 5.9682517340635877e+02,	 8.3255433445116832e+03,	 4.9028945539839117e+02,	 3.1705240963976324e+00 
1.1852499999999999e+00,	 2.8460389999999997e-01,	 4.8463431299857390e-02,	 1.5530466157546928e+03,	 6.7652058238862239e+01,	 5.9672464334365645e+02,	 8.3198993180244634e+03,	 4.9024816114034513e+02,	 3.1708826912816770e+00 
1.1868860000000001e+00,	 2.8458800000000001e-01,	 4.8480458875029345e-02,	 1.5529283249245079e+03,	 6.8286300097538074e+01,	 5.9683239201308515e+02,	 8.3243253313909026e+03,	 4.9029242041747608e+02,	 3.1704119792739593e+00 
1.1885360000000000e+00,	 2.8457199999999999e-01,	 4.8543168986046881e-02,	 1.5526808357978889e+03,	 6.8467461192037462e+01,	 5.9716644593127808e+02,	 8.3397582025518459e+03,	 4.9042961236176774e+02,	 3.1690371950194129e+00 
1.1901980000000001e+00,	 2.8455579999999997e-01,	 4.8654809984297859e-02,	 1.5522918360928386e+03,	 6.8124992517661312e+01,	 5.9774585320970584e+02,	 8.3670485733914102e+03,	 4.9066747702692305e+02,	 3.1666782105209483e+00 
1.1918750000000000e+00,	 2.8453950000000000e-01,	 4.8821400997189519e-02,	 1.5517501382946730e+03,	 6.7250573040866811e+01,	 5.9859835021855167e+02,	 8.4076706507478902e+03,	 4.9101724400541855e+02,	 3.1632427255526250e+00 
1.1935640000000001e+00,	 2.8452309999999997e-01,	 4.9043872741454775e-02,	 1.5510629141479976e+03,	 6.5823119592833351e+01,	 5.9972058424498198e+02,	 8.4618174079024138e+03,	 4.9147730059752450e+02,	 3.1587602640398198e+00 
1.1952670000000001e+00,	 2.8450650000000000e-01,	 4.9316373419961881e-02,	 1.5502380515001259e+03,	 6.3821329556941834e+01,	 6.0108634657035623e+02,	 8.5282109258160472e+03,	 4.9203661061079526e+02,	 3.1533247391837169e+00 
1.1969840000000000e+00,	 2.8448989999999996e-01,	 4.9638987320472470e-02,	 1.5492811784508083e+03,	 6.1331026639742902e+01,	 6.0269144823956844e+02,	 8.6069222452471058e+03,	 4.9269312381855349e+02,	 3.1469784672703525e+00 
1.1987150000000000e+00,	 2.8447299999999998e-01,	 5.0001274884630242e-02,	 1.5482195256828370e+03,	 5.8415408473187085e+01,	 6.0448641380584468e+02,	 8.6955600670549575e+03,	 4.9342625990894817e+02,	 3.1399244158566968e+00 
1.2004589999999999e+00,	 2.8445609999999999e-01,	 5.0393410492724236e-02,	 1.5470909436180798e+03,	 5.5158850097447193e+01,	 6.0640565719369852e+02,	 8.7915800112333400e+03,	 4.9420895292829766e+02,	 3.1324279312068777e+00 
1.2022180000000000e+00,	 2.8443900000000000e-01,	 5.0800593881704215e-02,	 1.5459294789064179e+03,	 5.1675624684786364e+01,	 6.0838550872195788e+02,	 8.8915523097541918e+03,	 4.9501506596282678e+02,	 3.1247390675922464e+00 
1.2039910000000000e+00,	 2.8442170000000000e-01,	 5.1209651737309257e-02,	 1.5447726810232377e+03,	 4.8086389944160103e+01,	 6.1035681233618925e+02,	 8.9921916827638943e+03,	 4.9581639651764567e+02,	 3.1171234719611887e+00 