TITLE = "Final State"
VARIABLES = "X", "Y", "rho", "u", "v", "T", "p", "c", "M"
ZONE I=82, J=25, DATAPACKING=POINT, STRANDID=50000, SOLUTIONTIME=0.001206
8.4940000000000004e-01,	 2.6635680000000000e-01,	 2.7519753264356274e-02,	 1.6041513445146097e+03,	 3.6833772240019999e+02,	 4.5213171960843522e+02,	 3.5796408013206651e+03,	 4.2673815453355184e+02,	 3.8569229303422063e+00 
8.5141040000000001e-01,	 2.6661879999999999e-01,	 2.7586171857735833e-02,	 1.6041319403284501e+03,	 3.6900744326605582e+02,	 4.5182710389113208e+02,	 3.5858626812437938e+03,	 4.2659437668564698e+02,	 3.8585301645785739e+00 
8.5342070000000003e-01,	 2.6688079999999997e-01,	 2.7591836797041788e-02,	 1.6044767632128073e+03,	 3.6887799540443018e+02,	 4.5104883698437743e+02,	 3.5804211786432265e+03,	 4.2622681642336880e+02,	 3.8625779660721977e+00 
8.5538060000000005e-01,	 2.6713609999999999e-01,	 2.7572594872742009e-02,	 1.6048956532761740e+03,	 3.6859658195751069e+02,	 4.5035719767662829e+02,	 3.5724378765335955e+03,	 4.2589990247002692e+02,	 3.8663534028074218e+00 
8.5734049999999995e-01,	 2.6739140000000000e-01,	 2.7552983936642017e-02,	 1.6051966223994905e+03,	 3.6846670545021107e+02,	 4.4982047162286176e+02,	 3.5656424627198139e+03,	 4.2564603762298862e+02,	 3.8692802547187375e+00 
8.5925130000000005e-01,	 2.6764019999999999e-01,	 2.7539778709674501e-02,	 1.6053581862496740e+03,	 3.6854942634675353e+02,	 4.4946584028869177e+02,	 3.5611238203471539e+03,	 4.2547821824325445e+02,	 3.8712199926564699e+00 
8.6116210000000004e-01,	 2.6788899999999999e-01,	 2.7533931594861401e-02,	 1.6054003168250415e+03,	 3.6880523463256566e+02,	 4.4927296819677656e+02,	 3.5588399357771555e+03,	 4.2538691911423058e+02,	 3.8722819833745992e+00 
8.6302509999999999e-01,	 2.6813139999999996e-01,	 2.7530640788403810e-02,	 1.6053538361758769e+03,	 3.6913865550776541e+02,	 4.4920399750809662e+02,	 3.5578683152037006e+03,	 4.2535426596465112e+02,	 3.8726483303053660e+00 
8.6488799999999999e-01,	 2.6837390000000000e-01,	 2.7529005181972641e-02,	 1.6052426927973775e+03,	 3.6951296396334715e+02,	 4.4922968532766924e+02,	 3.5578603861343636e+03,	 4.2536642777475987e+02,	 3.8724802665602871e+00 
8.6670449999999999e-01,	 2.6861019999999997e-01,	 2.7528060145239820e-02,	 1.6050871831194081e+03,	 3.6992138140277950e+02,	 4.4933113443808804e+02,	 3.5585416898114008e+03,	 4.2541445511030940e+02,	 3.8719023447368923e+00 
8.6852099999999999e-01,	 2.6884649999999999e-01,	 2.7527800982765534e-02,	 1.6049343545143647e+03,	 3.7035673432044990e+02,	 4.4948811254137468e+02,	 3.5597513866422387e+03,	 4.2548875991310615e+02,	 3.8711061078830395e+00 
8.7029219999999996e-01,	 2.6907680000000000e-01,	 2.7527770415711028e-02,	 1.6047141190646546e+03,	 3.7080621881211744e+02,	 4.4968621913417030e+02,	 3.5613163506352507e+03,	 4.2558251416433433e+02,	 3.8699867273026229e+00 
8.7206329999999999e-01,	 2.6930709999999997e-01,	 2.7527467254663762e-02,	 1.6044323695027656e+03,	 3.7124695981665946e+02,	 4.4990299457608387e+02,	 3.5629938770565368e+03,	 4.2568507981804532e+02,	 3.8686426790364821e+00 
8.7379050000000003e-01,	 2.6953159999999998e-01,	 2.7525626342560821e-02,	 1.6041821167565781e+03,	 3.7166185231139286e+02,	 4.5008414631040233e+02,	 3.5641901302224337e+03,	 4.2577077143446127e+02,	 3.8675112564499403e+00 
8.7551760000000001e-01,	 2.6975610000000000e-01,	 2.7523155286570594e-02,	 1.6039296255611589e+03,	 3.7206744372062349e+02,	 4.5031934882160311e+02,	 3.5657325502240401e+03,	 4.2588200538472859e+02,	 3.8661386498310883e+00 
8.7720189999999998e-01,	 2.6997489999999996e-01,	 2.7520390331691250e-02,	 1.6036686802562037e+03,	 3.7248582737881907e+02,	 4.5061966637104530e+02,	 3.5677520842793824e+03,	 4.2602399187007518e+02,	 3.8644755371425861e+00 
8.7888619999999995e-01,	 2.7019369999999998e-01,	 2.7518218969900771e-02,	 1.6034083808382215e+03,	 3.7291268384620673e+02,	 4.5088515836649333e+02,	 3.5695724381174314e+03,	 4.2614947386006673e+02,	 3.8629694273195998e+00 
8.8052880000000000e-01,	 2.7040700000000001e-01,	 2.7516452799340944e-02,	 1.6031497759101953e+03,	 3.7333647194165786e+02,	 4.5114207507544540e+02,	 3.5713771667106698e+03,	 4.2627086766344109e+02,	 3.8615037979958005e+00 
8.8217140000000005e-01,	 2.7062029999999998e-01,	 2.7514461685910974e-02,	 1.6028965344988164e+03,	 3.7375592732763675e+02,	 4.5139302812991195e+02,	 3.5731052154415884e+03,	 4.2638941025781912e+02,	 3.8600750741648997e+00 
8.8377340000000004e-01,	 2.7082819999999996e-01,	 2.7511327135066786e-02,	 1.6026505473080329e+03,	 3.7416724904233263e+02,	 4.5163575723242730e+02,	 3.5746193129556696e+03,	 4.2650403676144305e+02,	 3.8586951106672478e+00 
8.8537540000000003e-01,	 2.7103610000000000e-01,	 2.7510221588564109e-02,	 1.6024112747494887e+03,	 3.7457027144002245e+02,	 4.5186899619252267e+02,	 3.5763216384379448e+03,	 4.2661415261965544e+02,	 3.8573678674683261e+00 
8.8693800000000000e-01,	 2.7123890000000000e-01,	 2.7510452778850364e-02,	 1.6021804163234219e+03,	 3.7496745462699528e+02,	 4.5208989176387337e+02,	 3.5780999879907749e+03,	 4.2671841476605954e+02,	 3.8561105718663375e+00 
8.8850059999999997e-01,	 2.7144160000000001e-01,	 2.7509144257746816e-02,	 1.6019576679521572e+03,	 3.7536234957165578e+02,	 4.5230128531023922e+02,	 3.5796028082249222e+03,	 4.2681816813177676e+02,	 3.8549121639189465e+00 
8.9002470000000000e-01,	 2.7163919999999997e-01,	 2.7508589253459628e-02,	 1.6017430321875627e+03,	 3.7574902551812784e+02,	 4.5250077753282869e+02,	 3.5811093782724306e+03,	 4.2691228406854663e+02,	 3.8537795782489765e+00 
8.9154889999999998e-01,	 2.7183689999999999e-01,	 2.7508392821094692e-02,	 1.6015382021134751e+03,	 3.7612969969522544e+02,	 4.5268870207429433e+02,	 3.5825710381826962e+03,	 4.2700092365912849e+02,	 3.8527163024528868e+00 
8.9303569999999999e-01,	 2.7202959999999998e-01,	 2.7507507422007561e-02,	 1.6013404125234720e+03,	 3.7650497596470933e+02,	 4.5286562842716279e+02,	 3.5838558749503763e+03,	 4.2708435884927951e+02,	 3.8517138064011811e+00 
8.9452259999999995e-01,	 2.7222229999999997e-01,	 2.7508090664879598e-02,	 1.6011496344695802e+03,	 3.7687295363920589e+02,	 4.5303309337562712e+02,	 3.5852571639274829e+03,	 4.2716331720346699e+02,	 3.8507643616060601e+00 
8.9597309999999997e-01,	 2.7241029999999999e-01,	 2.7508525968628898e-02,	 1.6009685899095548e+03,	 3.7723121924243117e+02,	 4.5318972990361101e+02,	 3.5865535240253657e+03,	 4.2723715683833569e+02,	 3.8498785836272562e+00 
8.9742359999999999e-01,	 2.7259820000000001e-01,	 2.7508998888136165e-02,	 1.6007933016977827e+03,	 3.7758522627275408e+02,	 4.5333788049817963e+02,	 3.5877876703633560e+03,	 4.2730698439902005e+02,	 3.8490402908963892e+00 
8.9883880000000005e-01,	 2.7278150000000001e-01,	 2.7509797239709317e-02,	 1.6006263618434014e+03,	 3.7793190280654449e+02,	 4.5347593727982832e+02,	 3.5889844281430887e+03,	 4.2737204419100834e+02,	 3.8482604831166727e+00 
9.0025409999999995e-01,	 2.7296470000000000e-01,	 2.7510494879164175e-02,	 1.6004649542808656e+03,	 3.7827482730214388e+02,	 4.5360582509342669e+02,	 3.5901034522109589e+03,	 4.2743324528405032e+02,	 3.8475264240229166e+00 
9.0163490000000002e-01,	 2.7314349999999998e-01,	 2.7512005007438230e-02,	 1.6003120327578154e+03,	 3.7860931382004208e+02,	 4.5372604606304174e+02,	 3.5912520748008101e+03,	 4.2748988370447381e+02,	 3.8468486013675269e+00 
9.0301580000000004e-01,	 2.7332220000000002e-01,	 2.7512851272988408e-02,	 1.6001633430363274e+03,	 3.7894111098483103e+02,	 4.5383929866514279e+02,	 3.5922589657481644e+03,	 4.2754323232901800e+02,	 3.8462089203196661e+00 
9.0436329999999998e-01,	 2.7349649999999998e-01,	 2.7514104026127542e-02,	 1.6000214872670942e+03,	 3.7926493795776344e+02,	 4.5394443294094640e+02,	 3.5932547371395949e+03,	 4.2759275078780382e+02,	 3.8456152792286424e+00 
9.0571080000000004e-01,	 2.7367089999999999e-01,	 2.7515932459499352e-02,	 1.5998859513515367e+03,	 3.7958386378214925e+02,	 4.5404228511584347e+02,	 3.5942681375148468e+03,	 4.2763883421017749e+02,	 3.8450645665814678e+00 
9.0702579999999999e-01,	 2.7384090000000000e-01,	 2.7516780398478078e-02,	 1.5997542454440547e+03,	 3.7989686063648696e+02,	 4.5413400008513736e+02,	 3.5951049516180592e+03,	 4.2768202281112229e+02,	 3.8445456705658492e+00 
9.0834079999999995e-01,	 2.7401100000000000e-01,	 2.7518822821443786e-02,	 1.5996292204606634e+03,	 3.8020393062674896e+02,	 4.5421904965032587e+02,	 3.5960451330501687e+03,	 4.2772206877465510e+02,	 3.8440672745421645e+00 
9.0962430000000005e-01,	 2.7417690000000000e-01,	 2.7519965909761565e-02,	 1.5995079333055462e+03,	 3.8050478303126459e+02,	 4.5429868830265696e+02,	 3.5968250312283699e+03,	 4.2775956358712830e+02,	 3.8436171808366550e+00 
9.1090780000000005e-01,	 2.7434280000000000e-01,	 2.7521512353130176e-02,	 1.5993918674139049e+03,	 3.8080031856242636e+02,	 4.5437309810208751e+02,	 3.5976163082343555e+03,	 4.2779459362454077e+02,	 3.8431984495329763e+00 
9.1216059999999999e-01,	 2.7450469999999999e-01,	 2.7522692135889218e-02,	 1.5992807232279279e+03,	 3.8108800748237138e+02,	 4.5444247071600353e+02,	 3.5983198287437754e+03,	 4.2782724971336614e+02,	 3.8428081895958814e+00 
9.1341340000000004e-01,	 2.7466649999999998e-01,	 2.7523583160766567e-02,	 1.5991724035826742e+03,	 3.8137214543360773e+02,	 4.5450796470556031e+02,	 3.5989549260245049e+03,	 4.2785807771222454e+02,	 3.8424390355698912e+00 
9.1463640000000002e-01,	 2.7482439999999997e-01,	 2.7524216916224788e-02,	 1.5990692569261987e+03,	 3.8164858080155830e+02,	 4.5456908815281815e+02,	 3.5995218034578320e+03,	 4.2788684649460419e+02,	 3.8420961342971105e+00 
9.1585939999999999e-01,	 2.7498240000000002e-01,	 2.7525532025179995e-02,	 1.5989705830514959e+03,	 3.8191827442679312e+02,	 4.5462599267367568e+02,	 3.6001444108952987e+03,	 4.2791362782955406e+02,	 3.8417777504365742e+00 
9.1705340000000002e-01,	 2.7513650000000001e-01,	 2.7526126031981513e-02,	 1.5988735251228111e+03,	 3.8218409864353248e+02,	 4.5467964109469216e+02,	 3.6006469492054839e+03,	 4.2793887519069693e+02,	 3.8414748625550819e+00 
9.1824740000000005e-01,	 2.7529060000000000e-01,	 2.7527118637777438e-02,	 1.5987807922915445e+03,	 3.8244533441331134e+02,	 4.5472976367235231e+02,	 3.6011737296162687e+03,	 4.2796246191689875e+02,	 3.8411943623183729e+00 
9.1941329999999999e-01,	 2.7544099999999999e-01,	 2.7527843371538220e-02,	 1.5986904595358976e+03,	 3.8270163173099559e+02,	 4.5477676610803144e+02,	 3.6016407808184413e+03,	 4.2798457918294002e+02,	 3.8409299559679932e+00 
9.2057920000000004e-01,	 2.7559139999999999e-01,	 2.7528607765237568e-02,	 1.5986034221481182e+03,	 3.8295388326191102e+02,	 4.5482100328502457e+02,	 3.6020911408218080e+03,	 4.2800539419659401e+02,	 3.8406826517851913e+00 
9.2171780000000003e-01,	 2.7573829999999999e-01,	 2.7529579989808022e-02,	 1.5985195780786619e+03,	 3.8319969068885712e+02,	 4.5486227932689212e+02,	 3.6025452649662820e+03,	 4.2802481498811989e+02,	 3.8404517268360148e+00 
9.2285629999999996e-01,	 2.7588509999999999e-01,	 2.7530423799556208e-02,	 1.5984364870258962e+03,	 3.8344404367420111e+02,	 4.5490166219002219e+02,	 3.6029676116132223e+03,	 4.2804334419862198e+02,	 3.8402298348025403e+00 
9.2396829999999996e-01,	 2.7602840000000001e-01,	 2.7531177022566931e-02,	 1.5983557927245292e+03,	 3.8368424607320242e+02,	 4.5493899771039673e+02,	 3.6033619050102593e+03,	 4.2806090941593180e+02,	 3.8400198846654612e+00 
9.2508029999999997e-01,	 2.7617169999999996e-01,	 2.7532006194550051e-02,	 1.5982776622659769e+03,	 3.8392089239056872e+02,	 4.5497458285444952e+02,	 3.6037522914894894e+03,	 4.2807765046400766e+02,	 3.8398213182891738e+00 
9.2616650000000000e-01,	 2.7631169999999999e-01,	 2.7533144937130105e-02,	 1.5982018173946185e+03,	 3.8415182534954965e+02,	 4.5500823535187737e+02,	 3.6041679101039531e+03,	 4.2809348169524418e+02,	 3.8396330873759155e+00 
9.2725270000000004e-01,	 2.7645159999999996e-01,	 2.7534203675589383e-02,	 1.5981254470926333e+03,	 3.8438252963844309e+02,	 4.5504097452405779e+02,	 3.6045658424007202e+03,	 4.2810888270671381e+02,	 3.8394474939572212e+00 
9.2831390000000003e-01,	 2.7658820000000001e-01,	 2.7535308156739734e-02,	 1.5980512267197632e+03,	 3.8460928177409312e+02,	 4.5507252834496541e+02,	 3.6049603933239305e+03,	 4.2812372558636582e+02,	 3.8392697246160958e+00 
9.2937510000000001e-01,	 2.7672490000000000e-01,	 2.7537448352041999e-02,	 1.5979790188145096e+03,	 3.8483246267330770e+02,	 4.5510256128488243e+02,	 3.6054785218815500e+03,	 4.2813785256744336e+02,	 3.8391010842939486e+00 
9.3041189999999996e-01,	 2.7685830000000000e-01,	 2.7538440784055044e-02,	 1.5979063120583041e+03,	 3.8505312753209535e+02,	 4.5513259718430822e+02,	 3.6058464242885229e+03,	 4.2815198047443107e+02,	 3.8389300151444354e+00 
9.3144879999999997e-01,	 2.7699180000000001e-01,	 2.7540688474214470e-02,	 1.5978359821399440e+03,	 3.8526938489403602e+02,	 4.5516192576065998e+02,	 3.6063731121931842e+03,	 4.2816577522989377e+02,	 3.8387650039990366e+00 
9.3246200000000001e-01,	 2.7712209999999998e-01,	 2.7542436881610167e-02,	 1.5977643812450624e+03,	 3.8548215418335792e+02,	 4.5519176547435620e+02,	 3.6068385043275166e+03,	 4.2817980994373050e+02,	 3.8385931291951958e+00 
9.3347530000000001e-01,	 2.7725250000000001e-01,	 2.7546347528438639e-02,	 1.5976940545470429e+03,	 3.8569017503409179e+02,	 4.5522108802803643e+02,	 3.6075830041316694e+03,	 4.2819360097008837e+02,	 3.8384238115309226e+00 
9.3446560000000001e-01,	 2.7737980000000001e-01,	 2.7550633187985396e-02,	 1.5976213737565872e+03,	 3.8589431887016826e+02,	 4.5525122117968414e+02,	 3.6083831111973273e+03,	 4.2820777277532204e+02,	 3.8382436899335604e+00 
9.3545599999999995e-01,	 2.7750720000000001e-01,	 2.7555814828434722e-02,	 1.5975504662915855e+03,	 3.8609180800827068e+02,	 4.5528322546709182e+02,	 3.6093154831145980e+03,	 4.2822282407353248e+02,	 3.8380561381259537e+00 
9.3642409999999998e-01,	 2.7763159999999998e-01,	 2.7559691213040315e-02,	 1.5974771713736109e+03,	 3.8627637441548848e+02,	 4.5532063789065216e+02,	 3.6101198531401928e+03,	 4.2824041809376604e+02,	 3.8378333622662013e+00 
9.3739229999999996e-01,	 2.7775600000000000e-01,	 2.7564994663022466e-02,	 1.5974010821117356e+03,	 3.8644121995314276e+02,	 4.5536674807523644e+02,	 3.6111802327687524e+03,	 4.2826210143423299e+02,	 3.8375568458514224e+00 
9.3833889999999998e-01,	 2.7787760000000000e-01,	 2.7572208605113061e-02,	 1.5973195045961961e+03,	 3.8657103918282183e+02,	 4.5542685677961560e+02,	 3.6126021054772473e+03,	 4.2829036593830290e+02,	 3.8371897459893054e+00 
9.3928550000000000e-01,	 2.7799920000000000e-01,	 2.7582811584484106e-02,	 1.5972469609027933e+03,	 3.8664840305634607e+02,	 4.5551061741712653e+02,	 3.6146560165800952e+03,	 4.2832974901843602e+02,	 3.8367148120719006e+00 
9.4021120000000002e-01,	 2.7811799999999998e-01,	 2.7598673217777252e-02,	 1.5971442626674016e+03,	 3.8663845339472181e+02,	 4.5563401459685815e+02,	 3.6177144108216035e+03,	 4.2838776205032082e+02,	 3.8359567706767104e+00 
9.4113680000000000e-01,	 2.7823690000000001e-01,	 2.7625886909772204e-02,	 1.5969880202793029e+03,	 3.8647556033042702e+02,	 4.5582526870280873e+02,	 3.6228017074867116e+03,	 4.2847766131146807e+02,	 3.8347080997797076e+00 
9.4204230000000000e-01,	 2.7835309999999996e-01,	 2.7667932384689523e-02,	 1.5967925914474488e+03,	 3.8606304959395231e+02,	 4.5612384636280677e+02,	 3.6306921071758829e+03,	 4.2861797046400761e+02,	 3.8327833552930817e+00 
9.4294770000000006e-01,	 2.7846929999999998e-01,	 2.7739602796837431e-02,	 1.5965145313122780e+03,	 3.8522438138464042e+02,	 4.5662542711282561e+02,	 3.6440998391433964e+03,	 4.2885357254260094e+02,	 3.8295883180551757e+00 
9.4383349999999999e-01,	 2.7858289999999997e-01,	 2.7857243919526892e-02,	 1.5960937812695443e+03,	 3.8369364461111309e+02,	 4.5745929995980396e+02,	 3.6662370792939510e+03,	 4.2924497237913596e+02,	 3.8243084129479854e+00 
9.4471930000000004e-01,	 2.7869650000000001e-01,	 2.8054261213056042e-02,	 1.5954551502379090e+03,	 3.8095965043444005e+02,	 4.5887422131012971e+02,	 3.7035860055079406e+03,	 4.2990828709283784e+02,	 3.8154814691947667e+00 
9.4558609999999998e-01,	 2.7880759999999999e-01,	 2.8373862476576792e-02,	 1.5944734634718966e+03,	 3.7635255636895272e+02,	 4.6120964702705010e+02,	 3.7648422158917983e+03,	 4.3100090091059582e+02,	 3.8011238105207559e+00 
9.4645279999999998e-01,	 2.7891879999999997e-01,	 2.8886620925952462e-02,	 1.5930131367749000e+03,	 3.6877302692424075e+02,	 4.6503993092842796e+02,	 3.8647101273039243e+03,	 4.3278690262186313e+02,	 3.7781653583988830e+00 
9.4730119999999995e-01,	 2.7902749999999998e-01,	 2.9662208375492119e-02,	 1.5909154871634476e+03,	 3.5715160343323987e+02,	 4.7095387633963685e+02,	 4.0189425195683220e+03,	 4.3553009951196111e+02,	 3.7437412329104993e+00 
9.4814949999999998e-01,	 2.7913620000000000e-01,	 3.0790866065284177e-02,	 1.5880499075982552e+03,	 3.4030362014659670e+02,	 4.7961688893271997e+02,	 4.2486045489684202e+03,	 4.3951754920304825e+02,	 3.6951938408518910e+00 
9.4898000000000005e-01,	 2.7924250000000000e-01,	 3.2309026171954844e-02,	 1.5843032607905832e+03,	 3.1811505665524976e+02,	 4.9115640727734859e+02,	 4.5653451793483327e+03,	 4.4477348959309580e+02,	 3.6331417302778188e+00 
9.4981050000000000e-01,	 2.7934890000000001e-01,	 3.4238875205464162e-02,	 1.5797297464629078e+03,	 2.9096223532319095e+02,	 5.0536908709004541e+02,	 4.9780367631574363e+03,	 4.5116284133792414e+02,	 3.5603589990660933e+00 
9.5062369999999996e-01,	 2.7945300000000001e-01,	 3.6494127779647584e-02,	 1.5744701363846098e+03,	 2.6073475890152133e+02,	 5.2128070651325879e+02,	 5.4729890225960125e+03,	 4.5821026289512884e+02,	 3.4829275827195452e+00 
9.5143690000000003e-01,	 2.7955710000000000e-01,	 3.8979881796982516e-02,	 1.5687307592464208e+03,	 2.2907021297598521e+02,	 5.3802351415971145e+02,	 6.0335332732436964e+03,	 4.6551064325416945e+02,	 3.4056520202551837e+00 
9.5223340000000001e-01,	 2.7965899999999999e-01,	 4.1519049291746712e-02,	 1.5627773115120540e+03,	 1.9825144982631207e+02,	 5.5440984703213962e+02,	 6.6222911887383989e+03,	 4.7254639488093090e+02,	 3.3336452706211084e+00 
9.5302989999999999e-01,	 2.7976089999999998e-01,	 4.4014980079634461e-02,	 1.5568169881907156e+03,	 1.6982709843086627e+02,	 5.6983890313363077e+02,	 7.2157676856442404e+03,	 4.7907668334009099e+02,	 3.2688973122738618e+00 
9.5381020000000005e-01,	 2.7986069999999996e-01,	 4.6002599446029642e-02,	 1.5525959240018988e+03,	 1.5038641648291650e+02,	 5.8097841877516043e+02,	 7.6890433699676933e+03,	 4.8373664333027244e+02,	 3.2246104399961104e+00 
8.4940000000000004e-01,	 2.6784360000000002e-01,	 2.7304765149322389e-02,	 1.6044537227677192e+03,	 3.6482285564612249e+02,	 4.5218895426468231e+02,	 3.5521257539650965e+03,	 4.2676516374084275e+02,	 3.8555349244165864e+00 
8.5140930000000004e-01,	 2.6809469999999996e-01,	 2.7387931144452600e-02,	 1.6042624877001531e+03,	 3.6608050386930148e+02,	 4.5225400875622915e+02,	 3.5634575527375719e+03,	 4.2679586107655973e+02,	 3.8554751940138789e+00 
8.5341869999999997e-01,	 2.6834569999999996e-01,	 2.7456068447459483e-02,	 1.6042306573197559e+03,	 3.6716230410414187e+02,	 4.5205600739678800e+02,	 3.5707589326882744e+03,	 4.2670242308541094e+02,	 3.8568115578718221e+00 
8.5537759999999996e-01,	 2.6859040000000001e-01,	 2.7477141500674582e-02,	 1.6044041157108252e+03,	 3.6753525472371382e+02,	 4.5161858633632141e+02,	 3.5700417474802371e+03,	 4.2649592898211392e+02,	 3.8592705110217449e+00 
8.5733649999999995e-01,	 2.6883509999999999e-01,	 2.7477455450743683e-02,	 1.6046540631183771e+03,	 3.6762803200116616e+02,	 4.5112556825747873e+02,	 3.5661851893155235e+03,	 4.2626306918889128e+02,	 3.8619989258091438e+00 
8.5924639999999997e-01,	 2.6907349999999997e-01,	 2.7472151723483107e-02,	 1.6048742928984188e+03,	 3.6769052471427420e+02,	 4.5068135748024287e+02,	 3.5619859951187200e+03,	 4.2605315281788739e+02,	 3.8644383411028600e+00 
8.6115629999999999e-01,	 2.6931189999999999e-01,	 2.7469153496393200e-02,	 1.6050266503863668e+03,	 3.6783505325427836e+02,	 4.5032800872075330e+02,	 3.5588048433718559e+03,	 4.2588610034255720e+02,	 3.8663786569777838e+00 
8.6301839999999996e-01,	 2.6954430000000001e-01,	 2.7469007243370674e-02,	 1.6051061617551950e+03,	 3.6806981527783000e+02,	 4.5007292165643531e+02,	 3.5567700308546832e+03,	 4.2576546225015113e+02,	 3.8677794062614441e+00 
8.6488050000000005e-01,	 2.6977659999999998e-01,	 2.7471382290126425e-02,	 1.6051224024068390e+03,	 3.6837319791788980e+02,	 4.4990470437937461e+02,	 3.5557480814080964e+03,	 4.2568588870025724e+02,	 3.8686989524923332e+00 
8.6669620000000003e-01,	 2.7000310000000000e-01,	 2.7475448897369387e-02,	 1.6050766797430267e+03,	 3.6872831227190613e+02,	 4.4981494877759098e+02,	 3.5555649675000182e+03,	 4.2564342459782648e+02,	 3.8691669227075232e+00 
8.6851179999999994e-01,	 2.7022950000000001e-01,	 2.7480689011192556e-02,	 1.6049642609337077e+03,	 3.6912427682629794e+02,	 4.4979161868139528e+02,	 3.5560586363032198e+03,	 4.2563238624657504e+02,	 3.8692182577730030e+00 
8.7028220000000001e-01,	 2.7045019999999997e-01,	 2.7486296181843915e-02,	 1.6048474815352172e+03,	 3.6954910407650596e+02,	 4.4982316472835197e+02,	 3.5570336702767672e+03,	 4.2564731180684350e+02,	 3.8690390486075765e+00 
8.7205270000000001e-01,	 2.7067099999999999e-01,	 2.7492061517426752e-02,	 1.6047208265528084e+03,	 3.6999130965543822e+02,	 4.4990146881085604e+02,	 3.5583990984166908e+03,	 4.2568435800017426e+02,	 3.8686456491585086e+00 
8.7377910000000003e-01,	 2.7088609999999996e-01,	 2.7496885561199846e-02,	 1.6045464690661518e+03,	 3.7042707390537305e+02,	 4.5003376414573017e+02,	 3.5600700373860154e+03,	 4.2574694049791447e+02,	 3.8679080252715003e+00 
8.7550559999999999e-01,	 2.7110119999999999e-01,	 2.7500513627379351e-02,	 1.6043620817709407e+03,	 3.7085576580179577e+02,	 4.5016449484930138e+02,	 3.5615740738085456e+03,	 4.2580877380915234e+02,	 3.8671510388155643e+00 
8.7718920000000000e-01,	 2.7131089999999997e-01,	 2.7503295259796501e-02,	 1.6041648764362403e+03,	 3.7128208653979652e+02,	 4.5028950127996234e+02,	 3.5629234367945560e+03,	 4.2586789124377208e+02,	 3.8663886509914396e+00 
8.7887280000000001e-01,	 2.7152060000000000e-01,	 2.7505714457200570e-02,	 1.6039544251960281e+03,	 3.7171259785360780e+02,	 4.5045479478519746e+02,	 3.5645448352686467e+03,	 4.2594604844870821e+02,	 3.8654259092781733e+00 
8.8051480000000004e-01,	 2.7172499999999999e-01,	 2.7507871674239012e-02,	 1.6037365554205003e+03,	 3.7214211367252921e+02,	 4.5063696592652099e+02,	 3.5662660673855153e+03,	 4.2603216944808361e+02,	 3.8643741028292315e+00 
8.8215679999999996e-01,	 2.7192939999999999e-01,	 2.7509947490277763e-02,	 1.6035144868145210e+03,	 3.7257025989523527e+02,	 4.5082902605208784e+02,	 3.5680552337806334e+03,	 4.2612294659436708e+02,	 3.8632704943236380e+00 
8.8375820000000005e-01,	 2.7212870000000000e-01,	 2.7511826252153725e-02,	 1.6032917521989195e+03,	 3.7299068417386184e+02,	 4.5102559881641895e+02,	 3.5698547780584313e+03,	 4.2621583661684542e+02,	 3.8621428940159541e+00 
8.8535969999999997e-01,	 2.7232800000000001e-01,	 2.7512752416375380e-02,	 1.6030690695070416e+03,	 3.7340621481270057e+02,	 4.5122508373770529e+02,	 3.5715539250690472e+03,	 4.2631008208052452e+02,	 3.8610013250634059e+00 
8.8692170000000004e-01,	 2.7252219999999999e-01,	 2.7513094311397240e-02,	 1.6028495090735637e+03,	 3.7381394674140392e+02,	 4.5142332890052722e+02,	 3.5731674851407483e+03,	 4.2640372119096980e+02,	 3.8598690216928913e+00 
8.8848369999999999e-01,	 2.7271649999999997e-01,	 2.7513167106509959e-02,	 1.6026329463802740e+03,	 3.7421648733664267e+02,	 4.5162021104505834e+02,	 3.5747353316717672e+03,	 4.2649669614611008e+02,	 3.8587475859378424e+00 
8.9000740000000000e-01,	 2.7290589999999998e-01,	 2.7512586525278611e-02,	 1.6024201619196192e+03,	 3.7461074009155550e+02,	 4.5181331152316272e+02,	 3.5761883248418089e+03,	 4.2658786557612257e+02,	 3.8576474452973759e+00 
8.9153110000000002e-01,	 2.7309539999999999e-01,	 2.7511897226331135e-02,	 1.6022124916997666e+03,	 3.7499858159880341e+02,	 4.5200210829892546e+02,	 3.5775930521627374e+03,	 4.2667698424501344e+02,	 3.8565748234137991e+00 
8.9301750000000002e-01,	 2.7327999999999997e-01,	 2.7511908494653296e-02,	 1.6020102316602756e+03,	 3.7537616556743814e+02,	 4.5218487813178444e+02,	 3.5790411398229498e+03,	 4.2676324025794099e+02,	 3.8555356281613973e+00 
8.9450390000000002e-01,	 2.7346470000000000e-01,	 2.7513097808536634e-02,	 1.6018108893996759e+03,	 3.7575005172190441e+02,	 4.5236229042028572e+02,	 3.5806001365142242e+03,	 4.2684695117113097e+02,	 3.8545247558541469e+00 
8.9595400000000003e-01,	 2.7364479999999997e-01,	 2.7514168427149974e-02,	 1.6016190406339326e+03,	 3.7611643689900461e+02,	 4.5253199814030393e+02,	 3.5820828147223115e+03,	 4.2692701137026114e+02,	 3.8535605412428597e+00 
8.9740410000000004e-01,	 2.7382489999999998e-01,	 2.7514889592159513e-02,	 1.6014322591343584e+03,	 3.7647835431966428e+02,	 4.5269541403869204e+02,	 3.5834702797452687e+03,	 4.2700408919469504e+02,	 3.8526329823205243e+00 
8.9881889999999998e-01,	 2.7400059999999998e-01,	 2.7515445435819415e-02,	 1.6012526948021925e+03,	 3.7683237673326892e+02,	 4.5285098583207639e+02,	 3.5847741797314943e+03,	 4.2707745429140130e+02,	 3.8517516792772168e+00 
9.0023379999999997e-01,	 2.7417619999999998e-01,	 2.7515664894153986e-02,	 1.6010775863528797e+03,	 3.7718208063479733e+02,	 4.5300031414556435e+02,	 3.5859848655196888e+03,	 4.2714786321330240e+02,	 3.8509053770264972e+00 
9.0161429999999998e-01,	 2.7434749999999997e-01,	 2.7516211651748501e-02,	 1.6009093350022104e+03,	 3.7752401078456876e+02,	 4.5314155643482405e+02,	 3.5871742287172410e+03,	 4.2721444886256199e+02,	 3.8501054608295600e+00 
9.0299479999999999e-01,	 2.7451880000000001e-01,	 2.7516801109274076e-02,	 1.6007468638299060e+03,	 3.7786118140537599e+02,	 4.5327613005324974e+02,	 3.5883164128126855e+03,	 4.2727788105673807e+02,	 3.8493450063506551e+00 
9.0434199999999998e-01,	 2.7468589999999998e-01,	 2.7517111952393588e-02,	 1.6005894395639918e+03,	 3.7819173881610851e+02,	 4.5340346698632533e+02,	 3.5893650100112322e+03,	 4.2733789352011797e+02,	 3.8486237006110589e+00 
9.0568919999999997e-01,	 2.7485290000000001e-01,	 2.7518040790013264e-02,	 1.6004381486536054e+03,	 3.7851724416643452e+02,	 4.5352399981548228e+02,	 3.5904403981125365e+03,	 4.2739469152264513e+02,	 3.8479429646171215e+00 
9.0700389999999997e-01,	 2.7501589999999998e-01,	 2.7518516533252019e-02,	 1.6002921057294143e+03,	 3.7883526640081715e+02,	 4.5363803116604061e+02,	 3.5914052455030537e+03,	 4.2744841892274320e+02,	 3.8472981368145538e+00 
9.0831870000000003e-01,	 2.7517890000000000e-01,	 2.7519450033167421e-02,	 1.6001510592201894e+03,	 3.7914822654131240e+02,	 4.5374617822351763e+02,	 3.5923832934261964e+03,	 4.2749936762053994e+02,	 3.8466872839075430e+00 
9.0960189999999996e-01,	 2.7533789999999997e-01,	 2.7520246757383692e-02,	 1.6000157114754397e+03,	 3.7945351394888729e+02,	 4.5384810452829311e+02,	 3.5932942883602705e+03,	 4.2754738012862833e+02,	 3.8461119792251690e+00 
9.1088510000000000e-01,	 2.7549679999999999e-01,	 2.7521221328087254e-02,	 1.5998843916035084e+03,	 3.7975432789989407e+02,	 4.5394463572981624e+02,	 3.5941858398224458e+03,	 4.2759284629623471e+02,	 3.8455666064555865e+00 
9.1213770000000005e-01,	 2.7565200000000001e-01,	 2.7522430515755883e-02,	 1.5997589147561653e+03,	 3.8004740725105921e+02,	 4.5403495404473239e+02,	 3.5950588984011715e+03,	 4.2763538181878010e+02,	 3.8450569615565948e+00 
9.1339029999999999e-01,	 2.7580709999999997e-01,	 2.7523571523196528e-02,	 1.5996379147762991e+03,	 3.8033599238887393e+02,	 4.5412030713907859e+02,	 3.5958837957930277e+03,	 4.2767557507651958e+02,	 3.8445763671413862e+00 
9.1461309999999996e-01,	 2.7595839999999999e-01,	 2.7524667774302670e-02,	 1.5995205968482067e+03,	 3.8061822519604056e+02,	 4.5420027578007011e+02,	 3.5966602631345081e+03,	 4.2771322933737594e+02,	 3.8441237546733444e+00 
9.1583590000000004e-01,	 2.7610980000000002e-01,	 2.7526065218005519e-02,	 1.5994083142627480e+03,	 3.8089556848061812e+02,	 4.5427521851528428e+02,	 3.5974363443245702e+03,	 4.2774851407726942e+02,	 3.8437014467129091e+00 
9.1702980000000001e-01,	 2.7625749999999999e-01,	 2.7526877250470701e-02,	 1.5993005787466016e+03,	 3.8116656041414183e+02,	 4.5434538033107901e+02,	 3.5980981030474136e+03,	 4.2778154521402359e+02,	 3.8433064772825887e+00 
9.1822360000000003e-01,	 2.7640519999999996e-01,	 2.7527866722037282e-02,	 1.5991960587701883e+03,	 3.8143368089671912e+02,	 4.5441152659410079e+02,	 3.5987512900687107e+03,	 4.2781268355285749e+02,	 3.8429339012746659e+00 
9.1938940000000002e-01,	 2.7654930000000000e-01,	 2.7528685808338855e-02,	 1.5990956247989793e+03,	 3.8169463883040385e+02,	 4.5447352355235097e+02,	 3.5993493750800471e+03,	 4.2784186654991106e+02,	 3.8425850007920412e+00 
9.2055509999999996e-01,	 2.7669349999999998e-01,	 2.7529553707134675e-02,	 1.5989975783299487e+03,	 3.8195224156647629e+02,	 4.5453214882729100e+02,	 3.5999271683943794e+03,	 4.2786946060867245e+02,	 3.8422541310484828e+00 
9.2169350000000005e-01,	 2.7683419999999997e-01,	 2.7530536232677257e-02,	 1.5989035454888071e+03,	 3.8220362430148725e+02,	 4.5458701451332735e+02,	 3.6004902049130687e+03,	 4.2789528347200314e+02,	 3.8419450564544384e+00 
9.2283199999999999e-01,	 2.7697489999999997e-01,	 2.7531398503277210e-02,	 1.5988124807902102e+03,	 3.8245153566117619e+02,	 4.5463907340259783e+02,	 3.6010153118846038e+03,	 4.2791978385890076e+02,	 3.8416528511079928e+00 
9.2394390000000004e-01,	 2.7711219999999998e-01,	 2.7532215839283204e-02,	 1.5987240346764181e+03,	 3.8269428790912718e+02,	 4.5468835806973482e+02,	 3.6015125925535613e+03,	 4.2794297732578133e+02,	 3.8413756527108291e+00 
9.2505579999999998e-01,	 2.7724959999999998e-01,	 2.7533143550654005e-02,	 1.5986370017532656e+03,	 3.8293447888938942e+02,	 4.5473542702844554e+02,	 3.6020067854030290e+03,	 4.2796512690219731e+02,	 3.8411097643194880e+00 