TITLE = "Final State"
VARIABLES = "X", "Y", "rho", "u", "v", "T", "p", "c", "M"
ZONE I=80, J=25, DATAPACKING=POINT, STRANDID=52000, SOLUTIONTIME=0.001255
9.5381020000000005e-01,	 2.7986069999999996e-01,	 4.6814770936105039e-02,	 1.5492624308664635e+03,	 1.4192459587449508e+02,	 5.8681879024686532e+02,	 7.9034525804259665e+03,	 4.8616198037911636e+02,	 3.2000642079187855e+00 
9.5459059999999996e-01,	 2.7996050000000000e-01,	 4.8560894726277490e-02,	 1.5457212435575952e+03,	 1.2558634108150368e+02,	 5.9595154269307943e+02,	 8.3258305118640601e+03,	 4.8993048194329208e+02,	 3.1653769492021850e+00 
9.5535530000000002e-01,	 2.8005829999999998e-01,	 5.0359954051577921e-02,	 1.5415681039540823e+03,	 1.0786976293738770e+02,	 6.0543727532767684e+02,	 8.7717130996462365e+03,	 4.9381418896141719e+02,	 3.1293907142997042e+00 
9.5611999999999997e-01,	 2.8015600000000002e-01,	 5.1868185625247240e-02,	 1.5381565472388816e+03,	 9.3133237429398676e+01,	 6.1307329261610346e+02,	 9.1483630519003291e+03,	 4.9691852247625968e+02,	 3.1010587088004478e+00 
9.5686959999999999e-01,	 2.8025180000000000e-01,	 5.3105455518455448e-02,	 1.5353922516122593e+03,	 8.1212299541491802e+01,	 6.1913532071005307e+02,	 9.4592054098240278e+03,	 4.9936922798650750e+02,	 3.0789613525696020e+00 
9.5761920000000000e-01,	 2.8034759999999997e-01,	 5.4116695858222971e-02,	 1.5331622741728272e+03,	 7.1581971530216961e+01,	 6.2396309006705656e+02,	 9.7144923396806626e+03,	 5.0131238800365804e+02,	 3.0616287373889550e+00 
9.5835420000000004e-01,	 2.8044150000000001e-01,	 5.4928972592864347e-02,	 1.5313794874021228e+03,	 6.3918367747341307e+01,	 6.2776250312628417e+02,	 9.9203452014016166e+03,	 5.0283635806050228e+02,	 3.0481345058287430e+00 
9.5908919999999998e-01,	 2.8053529999999999e-01,	 5.5584125852478794e-02,	 1.5299519467857035e+03,	 5.7784114711590824e+01,	 6.3077532050672653e+02,	 1.0086846468401412e+04,	 5.0404154376560507e+02,	 3.0375328956064180e+00 
9.5981019999999995e-01,	 2.8062739999999997e-01,	 5.6109428171492129e-02,	 1.5288166729072093e+03,	 5.2925085766360553e+01,	 6.3314304257724484e+02,	 1.0220393546575573e+04,	 5.0498666036273005e+02,	 3.0292532611577876e+00 
9.6053109999999997e-01,	 2.8071940000000001e-01,	 5.6531020474154009e-02,	 1.5279030799429756e+03,	 4.9033222050095915e+01,	 6.3502845449694200e+02,	 1.0327850635213088e+04,	 5.0573799145773154e+02,	 3.0226909713447250e+00 
9.6123840000000005e-01,	 2.8080959999999999e-01,	 5.6870236042468783e-02,	 1.5271696974680858e+03,	 4.5936145330900871e+01,	 6.3652383622454204e+02,	 1.0414289347607566e+04,	 5.0633310388737397e+02,	 3.0175005195903966e+00 
9.6194579999999996e-01,	 2.8089989999999998e-01,	 5.7148840751209774e-02,	 1.5265752340712343e+03,	 4.3440778795327596e+01,	 6.3772772978888270e+02,	 1.0485102109451802e+04,	 5.0681170592365731e+02,	 3.0133344877961625e+00 
9.6264000000000005e-01,	 2.8098839999999997e-01,	 5.7373876561597488e-02,	 1.5260868353570661e+03,	 4.1434054569232387e+01,	 6.3869970925331586e+02,	 1.0542433024191263e+04,	 5.0719778213600767e+02,	 3.0099682286035412e+00 
9.6333429999999998e-01,	 2.8107689999999996e-01,	 5.7562690888658070e-02,	 1.5256820462319761e+03,	 3.9796231231313968e+01,	 6.3949797818841353e+02,	 1.0590347260562969e+04,	 5.0751463980655268e+02,	 3.0072058324280806e+00 
9.6401590000000004e-01,	 2.8116379999999996e-01,	 5.7721156915168138e-02,	 1.5253432483277334e+03,	 3.8459714310073586e+01,	 6.4015567470063320e+02,	 1.0630423445885401e+04,	 5.0777555136657367e+02,	 3.0049261433386825e+00 
9.6469760000000004e-01,	 2.8125069999999996e-01,	 5.7856638377801708e-02,	 1.5250534744386671e+03,	 3.7348409155839022e+01,	 6.4070996526270812e+02,	 1.0664601026601333e+04,	 5.0799533719951182e+02,	 3.0030014521899466e+00 
9.6536699999999998e-01,	 2.8133599999999997e-01,	 5.7973487260101979e-02,	 1.5248026698135975e+03,	 3.6422328272084485e+01,	 6.4118014750666589e+02,	 1.0693981530014378e+04,	 5.0818169810908984e+02,	 3.0013627330013422e+00 
9.6603649999999996e-01,	 2.8142129999999999e-01,	 5.8077537195558027e-02,	 1.5245818544053022e+03,	 3.5634960817387878e+01,	 6.4158754858280236e+02,	 1.0719981997153849e+04,	 5.0834311989905285e+02,	 2.9999388138423044e+00 
9.6669430000000001e-01,	 2.8150510000000001e-01,	 5.8170246178362334e-02,	 1.5243905584751340e+03,	 3.4963158097902664e+01,	 6.4194679009559968e+02,	 1.0743106247006494e+04,	 5.0848541723309404e+02,	 2.9986926046527502e+00 
9.6735210000000005e-01,	 2.8158879999999997e-01,	 5.8253544741877328e-02,	 1.5242311487740071e+03,	 3.4376242160877176e+01,	 6.4228523892263581e+02,	 1.0764162266840445e+04,	 5.0861944206069512e+02,	 2.9975628534947969e+00 
9.6799869999999999e-01,	 2.8167110000000001e-01,	 5.8331863289995248e-02,	 1.5240782847914129e+03,	 3.3865583787522262e+01,	 6.4259737804263364e+02,	 1.0783872288387376e+04,	 5.0874301701734396e+02,	 2.9965118739173189e+00 
9.6864519999999998e-01,	 2.8175339999999999e-01,	 5.8405395837481264e-02,	 1.5239120604117491e+03,	 3.3409734630592595e+01,	 6.4285044681994316e+02,	 1.0801718603287098e+04,	 5.0884318417047774e+02,	 2.9955756423927911e+00 
9.6928099999999995e-01,	 2.8183429999999998e-01,	 5.8473850932424944e-02,	 1.5237538522648945e+03,	 3.2995339010042969e+01,	 6.4306965126363741e+02,	 1.0818066527972796e+04,	 5.0892993154754691e+02,	 2.9947365170826532e+00 
9.6991680000000002e-01,	 2.8191519999999998e-01,	 5.8540193784924269e-02,	 1.5236120438390012e+03,	 3.2614549487350274e+01,	 6.4329120361226001e+02,	 1.0834071716606564e+04,	 5.0901759305623955e+02,	 2.9939261419454657e+00 
9.7054220000000002e-01,	 2.8199479999999999e-01,	 5.8604093347940013e-02,	 1.5234804375789763e+03,	 3.2265095131914933e+01,	 6.4350457141573520e+02,	 1.0849495034076368e+04,	 5.0910200192179707e+02,	 2.9931566903434623e+00 
9.7116760000000002e-01,	 2.8207430000000000e-01,	 5.8664111821741818e-02,	 1.5233525314483841e+03,	 3.1936985752326567e+01,	 6.4371228649196917e+02,	 1.0864112041595852e+04,	 5.0918416111201441e+02,	 2.9924090131689836e+00 
9.7178310000000001e-01,	 2.8215249999999997e-01,	 5.8723394181760827e-02,	 1.5232306770181517e+03,	 3.1629732439334070e+01,	 6.4391114610885484e+02,	 1.0878450249002848e+04,	 5.0926280521308524e+02,	 2.9916950936598958e+00 
9.7239860000000000e-01,	 2.8223080000000000e-01,	 5.8783262708685294e-02,	 1.5231142619212674e+03,	 3.1339387000376277e+01,	 6.4410260385938545e+02,	 1.0892778682845392e+04,	 5.0933851058412347e+02,	 2.9910101309404151e+00 
9.7300460000000000e-01,	 2.8230780000000000e-01,	 5.8838842375213807e-02,	 1.5229988091710529e+03,	 3.1062363535652352e+01,	 6.4428887214470592e+02,	 1.0906230887434103e+04,	 5.0941215316242011e+02,	 2.9903400093978725e+00 
9.7361059999999999e-01,	 2.8238479999999999e-01,	 5.8895012569985729e-02,	 1.5228868282154926e+03,	 3.0797294921320052e+01,	 6.4447044020695103e+02,	 1.0919718900226315e+04,	 5.0948392722685963e+02,	 2.9896884305309737e+00 
9.7420750000000000e-01,	 2.8246060000000001e-01,	 5.8949144463110462e-02,	 1.5227768632579528e+03,	 3.0543104373053190e+01,	 6.4464730461527017e+02,	 1.0932754982839233e+04,	 5.0955383221108229e+02,	 2.9890524718072782e+00 
9.7480440000000002e-01,	 2.8253639999999997e-01,	 5.9003250564643762e-02,	 1.5226695718944538e+03,	 3.0297213570472493e+01,	 6.4482056931937109e+02,	 1.0945730685138233e+04,	 5.0962230512779058e+02,	 2.9884307360751952e+00 
9.7539260000000005e-01,	 2.8261110000000000e-01,	 5.9056354084681663e-02,	 1.5225645679569284e+03,	 3.0060653121622636e+01,	 6.4498951960606405e+02,	 1.0958452439504112e+04,	 5.0968906416087924e+02,	 2.9878241390409994e+00 
9.7598090000000004e-01,	 2.8268579999999999e-01,	 5.9108639105446961e-02,	 1.5224608679353018e+03,	 2.9830126146485554e+01,	 6.4515613677925012e+02,	 1.0970987761282417e+04,	 5.0975489272457105e+02,	 2.9872260136178830e+00 
9.7656080000000001e-01,	 2.8275939999999999e-01,	 5.9159652050016068e-02,	 1.5223584583899164e+03,	 2.9606885073081720e+01,	 6.4531970881875327e+02,	 1.0983240100442757e+04,	 5.0981950992205867e+02,	 2.9866380149270144e+00 
9.7714080000000003e-01,	 2.8283300000000000e-01,	 5.9210839328939072e-02,	 1.5222581957690372e+03,	 2.9388617292390869e+01,	 6.4548079784593165e+02,	 1.0995487317868870e+04,	 5.0988313823154328e+02,	 2.9860604176549841e+00 
9.7771290000000000e-01,	 2.8290559999999998e-01,	 5.9260710413814074e-02,	 1.5221585489986473e+03,	 2.9177468153403062e+01,	 6.4563949840606415e+02,	 1.1007454079992964e+04,	 5.0994581536056660e+02,	 2.9854900684307379e+00 
9.7828499999999996e-01,	 2.8297810000000001e-01,	 5.9308984747650763e-02,	 1.5220594160518790e+03,	 2.8968336167072390e+01,	 6.4579726504501730e+02,	 1.1019112797338070e+04,	 5.1000811601236552e+02,	 2.9849232017197176e+00 
9.7884959999999999e-01,	 2.8304979999999996e-01,	 5.9360602804628765e-02,	 1.5219654392884213e+03,	 2.8768031572501449e+01,	 6.4594962412538484e+02,	 1.1031304935984717e+04,	 5.1006827404430550e+02,	 2.9843794990429253e+00 
9.7941429999999996e-01,	 2.8312139999999997e-01,	 5.9407092936552747e-02,	 1.5218680112949060e+03,	 2.8569052423212163e+01,	 6.4610324403790196e+02,	 1.1042569973586982e+04,	 5.1012892272538255e+02,	 2.9838263899927324e+00 
9.7997179999999995e-01,	 2.8319200000000000e-01,	 5.9453723581640597e-02,	 1.5217720172890845e+03,	 2.8374235365264916e+01,	 6.4625494658222260e+02,	 1.1053832449721724e+04,	 5.1018880736004735e+02,	 2.9832808924383674e+00 
9.8052940000000000e-01,	 2.8326269999999998e-01,	 5.9502607688408232e-02,	 1.5216793200915454e+03,	 2.8184627654335721e+01,	 6.4640397358584983e+02,	 1.1065472264248576e+04,	 5.1024762898059726e+02,	 2.9827484340443804e+00 
9.8108019999999996e-01,	 2.8333249999999999e-01,	 5.9548536229164270e-02,	 1.5215855771715078e+03,	 2.7997985132701192e+01,	 6.4655227326864201e+02,	 1.1076554048221045e+04,	 5.1030615679372653e+02,	 2.9822159188781168e+00 
9.8163109999999998e-01,	 2.8340230000000000e-01,	 5.9594691300948251e-02,	 1.5214924482775004e+03,	 2.7813852350751450e+01,	 6.4669993094956590e+02,	 1.1087670890577208e+04,	 5.1036442456664452e+02,	 2.9816863818708597e+00 
9.8217560000000004e-01,	 2.8347129999999998e-01,	 5.9640784451831790e-02,	 1.5214006179090061e+03,	 2.7633261029138531e+01,	 6.4684564832387332e+02,	 1.1098746838897510e+04,	 5.1042192014652039e+02,	 2.9811641882427611e+00 
9.8272009999999999e-01,	 2.8354029999999997e-01,	 5.9686384091414649e-02,	 1.5213086882378784e+03,	 2.7454758194092761e+01,	 6.4699119362123474e+02,	 1.1109731837240808e+04,	 5.1047934136584900e+02,	 2.9806424669512279e+00 
9.8325870000000004e-01,	 2.8360849999999999e-01,	 5.9730642800562603e-02,	 1.5212160472777116e+03,	 2.7278531360700626e+01,	 6.4713661008674308e+02,	 1.1120468790072138e+04,	 5.1053670530810331e+02,	 2.9801199245352445e+00 
9.8379729999999999e-01,	 2.8367670000000000e-01,	 5.9775587328424876e-02,	 1.5211240371075339e+03,	 2.7103709344366564e+01,	 6.4728175631693057e+02,	 1.1131332511139783e+04,	 5.1059395622108576e+02,	 2.9795994825572469e+00 
9.8433029999999999e-01,	 2.8374420000000000e-01,	 5.9820267051859125e-02,	 1.5210327369566201e+03,	 2.6929733577793854e+01,	 6.4742559741652190e+02,	 1.1142128202000786e+04,	 5.1065068601114996e+02,	 2.9790836555811020e+00 
9.8486330000000000e-01,	 2.8381170000000000e-01,	 5.9864620278014410e-02,	 1.5209409889353028e+03,	 2.6755521025866912e+01,	 6.4756985089929128e+02,	 1.1152873866158070e+04,	 5.1070757211315839e+02,	 2.9785661847993072e+00 
9.8539109999999996e-01,	 2.8387849999999998e-01,	 5.9908311156024796e-02,	 1.5208487652140225e+03,	 2.6581611651755999e+01,	 6.4771432497541707e+02,	 1.1163503589679178e+04,	 5.1076453885556447e+02,	 2.9780474766004197e+00 
9.8591890000000004e-01,	 2.8394530000000001e-01,	 5.9952345249458479e-02,	 1.5207556273440887e+03,	 2.6408035739006852e+01,	 6.4786017542953471e+02,	 1.1174224654890217e+04,	 5.1082204186567475e+02,	 2.9775240184796923e+00 
9.8644180000000004e-01,	 2.8401139999999997e-01,	 5.9994933945681714e-02,	 1.5206608347743218e+03,	 2.6232649600951419e+01,	 6.4800766117702119e+02,	 1.1184708179695303e+04,	 5.1088018302504992e+02,	 2.9769936980600837e+00 
9.8696479999999998e-01,	 2.8407759999999999e-01,	 6.0040547896217253e-02,	 1.5205674329585668e+03,	 2.6057325248181879e+01,	 6.4815521373583852e+02,	 1.1195760591779881e+04,	 5.1093834390193570e+02,	 2.9764661459409534e+00 
9.8748320000000001e-01,	 2.8414319999999998e-01,	 6.0084460028178022e-02,	 1.5204718379070127e+03,	 2.5879441609143246e+01,	 6.4830449242085979e+02,	 1.1206529303790865e+04,	 5.1099717843058767e+02,	 2.9759304528451032e+00 
9.8800169999999998e-01,	 2.8420879999999998e-01,	 6.0128469343895444e-02,	 1.5203736402889540e+03,	 2.5699276836212409e+01,	 6.4845688196078004e+02,	 1.1217373731074846e+04,	 5.1105723203990999e+02,	 2.9753826582903695e+00 
9.8851599999999995e-01,	 2.8427379999999997e-01,	 6.0172285158136184e-02,	 1.5202740531445829e+03,	 2.5515224194621840e+01,	 6.4861126776928620e+02,	 1.1228220467475310e+04,	 5.1111806514273587e+02,	 2.9748276507270281e+00 
9.8903030000000003e-01,	 2.8433890000000001e-01,	 6.0218906280115302e-02,	 1.5201743029920210e+03,	 2.5330595272630696e+01,	 6.4876695092042428e+02,	 1.1239617170407066e+04,	 5.1117940211039212e+02,	 2.9742695487074675e+00 
9.8954089999999995e-01,	 2.8440339999999997e-01,	 6.0261851773301171e-02,	 1.5200701951691055e+03,	 2.5139217949778050e+01,	 6.4892697946673991e+02,	 1.1250407179426678e+04,	 5.1124244343256152e+02,	 2.9736929692280745e+00 
9.9005149999999997e-01,	 2.8446800000000000e-01,	 6.0309400573995586e-02,	 1.5199698180591054e+03,	 2.4946435910439071e+01,	 6.4908883874960907e+02,	 1.1262092519941960e+04,	 5.1130619804484326e+02,	 2.9731196809534830e+00 
9.9055859999999996e-01,	 2.8453210000000001e-01,	 6.0354135779352100e-02,	 1.5198687344890891e+03,	 2.4749005306883419e+01,	 6.4925397750385446e+02,	 1.1273313693972121e+04,	 5.1137123621352146e+02,	 2.9725375920956867e+00 
9.9106570000000005e-01,	 2.8459619999999997e-01,	 6.0400361545352076e-02,	 1.5197672046184205e+03,	 2.4549286411721869e+01,	 6.4942118169120295e+02,	 1.1284853496099087e+04,	 5.1143707940484001e+02,	 2.9719500778041237e+00 
9.9156979999999995e-01,	 2.8465989999999997e-01,	 6.0446645423881562e-02,	 1.5196624275540271e+03,	 2.4347028212044805e+01,	 6.4958979894084450e+02,	 1.1296433178974259e+04,	 5.1150347046132970e+02,	 2.9713531555825448e+00 
9.9207380000000001e-01,	 2.8472359999999997e-01,	 6.0493258114450339e-02,	 1.5195561678464392e+03,	 2.4142858226544895e+01,	 6.4976056358066126e+02,	 1.1308116189687435e+04,	 5.1157069824596681e+02,	 2.9707486238191190e+00 
9.9257519999999999e-01,	 2.8478690000000001e-01,	 6.0538850617473397e-02,	 1.5194455778743240e+03,	 2.3935586619321008e+01,	 6.4993477398424034e+02,	 1.1319673038297524e+04,	 5.1163927347962698e+02,	 2.9701279235389300e+00 
9.9307650000000003e-01,	 2.8485030000000000e-01,	 6.0587377112547816e-02,	 1.5193357942646680e+03,	 2.3730746057340820e+01,	 6.5010925084457813e+02,	 1.1331787852162817e+04,	 5.1170794438884354e+02,	 2.9695085385389892e+00 
9.9357540000000000e-01,	 2.8491329999999998e-01,	 6.0632363663420424e-02,	 1.5192229146738205e+03,	 2.3523021447029134e+01,	 6.5028309503673131e+02,	 1.1343234240625430e+04,	 5.1177635712709792e+02,	 2.9688847344844183e+00 
9.9407440000000002e-01,	 2.8497639999999996e-01,	 6.0680225385274886e-02,	 1.5191122114018351e+03,	 2.3319266811278315e+01,	 6.5045381229717191e+02,	 1.1355168578224857e+04,	 5.1184353042813336e+02,	 2.9682727098761847e+00 
9.9457130000000005e-01,	 2.8503909999999999e-01,	 6.0723399814239895e-02,	 1.5189993650015276e+03,	 2.3113887975705794e+01,	 6.5062637839858780e+02,	 1.1366262546590864e+04,	 5.1191142224718828e+02,	 2.9676524986533597e+00 
9.9506819999999996e-01,	 2.8510189999999996e-01,	 6.0771129411644795e-02,	 1.5188873971497262e+03,	 2.2914524612823239e+01,	 6.5079680511038009e+02,	 1.1378176264741449e+04,	 5.1197846354068582e+02,	 2.9670393272308657e+00 
9.9556339999999999e-01,	 2.8516449999999999e-01,	 6.0815832680781265e-02,	 1.5187782389435802e+03,	 2.2719619768471016e+01,	 6.5096638141864992e+02,	 1.1389513016679542e+04,	 5.1204516159624063e+02,	 2.9664339717908987e+00 
9.9605860000000002e-01,	 2.8522700000000001e-01,	 6.0857917125493717e-02,	 1.5186687131452454e+03,	 2.2527640055835445e+01,	 6.5113586790836621e+02,	 1.1400361979900943e+04,	 5.1211181564426784e+02,	 2.9658284439059308e+00 
9.9655249999999995e-01,	 2.8528939999999997e-01,	 6.0902549312052114e-02,	 1.5185615249979701e+03,	 2.2344576262109424e+01,	 6.5130077333028066e+02,	 1.1411612167476209e+04,	 5.1217665976740170e+02,	 2.9652384183943510e+00 
9.9704640000000000e-01,	 2.8535179999999999e-01,	 6.0944189688385060e-02,	 1.5184578401500885e+03,	 2.2168470625191656e+01,	 6.5146327806460476e+02,	 1.1422263765880843e+04,	 5.1224055186178441e+02,	 2.9646611312665145e+00 
9.9753919999999996e-01,	 2.8541400000000000e-01,	 6.0984309785962323e-02,	 1.5183546704007636e+03,	 2.1999114752513684e+01,	 6.5162236336104093e+02,	 1.1432574260179224e+04,	 5.1230309181491259e+02,	 2.9640930467212185e+00 
9.9803200000000003e-01,	 2.8547630000000002e-01,	 6.1025761717337298e-02,	 1.5182571610944738e+03,	 2.1841996929638931e+01,	 6.5177479113853121e+02,	 1.1443021279229448e+04,	 5.1236300738867533e+02,	 2.9635517066352155e+00 
9.9852419999999997e-01,	 2.8553839999999997e-01,	 6.1061834099689904e-02,	 1.5181600511827503e+03,	 2.1690167541510377e+01,	 6.5192604544576557e+02,	 1.1452442357105730e+04,	 5.1242245477542065e+02,	 2.9630141582865566e+00 
9.9901640000000003e-01,	 2.8560059999999998e-01,	 6.1101414643595892e-02,	 1.5180668352378411e+03,	 2.1537106853646041e+01,	 6.5207268021526193e+02,	 1.1462443495248490e+04,	 5.1248007996494550e+02,	 2.9624948606752239e+00 
9.9950819999999996e-01,	 2.8566269999999999e-01,	 6.1145020348080170e-02,	 1.5179298653329583e+03,	 2.1617630034359184e+01,	 6.5226552078477459e+02,	 1.1474016057985613e+04,	 5.1255585345455893e+02,	 2.9617919320650086e+00 
1.0000000000000000e+00,	 2.8572480000000000e-01,	 6.1209654486047219e-02,	 1.5177194459413186e+03,	 2.1342641387626834e+01,	 6.5261145103473166e+02,	 1.1492236514275442e+04,	 5.1269175292042132e+02,	 2.9605888787896553e+00 
9.5378750000000001e-01,	 2.8078490000000000e-01,	 5.0581585741691637e-02,	 1.5433058361311219e+03,	 9.3766405332769097e+01,	 6.0823910116006175e+02,	 8.8510891197615510e+03,	 4.9495549985827887e+02,	 3.1238195929528580e+00 
9.5456799999999997e-01,	 2.8088049999999998e-01,	 5.1850702976421949e-02,	 1.5405849906924650e+03,	 8.3331871201977620e+01,	 6.1429316039968785e+02,	 9.1634764094984839e+03,	 4.9741265072172456e+02,	 3.1017246884328062e+00 
9.5533279999999998e-01,	 2.8097420000000001e-01,	 5.3109081418541183e-02,	 1.5373730930005552e+03,	 7.3631554403672283e+01,	 6.2009956957942904e+02,	 9.4745841466223537e+03,	 4.9975793855060908e+02,	 3.0797616878769660e+00 
9.5609770000000005e-01,	 2.8106789999999998e-01,	 5.4141333973836428e-02,	 1.5347591620122830e+03,	 6.5784000629878093e+01,	 6.2474374220664060e+02,	 9.7310746501053818e+03,	 5.0162589072880871e+02,	 3.0623785276830082e+00 
9.5684749999999996e-01,	 2.8115970000000001e-01,	 5.4969419091945478e-02,	 1.5326575284483329e+03,	 5.9509884629061666e+01,	 6.2839318103961489e+02,	 9.9376237215955061e+03,	 5.0308888045018989e+02,	 3.0487901344720507e+00 
9.5759729999999998e-01,	 2.8125139999999998e-01,	 5.5636149615970201e-02,	 1.5309700300461761e+03,	 5.4438554542947671e+01,	 6.3128334177193142e+02,	 1.0104418683067992e+04,	 5.0424447837423912e+02,	 3.0380850138974749e+00 
9.5833250000000003e-01,	 2.8134139999999996e-01,	 5.6166531313266418e-02,	 1.5296274117217258e+03,	 5.0382456085799127e+01,	 6.3354634859194903e+02,	 1.0237311863896002e+04,	 5.0514747057549033e+02,	 3.0297230370079560e+00 
9.5906769999999997e-01,	 2.8143140000000000e-01,	 5.6591222666117554e-02,	 1.5285542577203883e+03,	 4.7093732329436179e+01,	 6.3533935715323582e+02,	 1.0343910967175601e+04,	 5.0586177807184367e+02,	 3.0231174109313939e+00 
9.5978889999999994e-01,	 2.8151949999999998e-01,	 5.6930277330694321e-02,	 1.5277028527506752e+03,	 4.4447631962506684e+01,	 6.3674846293793780e+02,	 1.0428963372938211e+04,	 5.0642243746929825e+02,	 3.0179336300766892e+00 
9.6050999999999997e-01,	 2.8160770000000002e-01,	 5.7205435096314317e-02,	 1.5270251021478450e+03,	 4.2278821775703378e+01,	 6.3787343931586429e+02,	 1.0497883511334081e+04,	 5.0686960138026888e+02,	 3.0138131657735805e+00 
9.6121760000000001e-01,	 2.8169420000000001e-01,	 5.7426917806076692e-02,	 1.5264806888525316e+03,	 4.0507974966756166e+01,	 6.3876984014571644e+02,	 1.0553337994126650e+04,	 5.0722562719073136e+02,	 3.0105302043994606e+00 
9.6192509999999998e-01,	 2.8178070000000000e-01,	 5.7610954994124511e-02,	 1.5260382998943985e+03,	 3.9035544305499208e+01,	 6.3949750409993146e+02,	 1.0599219002309927e+04,	 5.0751445168485566e+02,	 3.0078699654846801e+00 
9.6261960000000002e-01,	 2.8186559999999999e-01,	 5.7763371821723211e-02,	 1.5256762187317042e+03,	 3.7812126550368134e+01,	 6.4008956872081922e+02,	 1.0637099546656880e+04,	 5.0774933284793980e+02,	 3.0057050064993467e+00 
9.6331409999999995e-01,	 2.8195039999999999e-01,	 5.7892714656950853e-02,	 1.5253736776108938e+03,	 3.6774613265653997e+01,	 6.4058343689507558e+02,	 1.0669143521920187e+04,	 5.0794517488122381e+02,	 3.0039007766272050e+00 
9.6399599999999996e-01,	 2.8203370000000000e-01,	 5.8003723058548062e-02,	 1.5251182866677150e+03,	 3.5895115512895984e+01,	 6.4099800506728525e+02,	 1.0696519461900936e+04,	 5.0810951244566473e+02,	 3.0023855167689457e+00 
9.6467780000000003e-01,	 2.8211690000000000e-01,	 5.8101728099006281e-02,	 1.5248984657331057e+03,	 3.5132943142424310e+01,	 6.4135568466032396e+02,	 1.0720571448721425e+04,	 5.0825125630156373e+02,	 3.0010808952590682e+00 
9.6534750000000003e-01,	 2.8219869999999997e-01,	 5.8188764972539012e-02,	 1.5247069081594150e+03,	 3.4471293619181878e+01,	 6.4166720645116504e+02,	 1.0741845992578455e+04,	 5.0837467621011450e+02,	 2.9999459087683351e+00 
9.6601729999999997e-01,	 2.8228039999999999e-01,	 5.8267860166538045e-02,	 1.5245413729527049e+03,	 3.3884792877245005e+01,	 6.4195022904514349e+02,	 1.0761191624291323e+04,	 5.0848677922553537e+02,	 2.9989332155720803e+00 
9.6667530000000002e-01,	 2.8236069999999996e-01,	 5.8341240021623331e-02,	 1.5243929726431893e+03,	 3.3364932331919420e+01,	 6.4221074715381224e+02,	 1.0779116410438000e+04,	 5.0858994655136433e+02,	 2.9980106259389201e+00 
9.6733340000000001e-01,	 2.8244100000000000e-01,	 5.8409953329716602e-02,	 1.5242374071057261e+03,	 3.2893546535349863e+01,	 6.4244367245957687e+02,	 1.0795725982176989e+04,	 5.0868216918218741e+02,	 2.9971412110647533e+00 
9.6798019999999996e-01,	 2.8251979999999999e-01,	 5.8474673716647232e-02,	 1.5240864787103428e+03,	 3.2467506956741737e+01,	 6.4264098951504729e+02,	 1.0811007466795185e+04,	 5.0876028028076416e+02,	 2.9963665110612192e+00 
9.6862700000000002e-01,	 2.8259869999999998e-01,	 5.8537191406303986e-02,	 1.5239584137469137e+03,	 3.2074568182956483e+01,	 6.4283855319013503e+02,	 1.0825893085002743e+04,	 5.0883847699442640e+02,	 2.9956380660429272e+00 
9.6926299999999999e-01,	 2.8267619999999999e-01,	 5.8597205742144366e-02,	 1.5238401368366833e+03,	 3.1710711260778112e+01,	 6.4304388675148459e+02,	 1.0840453681319828e+04,	 5.0891973633562930e+02,	 2.9949124352428980e+00 
9.6989899999999996e-01,	 2.8275370000000000e-01,	 5.8655376731328375e-02,	 1.5237224114603632e+03,	 3.1368118360056435e+01,	 6.4323811717426565e+02,	 1.0854492878137004e+04,	 5.0899658974681529e+02,	 2.9942150653149584e+00 
9.7052470000000002e-01,	 2.8282999999999997e-01,	 5.8712661420244283e-02,	 1.5236076165073189e+03,	 3.1047743377989821e+01,	 6.4342391021697472e+02,	 1.0868231993981908e+04,	 5.0907009378430655e+02,	 2.9935443946691214e+00 
9.7115039999999997e-01,	 2.8290620000000000e-01,	 5.8769155104906198e-02,	 1.5234957833279700e+03,	 3.0742632561838398e+01,	 6.4360535081275953e+02,	 1.0881757180578876e+04,	 5.0914186565114250e+02,	 2.9928906508479982e+00 
9.7176620000000002e-01,	 2.8298119999999999e-01,	 5.8823095969846625e-02,	 1.5233843548764510e+03,	 3.0453281626190179e+01,	 6.4378304892398091e+02,	 1.0894752114920544e+04,	 5.0921214731033598e+02,	 2.9922473793098203e+00 
9.7238190000000002e-01,	 2.8305619999999998e-01,	 5.8877588908133445e-02,	 1.5232753040896682e+03,	 3.0177290302993139e+01,	 6.4395771472064564e+02,	 1.0907803479917478e+04,	 5.0928122020189721e+02,	 2.9916166792369090e+00 
9.7298819999999997e-01,	 2.8312999999999999e-01,	 5.8930638292619276e-02,	 1.5231682628789597e+03,	 2.9913828660994959e+01,	 6.4412904783938029e+02,	 1.0920536310615797e+04,	 5.0934896606052041e+02,	 2.9909984669182639e+00 
9.7359450000000003e-01,	 2.8320370000000000e-01,	 5.8983344081350197e-02,	 1.5230625218025966e+03,	 2.9659690408732448e+01,	 6.4429852027442757e+02,	 1.0933179107659747e+04,	 5.0941596733363139e+02,	 2.9903877858971128e+00 
9.7419169999999999e-01,	 2.8327639999999998e-01,	 5.9035032386781879e-02,	 1.5229581902910484e+03,	 2.9415621863807850e+01,	 6.4446517763051691e+02,	 1.0945590582117724e+04,	 5.0948184706661078e+02,	 2.9897870765994896e+00 
9.7478889999999996e-01,	 2.8334909999999996e-01,	 5.9086172622381264e-02,	 1.5228544718590024e+03,	 2.9178864433483625e+01,	 6.4463064451030664e+02,	 1.0957885133514848e+04,	 5.0954724777714654e+02,	 2.9891908860103791e+00 
9.7537739999999995e-01,	 2.8342059999999997e-01,	 5.9136572863931335e-02,	 1.5227518506372228e+03,	 2.8950786659019144e+01,	 6.4479364899090547e+02,	 1.0970005388984724e+04,	 5.0961166701876272e+02,	 2.9886031515565570e+00 
9.7596590000000005e-01,	 2.8349219999999997e-01,	 5.9186782621316616e-02,	 1.5226503079839258e+03,	 2.8728550445023384e+01,	 6.4495547873419866e+02,	 1.0982075024215044e+04,	 5.0967561395081515e+02,	 2.9880207324711634e+00 
9.7654620000000003e-01,	 2.8356270000000000e-01,	 5.9236136142277629e-02,	 1.5225498744102952e+03,	 2.8513352644726957e+01,	 6.4511508756105070e+02,	 1.0993952572131573e+04,	 5.0973867543120156e+02,	 2.9874461453190477e+00 
9.7712639999999995e-01,	 2.8363329999999998e-01,	 5.9284707730226698e-02,	 1.5224494381710349e+03,	 2.8302923629333058e+01,	 6.4527403867831686e+02,	 1.1005678275690439e+04,	 5.0980146929795922e+02,	 2.9868734954560572e+00 
9.7769879999999998e-01,	 2.8370279999999998e-01,	 5.9333812837947100e-02,	 1.5223516003282034e+03,	 2.8099452155132980e+01,	 6.4543017520159924e+02,	 1.1017459444149543e+04,	 5.0986314372594273e+02,	 2.9863129464739981e+00 
9.7827120000000001e-01,	 2.8377239999999998e-01,	 5.9380513512769656e-02,	 1.5222523108509502e+03,	 2.7898639342637193e+01,	 6.4558671880960969e+02,	 1.1028805400965715e+04,	 5.0992497146510152e+02,	 2.9857489370209556e+00 
9.7883620000000005e-01,	 2.8384100000000001e-01,	 5.9427794096095880e-02,	 1.5221539581628804e+03,	 2.7704928365500976e+01,	 6.4574095331699584e+02,	 1.1040223818732835e+04,	 5.0998587988195493e+02,	 2.9851925865003794e+00 
9.7940110000000002e-01,	 2.8390959999999998e-01,	 5.9475460197152198e-02,	 1.5220580748217512e+03,	 2.7514347432783623e+01,	 6.4589399898166505e+02,	 1.1051697727289467e+04,	 5.1004631162584792e+02,	 2.9846441571581659e+00 
9.7995900000000002e-01,	 2.8397739999999999e-01,	 5.9520922004533974e-02,	 1.5219613228966298e+03,	 2.7326878342747197e+01,	 6.4604634865050480e+02,	 1.1062754217557445e+04,	 5.1010646143770549e+02,	 2.9840959599907686e+00 
9.8051679999999997e-01,	 2.8404509999999999e-01,	 5.9566763431042238e-02,	 1.5218646170188874e+03,	 2.7143096133406331e+01,	 6.4619823266092703e+02,	 1.1073877286932133e+04,	 5.1016642034168774e+02,	 2.9835492720713606e+00 
9.8106800000000005e-01,	 2.8411199999999998e-01,	 5.9612208512163221e-02,	 1.5217689534284777e+03,	 2.6962968150977588e+01,	 6.4634883019753272e+02,	 1.1084908598711645e+04,	 5.1022586443057060e+02,	 2.9830079344817335e+00 
9.8161909999999997e-01,	 2.8417890000000001e-01,	 5.9657164586881695e-02,	 1.5216731316151522e+03,	 2.6784580313643428e+01,	 6.4649957200935660e+02,	 1.1095855372504637e+04,	 5.1028535853328071e+02,	 2.9824662216748563e+00 
9.8216400000000004e-01,	 2.8424499999999997e-01,	 5.9701508852148394e-02,	 1.5215771640124301e+03,	 2.6609229724478830e+01,	 6.4664966618575568e+02,	 1.1106681102722217e+04,	 5.1034459013917177e+02,	 2.9819260275469008e+00 
9.8270880000000005e-01,	 2.8431109999999998e-01,	 5.9746166434414771e-02,	 1.5214815485290515e+03,	 2.6435360685354485e+01,	 6.4679974466055319e+02,	 1.1117568694760008e+04,	 5.1040380867608445e+02,	 2.9813868141596220e+00 
9.8324769999999995e-01,	 2.8437649999999998e-01,	 5.9790195323639446e-02,	 1.5213859133533776e+03,	 2.6262893389876233e+01,	 6.4694961475878517e+02,	 1.1128339544417959e+04,	 5.1046293813536721e+02,	 2.9808482930381448e+00 
9.8378659999999996e-01,	 2.8444179999999997e-01,	 5.9834025190964035e-02,	 1.5212894807534190e+03,	 2.6090563210886927e+01,	 6.4710092710012145e+02,	 1.1139101966231972e+04,	 5.1052262966682810e+02,	 2.9803050958263486e+00 
9.8431990000000003e-01,	 2.8450650000000000e-01,	 5.9877520317814077e-02,	 1.5211926628387077e+03,	 2.5919131790669635e+01,	 6.4725267465154161e+02,	 1.1149813369005564e+04,	 5.1058248587665713e+02,	 2.9797603774864303e+00 
9.8485319999999998e-01,	 2.8457119999999997e-01,	 5.9921408720025125e-02,	 1.5210958567937014e+03,	 2.5747090422519054e+01,	 6.4740520766315444e+02,	 1.1160615359145015e+04,	 5.1064264483733348e+02,	 2.9792140606425619e+00 
9.8538139999999996e-01,	 2.8463519999999998e-01,	 5.9964631491399890e-02,	 1.5209981557288486e+03,	 2.5574329955667473e+01,	 6.4755842185718689e+02,	 1.1171308946779332e+04,	 5.1070306532204478e+02,	 2.9786646085855395e+00 
9.8590949999999999e-01,	 2.8469919999999999e-01,	 6.0008995519519333e-02,	 1.5209003135080204e+03,	 2.5399642748728446e+01,	 6.4771276972976375e+02,	 1.1182238581365238e+04,	 5.1076392564942165e+02,	 2.9781124202879861e+00 
9.8643270000000005e-01,	 2.8476259999999998e-01,	 6.0052159187745008e-02,	 1.5208000633028762e+03,	 2.5222217975834386e+01,	 6.4786916702319172e+02,	 1.1192983831344371e+04,	 5.1082558668018027e+02,	 2.9775509327324281e+00 