TITLE = "Final State"
VARIABLES = "X", "Y", "rho", "u", "v", "T", "p", "c", "M"
ZONE I=102, J=27, DATAPACKING=POINT, STRANDID=27000, SOLUTIONTIME=0.000651
1.0000000000000000e+00,	 2.6805000000000001e-01,	 2.4672646746632443e-02,	 1.5953332472954560e+03,	 3.9989022595147753e+02,	 4.6051330272703274e+02,	 3.2687963041876624e+03,	 4.3067541076528062e+02,	 3.8188586798881428e+00 
1.0004999999999999e+00,	 2.6803939999999998e-01,	 1.9178529170250626e-02,	 1.6101692198801009e+03,	 3.2639349240604815e+02,	 4.5792439052893064e+02,	 2.5266146557841630e+03,	 4.2946311973373645e+02,	 3.8255145513043378e+00 
1.0009999999999999e+00,	 2.6802890000000001e-01,	 1.4417690842892558e-02,	 1.6272423996332986e+03,	 2.3505645733252805e+02,	 4.4942147123361224e+02,	 1.8641440256305352e+03,	 4.2545721716740104e+02,	 3.8643880758710396e+00 
1.0014989999999999e+00,	 2.6801829999999999e-01,	 1.2058256877065422e-02,	 1.6406104694585558e+03,	 1.6510776993520199e+02,	 4.3545142879993068e+02,	 1.5106163772661189e+03,	 4.1879245281020559e+02,	 3.9372667458159825e+00 
1.0019990000000001e+00,	 2.6800770000000002e-01,	 1.0639281086168715e-02,	 1.6520647636031499e+03,	 1.1826268249097909e+02,	 4.2034451307401093e+02,	 1.2866120163606931e+03,	 4.1146384295713602e+02,	 4.0253652580707788e+00 
1.0024999999999999e+00,	 2.6799719999999999e-01,	 9.6593659207156145e-03,	 1.6618923845229422e+03,	 8.5680697300403850e+01,	 4.0632039586261658e+02,	 1.1291384044082633e+03,	 4.0454170268435769e+02,	 4.1135427799648854e+00 
1.0029999999999999e+00,	 2.6798659999999996e-01,	 8.9278868426969117e-03,	 1.6701197582957645e+03,	 6.2011603752017450e+01,	 3.9417585779967089e+02,	 1.0124384633471803e+03,	 3.9845015240296158e+02,	 4.1944283323415776e+00 
1.0035000000000001e+00,	 2.6797599999999999e-01,	 8.3650207378738201e-03,	 1.6768338333632191e+03,	 4.4017336087000757e+01,	 3.8406423599905736e+02,	 9.2427419287506825e+02,	 3.9330631572604926e+02,	 4.2648983761957329e+00 
1.0040009999999999e+00,	 2.6796539999999996e-01,	 7.9289627975320486e-03,	 1.6821678070309731e+03,	 2.9772559514896216e+01,	 3.7590697019166436e+02,	 8.5748532496934263e+02,	 3.8910711834765164e+02,	 4.3238254408547405e+00 
1.0045020000000000e+00,	 2.6795490000000000e-01,	 7.5947902318220838e-03,	 1.6862722513818348e+03,	 1.8138487712857646e+01,	 3.6953674453381529e+02,	 8.0742715100244470e+02,	 3.8579607137822410e+02,	 4.3711430144853889e+00 
1.0050030000000001e+00,	 2.6794429999999997e-01,	 7.3431826757434891e-03,	 1.6892772331303163e+03,	 8.3184958442298012e+00,	 3.6471717936719642e+02,	 7.7049618053994072e+02,	 3.8327200340368273e+02,	 4.4075687745494108e+00 
1.0055050000000001e+00,	 2.6793370000000000e-01,	 7.1685834670982759e-03,	 1.6911841614911532e+03,	 -1.3484102485008176e-01,	 3.6128841766124788e+02,	 7.4510473412811507e+02,	 3.8146614989012511e+02,	 4.4333793898982226e+00 
1.0060070000000001e+00,	 2.6792309999999997e-01,	 7.0788227484404652e-03,	 1.6916832460063572e+03,	 -9.1906959439927807e+00,	 3.5982617570824249e+02,	 7.3279707715316533e+02,	 3.8069341359795214e+02,	 4.4437548728883796e+00 
1.0065100000000000e+00,	 2.6791239999999999e-01,	 7.1182310541293738e-03,	 1.6901403904938159e+03,	 -2.0401353447314953e+01,	 3.6117945244885283e+02,	 7.3964794269041624e+02,	 3.8140862012634079e+02,	 4.4316342819385097e+00 
1.0070129999999999e+00,	 2.6790179999999997e-01,	 7.3420563136764282e-03,	 1.6858109964388850e+03,	 -3.4220847268946819e+01,	 3.6686265576629569e+02,	 7.7490980188240133e+02,	 3.8439766366330889e+02,	 4.3864946390928568e+00 
1.0075160000000001e+00,	 2.6789120000000000e-01,	 7.8081945940716348e-03,	 1.6779976493288082e+03,	 -5.2877487959164554e+01,	 3.7839293881100781e+02,	 8.5000912719643566e+02,	 3.9039163042780376e+02,	 4.3003754593097501e+00 
1.0080199999999999e+00,	 2.6788049999999997e-01,	 8.5721363006101906e-03,	 1.6663810121094652e+03,	 -7.4006710790557761e+01,	 3.9688137640805280e+02,	 9.7876791781490022e+02,	 3.9981524212193585e+02,	 4.1719859736787965e+00 
1.0085249999999999e+00,	 2.6786989999999999e-01,	 9.6697049698092792e-03,	 1.6512557798982921e+03,	 -9.2479328406385250e+01,	 4.2228200819151027e+02,	 1.1747507725480332e+03,	 4.1241103345022310e+02,	 4.0101822977282566e+00 
1.0090300000000001e+00,	 2.6785919999999996e-01,	 1.1102338872721003e-02,	 1.6335422872641150e+03,	 -1.0445718592449442e+02,	 4.5296237663025101e+02,	 1.4467934941716094e+03,	 4.2712997661655038e+02,	 3.8322729321705218e+00 
1.0095360000000000e+00,	 2.6784849999999999e-01,	 1.2855304371698389e-02,	 1.6144643431672712e+03,	 -1.0871316205714714e+02,	 4.8348646854917513e+02,	 1.7881198533058302e+03,	 4.4128701512640254e+02,	 3.6668208134317624e+00 
1.0100420000000001e+00,	 2.6783780000000001e-01,	 1.4884200703985172e-02,	 1.5952064869625860e+03,	 -1.0639911274627974e+02,	 5.1546102127830000e+02,	 2.2072487773625235e+03,	 4.5564530697545359e+02,	 3.5087619612788576e+00 
1.0105489999999999e+00,	 2.6782709999999998e-01,	 1.7146737012952745e-02,	 1.5768128766722161e+03,	 -9.9411411642236118e+01,	 5.4900103674732736e+02,	 2.7082240408364801e+03,	 4.7023566909791236e+02,	 3.3598971922708358e+00 
1.0110570000000001e+00,	 2.6781630000000001e-01,	 1.9496578544416495e-02,	 1.5603263705528329e+03,	 -9.3212030889644069e+01,	 5.7802975028405001e+02,	 3.2421905275576278e+03,	 4.8250751553274637e+02,	 3.2395517753988270e+00 
1.0115660000000000e+00,	 2.6780559999999998e-01,	 2.1978805549008676e-02,	 1.5458425694851480e+03,	 -8.8643229082436136e+01,	 6.0310325707702100e+02,	 3.8135170998427770e+03,	 4.9286141949972347e+02,	 3.1416174123248664e+00 
1.0120750000000001e+00,	 2.6779480000000000e-01,	 2.4540087993301204e-02,	 1.5336316497321825e+03,	 -8.2844521060774852e+01,	 6.2381584150647723e+02,	 4.4041535521673941e+03,	 5.0125323235466345e+02,	 3.0640552322070027e+00 
1.0125860000000000e+00,	 2.6778399999999997e-01,	 2.6942748109573394e-02,	 1.5239622992249124e+03,	 -7.6641671138594603e+01,	 6.4037920660471241e+02,	 4.9637402850401240e+03,	 5.0786419709261969e+02,	 3.0045202756373923e+00 
1.0130969999999999e+00,	 2.6777319999999999e-01,	 2.9148342489134574e-02,	 1.5163144451367270e+03,	 -7.0518645966906149e+01,	 6.5341180566271157e+02,	 5.4793718997964888e+03,	 5.1300603601038290e+02,	 2.9589385786832274e+00 
1.0136090000000000e+00,	 2.6776240000000001e-01,	 3.1143723121966983e-02,	 1.5102637678916190e+03,	 -6.4804212742614681e+01,	 6.6363942919028591e+02,	 5.9461060173228361e+03,	 5.1700539750656230e+02,	 2.9238640144055719e+00 
1.0141220000000000e+00,	 2.6775159999999998e-01,	 3.2913077731449192e-02,	 1.5054984533414781e+03,	 -5.9633140437107166e+01,	 6.7162975538387059e+02,	 6.3595789252241093e+03,	 5.2010849934508065e+02,	 2.8968552399352849e+00 
1.0146360000000001e+00,	 2.6774070000000000e-01,	 3.4455748899034057e-02,	 1.5017465472564209e+03,	 -5.5106036283465137e+01,	 6.7786076720000847e+02,	 6.7194252973577850e+03,	 5.2251556979588122e+02,	 2.8760047391107753e+00 
1.0151509999999999e+00,	 2.6772979999999996e-01,	 3.5795374508389197e-02,	 1.4987501753507672e+03,	 -5.1159133297546681e+01,	 6.8280155742431350e+02,	 7.0315545624017414e+03,	 5.2441636767922728e+02,	 2.8596038569284099e+00 
1.0156670000000001e+00,	 2.6771889999999998e-01,	 3.6949585195123189e-02,	 1.4963330573295168e+03,	 -4.7748629425707165e+01,	 6.8674867213931907e+02,	 7.3002432784819403e+03,	 5.2592994706989225e+02,	 2.8465667556052119e+00 
1.0161849999999999e+00,	 2.6770800000000000e-01,	 3.7943173294088722e-02,	 1.4943508517452537e+03,	 -4.4941449381565526e+01,	 6.8994044590796852e+02,	 7.5313909447332671e+03,	 5.2715070187367155e+02,	 2.8360514050525940e+00 
1.0167029999999999e+00,	 2.6769699999999996e-01,	 3.8796979868057260e-02,	 1.4927003537657331e+03,	 -4.2723251869782402e+01,	 6.9255978303669519e+02,	 7.7301002351599072e+03,	 5.2815040943450515e+02,	 2.8274362808109665e+00 
1.0172230000000000e+00,	 2.6768599999999998e-01,	 3.9544450142957419e-02,	 1.4912906432123918e+03,	 -4.0875773983568266e+01,	 6.9480946057075766e+02,	 7.9046237302989794e+03,	 5.2900752300570412e+02,	 2.8200936068987645e+00 
1.0177430000000001e+00,	 2.6767500000000000e-01,	 4.0193935922028023e-02,	 1.4900891229933873e+03,	 -3.9344081313386340e+01,	 6.9674508038804129e+02,	 8.0568334155779839e+03,	 5.2974387257513092e+02,	 2.8138285823852800e+00 
1.0182650000000000e+00,	 2.6766400000000001e-01,	 4.0757808193949682e-02,	 1.4890710161078541e+03,	 -3.8067473494249896e+01,	 6.9840864384768349e+02,	 8.1893675717352407e+03,	 5.3037590943544922e+02,	 2.8084939372190441e+00 
1.0187889999999999e+00,	 2.6765289999999997e-01,	 4.1242866591862035e-02,	 1.4882188095725739e+03,	 -3.7001210589387981e+01,	 6.9982295513611075e+02,	 8.3036104094216953e+03,	 5.3091265627473615e+02,	 2.8039992959672451e+00 
1.0193129999999999e+00,	 2.6764189999999999e-01,	 4.1660536017338178e-02,	 1.4874937643612348e+03,	 -3.6096428286532351e+01,	 7.0103826379375107e+02,	 8.4022676951511858e+03,	 5.3137344629547931e+02,	 2.8001618809091049e+00 
1.0198389999999999e+00,	 2.6763070000000000e-01,	 4.2013145348244116e-02,	 1.4868746581407502e+03,	 -3.5399890215148154e+01,	 7.0207235716761681e+02,	 8.4858823796632732e+03,	 5.3176521326531645e+02,	 2.7969035321160938e+00 
1.0203670000000000e+00,	 2.6761960000000001e-01,	 4.2328022638924614e-02,	 1.4863163306176020e+03,	 -3.4759962750421771e+01,	 7.0302378262272191e+02,	 8.5610677767084508e+03,	 5.3212540667294763e+02,	 2.7939330014842487e+00 
1.0208950000000001e+00,	 2.6760839999999997e-01,	 4.2596784794213166e-02,	 1.4858219385925718e+03,	 -3.4299618358741284e+01,	 7.0386514109842460e+02,	 8.6257370449277769e+03,	 5.3244372758978193e+02,	 2.7913142844762113e+00 
1.0214259999999999e+00,	 2.6759719999999998e-01,	 4.2837444788014559e-02,	 1.4853736666101863e+03,	 -3.3849691430893685e+01,	 7.0464377652489088e+02,	 8.6840660044941706e+03,	 5.3273814830561457e+02,	 2.7889110551029859e+00 
1.0219570000000000e+00,	 2.6758599999999999e-01,	 4.3050251362304115e-02,	 1.4849553588358135e+03,	 -3.3529168600115099e+01,	 7.0536650729317137e+02,	 8.7361576661128111e+03,	 5.3301128459613210e+02,	 2.7866836691052548e+00 
1.0224910000000000e+00,	 2.6757470000000000e-01,	 4.3240977664904111e-02,	 1.4845631141892607e+03,	 -3.3292505574278493e+01,	 7.0605180852156104e+02,	 8.7833868691298030e+03,	 5.3327014619981583e+02,	 2.7845856050114053e+00 
1.0230260000000000e+00,	 2.6756340000000001e-01,	 4.3415726963038470e-02,	 1.4841961171279963e+03,	 -3.3065238602056205e+01,	 7.0671052765534841e+02,	 8.8271107541759975e+03,	 5.3351884845591781e+02,	 2.7825903301536510e+00 
1.0235620000000001e+00,	 2.6755210000000001e-01,	 4.3571684806367084e-02,	 1.4838633254856313e+03,	 -3.2875423800914064e+01,	 7.0731722298988007e+02,	 8.8664245750774026e+03,	 5.3374780638467735e+02,	 2.7807654576613019e+00 
1.0241000000000000e+00,	 2.6754069999999996e-01,	 4.3709515228973317e-02,	 1.4835677266320768e+03,	 -3.2734370596721760e+01,	 7.0786304424347622e+02,	 8.9013354283448098e+03,	 5.3395370743272917e+02,	 2.7791338423036676e+00 
1.0246400000000000e+00,	 2.6752929999999997e-01,	 4.3836195635728797e-02,	 1.4832919077365777e+03,	 -3.2594228601797191e+01,	 7.0838107850095889e+02,	 8.9336667116743047e+03,	 5.3414905293496429e+02,	 2.7775954543837313e+00 
1.0251820000000000e+00,	 2.6751779999999997e-01,	 4.3951564280408112e-02,	 1.4830367940053973e+03,	 -3.2466898495672766e+01,	 7.0886856555932093e+02,	 8.9633425139979263e+03,	 5.3433281417275998e+02,	 2.7761576634874703e+00 
1.0257250000000000e+00,	 2.6750639999999998e-01,	 4.4060711168468977e-02,	 1.4827928243392244e+03,	 -3.2335688632151545e+01,	 7.0934139411800106e+02,	 8.9915951478111729e+03,	 5.3451098944423995e+02,	 2.7747705632661797e+00 
1.0262700000000000e+00,	 2.6749479999999998e-01,	 4.4153290117905114e-02,	 1.4825739175472818e+03,	 -3.2285645122880744e+01,	 7.0976475317337713e+02,	 9.0158657639055891e+03,	 5.3467047281510088e+02,	 2.7735315292841642e+00 
1.0268170000000001e+00,	 2.6748329999999998e-01,	 4.4249264759599116e-02,	 1.4823591623391922e+03,	 -3.2153131138007765e+01,	 7.1019980711113362e+02,	 9.0410016060365851e+03,	 5.3483431221367096e+02,	 2.7722750699302545e+00 
1.0273660000000000e+00,	 2.6747169999999998e-01,	 4.4329915348032926e-02,	 1.4821759485724228e+03,	 -3.2110039135974034e+01,	 7.1056959284701850e+02,	 9.0621961540988868e+03,	 5.3497353244455553e+02,	 2.7712094818671891e+00 
1.0279170000000000e+00,	 2.6745999999999998e-01,	 4.4407229269056089e-02,	 1.4819894274207606e+03,	 -3.2067203206258320e+01,	 7.1094587268784448e+02,	 9.0828083714913828e+03,	 5.3511516045348299e+02,	 2.7701258168948097e+00 
1.0284690000000001e+00,	 2.6744839999999998e-01,	 4.4486332486852243e-02,	 1.4818062221625182e+03,	 -3.1999826699541707e+01,	 7.1132719082265317e+02,	 9.1038679766126643e+03,	 5.3525864659600313e+02,	 2.7690383178915989e+00 
1.0290239999999999e+00,	 2.6743659999999997e-01,	 4.4555014111662274e-02,	 1.4816342284685416e+03,	 -3.1981305783186414e+01,	 7.1168310899612356e+02,	 9.1224854946355281e+03,	 5.3539254029335359e+02,	 2.7680239029796714e+00 
1.0295810000000001e+00,	 2.6742489999999997e-01,	 4.4631475406509753e-02,	 1.4814578409948449e+03,	 -3.1892989894227078e+01,	 7.1206342060788006e+02,	 9.1430239514148361e+03,	 5.3553557361981814e+02,	 2.7669517622080990e+00 
1.0301400000000001e+00,	 2.6741310000000001e-01,	 4.4695159094711057e-02,	 1.4813018808531165e+03,	 -3.1885261459931382e+01,	 7.1239650799300216e+02,	 9.1603529400818334e+03,	 5.3566081477321075e+02,	 2.7660134322733652e+00 
1.0307010000000001e+00,	 2.6740120000000001e-01,	 4.4755184830019140e-02,	 1.4811570165029984e+03,	 -3.1895977728721242e+01,	 7.1271088480987760e+02,	 9.1767031664394417e+03,	 5.3577899388108631e+02,	 2.7651334330083359e+00 
1.0312640000000000e+00,	 2.6738930000000000e-01,	 4.4819459149458625e-02,	 1.4810022703012601e+03,	 -3.1846255067085934e+01,	 7.1305312270596608e+02,	 9.1942950223021653e+03,	 5.3590761677177704e+02,	 2.7641790902235037e+00 
1.0318290000000001e+00,	 2.6737739999999999e-01,	 4.4882212326625329e-02,	 1.4808502715593663e+03,	 -3.1794948959528988e+01,	 7.1339178895692930e+02,	 9.2115412188411119e+03,	 5.3603486695310505e+02,	 2.7632373453010741e+00 
1.0323970000000000e+00,	 2.6736539999999998e-01,	 4.4936875641363838e-02,	 1.4807198895676797e+03,	 -3.1816299817741232e+01,	 7.1368547055009799e+02,	 9.2265569436716996e+03,	 5.3614519018493445e+02,	 2.7624264777938459e+00 
1.0329660000000001e+00,	 2.6735330000000002e-01,	 4.4989394596239268e-02,	 1.4805940131681150e+03,	 -3.1838091091101774e+01,	 7.1397262709278277e+02,	 9.2410569840527914e+03,	 5.3625304029690085e+02,	 2.7616370985269518e+00 
1.0335390000000000e+00,	 2.6734120000000000e-01,	 4.5049803444792771e-02,	 1.4804500341337159e+03,	 -3.1781843281067957e+01,	 7.1430436953319600e+02,	 9.2577648361431893e+03,	 5.3637760896071279e+02,	 2.7607251150851093e+00 
1.0341130000000001e+00,	 2.6732909999999999e-01,	 4.5106982011111137e-02,	 1.4803071787837616e+03,	 -3.1741318130190379e+01,	 7.1462980407782095e+02,	 9.2737382281724440e+03,	 5.3649978091789205e+02,	 2.7598286097032041e+00 
1.0346900000000001e+00,	 2.6731689999999997e-01,	 4.5161717020204217e-02,	 1.4801720190953979e+03,	 -3.1726421506187918e+01,	 7.1493866826457918e+02,	 9.2890044225537713e+03,	 5.3661570644107655e+02,	 2.7589799903007832e+00 
1.0352690000000000e+00,	 2.6730470000000001e-01,	 4.5218465547314762e-02,	 1.4800359604599262e+03,	 -3.1706904332396206e+01,	 7.1525195256581856e+02,	 9.3047521714121322e+03,	 5.3673326538103868e+02,	 2.7581214850955691e+00 
1.0358510000000001e+00,	 2.6729239999999999e-01,	 4.5269395099660277e-02,	 1.4799070145988062e+03,	 -3.1739680125093507e+01,	 7.1554624994294898e+02,	 9.3190649555855362e+03,	 5.3684367608773709e+02,	 2.7573154031391645e+00 
1.0364350000000000e+00,	 2.6727999999999996e-01,	 4.5319884022588020e-02,	 1.4797761365974975e+03,	 -3.1761287260368427e+01,	 7.1584534378631770e+02,	 9.3333581569730522e+03,	 5.3695586300991442e+02,	 2.7564964920042452e+00 
1.0370220000000001e+00,	 2.6726759999999999e-01,	 4.5379318118832793e-02,	 1.4796318903977374e+03,	 -3.1708757630172034e+01,	 7.1618190039030333e+02,	 9.3499921104672576e+03,	 5.3708207379501789e+02,	 2.7555781240591282e+00 
1.0376120000000000e+00,	 2.6725519999999997e-01,	 4.5439260989842828e-02,	 1.4794881474274978e+03,	 -3.1661911307178194e+01,	 7.1651795160126744e+02,	 9.3667358442339137e+03,	 5.3720806546964900e+02,	 2.7546624771139654e+00 
1.0382039999999999e+00,	 2.6724270000000000e-01,	 4.5490455984289524e-02,	 1.4793559574152973e+03,	 -3.1695446636727254e+01,	 7.1682027076499594e+02,	 9.3812455957443253e+03,	 5.3732138514655981e+02,	 2.7538369018284179e+00 
1.0387980000000001e+00,	 2.6723009999999997e-01,	 4.5542516934747181e-02,	 1.4792254573062282e+03,	 -3.1706586540528605e+01,	 7.1712277188124494e+02,	 9.3959452932856639e+03,	 5.3743474911020974e+02,	 2.7530136998505315e+00 
1.0393960000000000e+00,	 2.6721750000000000e-01,	 4.5600083451380224e-02,	 1.4790853716347187e+03,	 -3.1691132299510517e+01,	 7.1745111328418398e+02,	 9.4121293877895641e+03,	 5.3755776980648841e+02,	 2.7521225169526886e+00 
1.0399959999999999e+00,	 2.6720479999999996e-01,	 4.5650992707003429e-02,	 1.4789582350474930e+03,	 -3.1727317749928041e+01,	 7.1775072178424216e+02,	 9.4265722673828295e+03,	 5.3767000049597038e+02,	 2.7513130904040977e+00 
1.0405990000000001e+00,	 2.6719199999999999e-01,	 4.5703477731128900e-02,	 1.4788281992009765e+03,	 -3.1739150663050260e+01,	 7.1805908078053562e+02,	 9.4414644996226707e+03,	 5.3778548458626210e+02,	 2.7504810021866777e+00 
1.0412049999999999e+00,	 2.6717920000000001e-01,	 4.5763410668331249e-02,	 1.4786806586990692e+03,	 -3.1677228501283693e+01,	 7.1840819726107839e+02,	 9.4584419074001671e+03,	 5.3791620291119000e+02,	 2.7495359250115468e+00 
1.0418140000000000e+00,	 2.6716639999999997e-01,	 4.5820495065894029e-02,	 1.4785401985791409e+03,	 -3.1666560590523325e+01,	 7.1874133502051995e+02,	 9.4746316927267435e+03,	 5.3804090877449994e+02,	 2.7486372208308709e+00 
1.0424260000000001e+00,	 2.6715339999999999e-01,	 4.5868320253803586e-02,	 1.4784223913671981e+03,	 -3.1711145582462457e+01,	 7.1902565429032200e+02,	 9.4882727302220555e+03,	 5.3814731720362852e+02,	 2.7478766429562702e+00 
1.0430400000000000e+00,	 2.6714040000000000e-01,	 4.5924830296073443e-02,	 1.4782841057560702e+03,	 -3.1681505135111848e+01,	 7.1935792816443768e+02,	 9.5043524311524707e+03,	 5.3827164631455344e+02,	 2.7469839148046757e+00 
1.0436580000000000e+00,	 2.6712740000000001e-01,	 4.5984371536603431e-02,	 1.4781384762540201e+03,	 -3.1620418857816333e+01,	 7.1970887506057772e+02,	 9.5213175789389516e+03,	 5.3840293125765800e+02,	 2.7460412352844563e+00 
1.0442790000000000e+00,	 2.6711429999999997e-01,	 4.6036865644676433e-02,	 1.4780115339763329e+03,	 -3.1620773869139867e+01,	 7.2001977135109223e+02,	 9.5363044403806798e+03,	 5.3851920702347752e+02,	 2.7452126600212101e+00 
1.0449029999999999e+00,	 2.6710109999999998e-01,	 4.6085758775761980e-02,	 1.4778963610911655e+03,	 -3.1657340422802065e+01,	 7.2030848365918530e+02,	 9.5502603180888818e+03,	 5.3862716346216394e+02,	 2.7444501153507557e+00 
1.0455300000000001e+00,	 2.6708779999999999e-01,	 4.6135444088595559e-02,	 1.4777796550744615e+03,	 -3.1664845122362280e+01,	 7.2060561095659250e+02,	 9.5645002370446382e+03,	 5.3873824387854768e+02,	 2.7436679671259263e+00 
1.0461600000000000e+00,	 2.6707449999999999e-01,	 4.6188241386443375e-02,	 1.4776540451241458e+03,	 -3.1639332039299319e+01,	 7.2092492736925010e+02,	 9.5796889230179786e+03,	 5.3885759412204152e+02,	 2.7428262142310675e+00 
1.0467930000000001e+00,	 2.6706110000000000e-01,	 4.6239382365107745e-02,	 1.4775316946492162e+03,	 -3.1610727235060327e+01,	 7.2123906725759821e+02,	 9.5944747657323169e+03,	 5.3897498375697580e+02,	 2.7420007326546747e+00 
1.0474300000000001e+00,	 2.6704770000000000e-01,	 4.6293694429111271e-02,	 1.4774043181174125e+03,	 -3.1551293288797226e+01,	 7.2156651162766411e+02,	 9.6101053198579884e+03,	 5.3909731787995349e+02,	 2.7411399273823229e+00 
1.0480700000000001e+00,	 2.6703420000000000e-01,	 4.6341452835407367e-02,	 1.4772947577776781e+03,	 -3.1542713238959401e+01,	 7.2185738833227038e+02,	 9.6238974910505985e+03,	 5.3920596694321500e+02,	 2.7403841107658056e+00 
1.0487139999999999e+00,	 2.6702060000000000e-01,	 4.6386026615792622e-02,	 1.4771921373137643e+03,	 -3.1557986954385701e+01,	 7.2213531627550947e+02,	 9.6368632254636159e+03,	 5.3930975890118486e+02,	 2.7396670817157518e+00 
1.0493610000000000e+00,	 2.6700689999999999e-01,	 4.6426754599845965e-02,	 1.4770980175053851e+03,	 -3.1597902523491999e+01,	 7.2239933618211376e+02,	 9.6488510373872032e+03,	 5.3940833841715585e+02,	 2.7389935284344107e+00 
1.0500110000000000e+00,	 2.6699309999999998e-01,	 4.6469418288449665e-02,	 1.4770064460734206e+03,	 -3.1599408601807458e+01,	 7.2266806958508687e+02,	 9.6613104945393861e+03,	 5.3950865935640286e+02,	 2.7383145834916180e+00 
1.0506650000000000e+00,	 2.6697929999999997e-01,	 4.6516333249750685e-02,	 1.4769034253124380e+03,	 -3.1558050789712070e+01,	 7.2296441541269974e+02,	 9.6750302677024683e+03,	 5.3961926667362150e+02,	 2.7375607947663254e+00 
1.0513220000000001e+00,	 2.6696539999999996e-01,	 4.6560334084819049e-02,	 1.4768030253553907e+03,	 -3.1520046852472106e+01,	 7.2325340362300108e+02,	 9.6880531207543136e+03,	 5.3972710602380414e+02,	 2.7368263397902686e+00 
1.0519829999999999e+00,	 2.6695150000000001e-01,	 4.6604577261566152e-02,	 1.4767057334412029e+03,	 -3.1490821066323981e+01,	 7.2353835407682266e+02,	 9.7010795981648298e+03,	 5.3983341754461026e+02,	 2.7361060262520769e+00 
1.0526480000000000e+00,	 2.6693739999999999e-01,	 4.6640685568139842e-02,	 1.4766272329856251e+03,	 -3.1514780107244597e+01,	 7.2378424898432831e+02,	 9.7118952747784770e+03,	 5.3992514109410070e+02,	 2.7354967993243196e+00 
1.0533159999999999e+00,	 2.6692329999999997e-01,	 4.6681965970842496e-02,	 1.4765388523424306e+03,	 -3.1494453869960473e+01,	 7.2405705918263357e+02,	 9.7241548760331043e+03,	 5.4002688633638547e+02,	 2.7348169852032820e+00 
1.0539879999999999e+00,	 2.6690910000000001e-01,	 4.6719683028979692e-02,	 1.4764572884514166e+03,	 -3.1490135918246516e+01,	 7.2431755528382507e+02,	 9.7355128966718657e+03,	 5.4012402111752397e+02,	 2.7341740157054142e+00 
1.0546640000000000e+00,	 2.6689479999999999e-01,	 4.6755411640148903e-02,	 1.4763812666352978e+03,	 -3.1499136262013060e+01,	 7.2456885033370918e+02,	 9.7463383007829943e+03,	 5.4021770842448132e+02,	 2.7335595042392358e+00 
1.0553440000000001e+00,	 2.6688039999999996e-01,	 4.6792161857038904e-02,	 1.4762995103920478e+03,	 -3.1487170579111286e+01,	 7.2483359128812378e+02,	 9.7575629083474250e+03,	 5.4031639103427256e+02,	 2.7329085011741938e+00 
1.0560270000000000e+00,	 2.6686599999999999e-01,	 4.6833116425667037e-02,	 1.4762138497222809e+03,	 -3.1436353072768110e+01,	 7.2511255564889780e+02,	 9.7698618073109119e+03,	 5.4042035594331855e+02,	 2.7322222750319498e+00 
1.0567150000000001e+00,	 2.6685149999999996e-01,	 4.6865853844435840e-02,	 1.4761565398493308e+03,	 -3.1401402028423036e+01,	 7.2534915344660635e+02,	 9.7798812116497593e+03,	 5.4050851593770653e+02,	 2.7316692526244148e+00 
1.0000000000000000e+00,	 2.6872979999999996e-01,	 2.7669914298828445e-02,	 1.5927714083220794e+03,	 4.2461610546130589e+02,	 4.5940110361442032e+02,	 3.6570406319987110e+03,	 4.3015502800282962e+02,	 3.8321046917799326e+00 
1.0004999999999999e+00,	 2.6871940000000000e-01,	 2.5177029349554049e-02,	 1.6023575530029734e+03,	 3.9353681988570429e+02,	 4.5614884952960836e+02,	 3.3040073706959724e+03,	 4.2862971799687000e+02,	 3.8494205555601901e+00 
1.0009999999999999e+00,	 2.6870909999999998e-01,	 2.2239849532558226e-02,	 1.6167017103854905e+03,	 3.5320964874437470e+02,	 4.4886220077459325e+02,	 2.8719363900762046e+03,	 4.2519241036494975e+02,	 3.8919692472536793e+00 
1.0014989999999999e+00,	 2.6869870000000001e-01,	 1.9098426481735951e-02,	 1.6314544411695865e+03,	 3.0594238877804497e+02,	 4.3927517476516721e+02,	 2.4135938185462551e+03,	 4.2062716476272215e+02,	 3.9462331697740374e+00 
1.0019990000000001e+00,	 2.6868839999999999e-01,	 1.6476217924116968e-02,	 1.6442456708082748e+03,	 2.5808299305088423e+02,	 4.2885425228412510e+02,	 2.0328118592516187e+03,	 4.1560795047155824e+02,	 4.0046802660942467e+00 
1.0024999999999999e+00,	 2.6867799999999997e-01,	 1.4449958467590316e-02,	 1.6548494183026337e+03,	 2.1459337180395465e+02,	 4.1849695982594670e+02,	 1.7397580060263481e+03,	 4.1055858725516964e+02,	 4.0644751132748080e+00 
1.0029999999999999e+00,	 2.6866770000000001e-01,	 1.2915506331852690e-02,	 1.6635389960242046e+03,	 1.7657621118453818e+02,	 4.0876169050800729e+02,	 1.5188383722854198e+03,	 4.0575518653244853e+02,	 4.1228901980302419e+00 
1.0035000000000001e+00,	 2.6865729999999999e-01,	 1.1748662073732149e-02,	 1.6706253800312013e+03,	 1.4356050808299540e+02,	 3.9991811955851182e+02,	 1.3517283783661048e+03,	 4.0134192316342654e+02,	 4.1779394897376152e+00 
1.0040009999999999e+00,	 2.6864689999999997e-01,	 1.0860972970356497e-02,	 1.6762751080509568e+03,	 1.1462855308464272e+02,	 3.9218301187157186e+02,	 1.2254270080256897e+03,	 3.9744164830762378e+02,	 4.2275132976906376e+00 
1.0045020000000000e+00,	 2.6863660000000000e-01,	 1.0201221627055255e-02,	 1.6805054310545388e+03,	 8.8567029802067253e+01,	 3.8571288298128127e+02,	 1.1319995785352135e+03,	 3.9414957166931066e+02,	 4.2695407801051530e+00 
1.0050040000000000e+00,	 2.6862619999999998e-01,	 9.7442776310907621e-03,	 1.6830137656207160e+03,	 6.3535841914882134e+01,	 3.8174451461880489e+02,	 1.0701690630081832e+03,	 3.9211674532405448e+02,	 4.2951815673543390e+00 
1.0055050000000001e+00,	 2.6861580000000002e-01,	 9.4994531906717854e-03,	 1.6834863989080129e+03,	 3.6759315426365056e+01,	 3.8039925930994525e+02,	 1.0396046351631271e+03,	 3.9142523221192778e+02,	 4.3019395189505021e+00 
1.0060070000000001e+00,	 2.6860539999999999e-01,	 9.4599514342649654e-03,	 1.6814994203933295e+03,	 4.8188259806241973e+00,	 3.8287750175936173e+02,	 1.0420263274666522e+03,	 3.9269819976136478e+02,	 4.2819303125788259e+00 
1.0065100000000000e+00,	 2.6859499999999997e-01,	 9.6533281914447325e-03,	 1.6765841831014250e+03,	 -3.2656386078742138e+01,	 3.8948653226448107e+02,	 1.0816816296872666e+03,	 3.9607297379668023e+02,	 4.2338212987283166e+00 
1.0070129999999999e+00,	 2.6858460000000001e-01,	 1.0082082356471287e-02,	 1.6686696946919542e+03,	 -7.2752090660004981e+01,	 4.0004771122769876e+02,	 1.1603579128928882e+03,	 4.0140694441956464e+02,	 4.1610014947195912e+00 
1.0075160000000001e+00,	 2.6857409999999998e-01,	 1.0719421716141202e-02,	 1.6582605380884434e+03,	 -1.1295200856046388e+02,	 4.1338772760223139e+02,	 1.2748493705395024e+03,	 4.0804473289094665e+02,	 4.0733351066458763e+00 
1.0080199999999999e+00,	 2.6856370000000002e-01,	 1.1547722818268238e-02,	 1.6460449153839520e+03,	 -1.5067830552119807e+02,	 4.2829824089992906e+02,	 1.4228941014986663e+03,	 4.1533844434082442e+02,	 3.9797111662953419e+00 
1.0085249999999999e+00,	 2.6855329999999999e-01,	 1.2552501935140816e-02,	 1.6329043315226581e+03,	 -1.8351283547739672e+02,	 4.4389109662653857e+02,	 1.6030116133145502e+03,	 4.2283137331328885e+02,	 3.8861448339776348e+00 
1.0090300000000001e+00,	 2.6854279999999997e-01,	 1.3713517679577542e-02,	 1.6197605887187863e+03,	 -2.0979990741296712e+02,	 4.5961744601060030e+02,	 1.8133235980365412e+03,	 4.3025630095932371e+02,	 3.7960891317446563e+00 
1.0095360000000000e+00,	 2.6853230000000000e-01,	 1.5015538590912574e-02,	 1.6072969960187513e+03,	 -2.2917980543889331e+02,	 4.7677097540393191e+02,	 2.0595894604925857e+03,	 4.3821162148047841e+02,	 3.7049538249458358e+00 
1.0100420000000001e+00,	 2.6852179999999998e-01,	 1.6438565009366218e-02,	 1.5959770133810989e+03,	 -2.4290395556717948e+02,	 4.9293599801041461e+02,	 2.3312259877324755e+03,	 4.4557852755789298e+02,	 3.6230558613841750e+00 
1.0105489999999999e+00,	 2.6851130000000001e-01,	 1.7965964156688129e-02,	 1.5858906970445191e+03,	 -2.5134916400006949e+02,	 5.0727802070036228e+02,	 2.6219627174302691e+03,	 4.5201412822339609e+02,	 3.5522903629132521e+00 
1.0110570000000001e+00,	 2.6850079999999998e-01,	 1.9631844742277763e-02,	 1.5768161906698492e+03,	 -2.5191784052611467e+02,	 5.2220277853839877e+02,	 2.9493765746442523e+03,	 4.5861533849819898e+02,	 3.4818134283148860e+00 
1.0115660000000000e+00,	 2.6849030000000002e-01,	 2.1358487509091612e-02,	 1.5686851052647917e+03,	 -2.4399982177889535e+02,	 5.3770560477672677e+02,	 3.3040377139574812e+03,	 4.6537309158106507e+02,	 3.4113447856640207e+00 
1.0120750000000001e+00,	 2.6847969999999999e-01,	 2.3103254049540202e-02,	 1.5612150627730134e+03,	 -2.3032604966226447e+02,	 5.5383739030658296e+02,	 3.6811656718635531e+03,	 4.7230236762483401e+02,	 3.3413205537204202e+00 
1.0125860000000000e+00,	 2.6846919999999996e-01,	 2.4922283508830093e-02,	 1.5540401169275622e+03,	 -2.1269961560989645e+02,	 5.7043956219985716e+02,	 4.0900386073578702e+03,	 4.7932911078952736e+02,	 3.2723415175111028e+00 
1.0130969999999999e+00,	 2.6845859999999999e-01,	 2.6789763293509936e-02,	 1.5472455259001708e+03,	 -1.9279915117662983e+02,	 5.8663355737203278e+02,	 4.5213248989624954e+03,	 4.8608524434890103e+02,	 3.2076913072868374e+00 
1.0136090000000000e+00,	 2.6844799999999996e-01,	 2.8668178045557768e-02,	 1.5408956806387007e+03,	 -1.7226378223368675e+02,	 6.0173669634831526e+02,	 4.9629114659719799e+03,	 4.9230271995897738e+02,	 3.1494744932778627e+00 
1.0141220000000000e+00,	 2.6843729999999999e-01,	 3.0496945687280366e-02,	 1.5351049504697585e+03,	 -1.5240009826399557e+02,	 6.1530180819008910e+02,	 5.3985170226749442e+03,	 4.9782085027777043e+02,	 3.0988081113162762e+00 
1.0146360000000001e+00,	 2.6842669999999996e-01,	 3.2249749574687910e-02,	 1.5299404991733154e+03,	 -1.3419535555672701e+02,	 6.2703926789152410e+02,	 5.8176959922540818e+03,	 5.0254661968464200e+02,	 3.0560638304819028e+00 