TITLE = "Final State"
VARIABLES = "X", "Y", "rho", "u", "v", "T", "p", "c", "M"
ZONE I=73, J=21, DATAPACKING=POINT, STRANDID=24000, SOLUTIONTIME=0.000579
5.2554400000000001e-01,	 3.0203999999999998e-01,	 1.1640838906748703e-02,	 1.7357266670536808e+03,	 2.0048640768907409e+00,	 3.0045158097048835e+02,	 1.0062101880301416e+03,	 3.4786940420393188e+02,	 4.9895961068837922e+00 
5.3004200000000001e-01,	 3.0203999999999998e-01,	 1.1658074667799225e-02,	 1.7356698786484144e+03,	 2.5733360540572194e+00,	 3.0059671860629487e+02,	 1.0081867963704385e+03,	 3.4795341582211807e+02,	 4.9882303416510814e+00 
5.3454000000000002e-01,	 3.0203999999999998e-01,	 1.1669891493289272e-02,	 1.7356138308656459e+03,	 2.8706093998544859e+00,	 3.0067799363873007e+02,	 1.0094815807065544e+03,	 3.4800045228674094e+02,	 4.9873964053029978e+00 
5.3903800000000002e-01,	 3.0203999999999998e-01,	 1.1672026656131214e-02,	 1.7356122924633253e+03,	 2.8346676984401871e+00,	 3.0066874219716925e+02,	 1.0096352128529052e+03,	 3.4799509850182670e+02,	 4.9874685441753925e+00 
5.4353600000000002e-01,	 3.0203999999999998e-01,	 1.1668240710581892e-02,	 1.7356454351312468e+03,	 2.6193223867267186e+00,	 3.0060676321445578e+02,	 1.0090996712029169e+03,	 3.4795922930294972e+02,	 4.9880769510322738e+00 
5.4803400000000002e-01,	 3.0203999999999998e-01,	 1.1661206428775796e-02,	 1.7356966743090534e+03,	 2.3173177805619707e+00,	 3.0051697407698521e+02,	 1.0081900989917596e+03,	 3.4790725892792932e+02,	 4.9889681134424517e+00 
5.5253200000000002e-01,	 3.0203999999999998e-01,	 1.1652566840977992e-02,	 1.7357551677290221e+03,	 1.9871854259989070e+00,	 3.0041660275529756e+02,	 1.0071066667490003e+03,	 3.4784915434370225e+02,	 4.9899684491735403e+00 
5.5703000000000003e-01,	 3.0203999999999998e-01,	 1.1643534825427047e-02,	 1.7358137945410795e+03,	 1.6630167700299272e+00,	 3.0031691934200603e+02,	 1.0059921324289061e+03,	 3.4779143837927433e+02,	 4.9909641228267256e+00 
5.6152800000000003e-01,	 3.0203999999999998e-01,	 1.1635039781579100e-02,	 1.7358686462186547e+03,	 1.3660130144031961e+00,	 3.0022393930240548e+02,	 1.0049469330484200e+03,	 3.4773759498417292e+02,	 4.9918939129322819e+00 
5.6602600000000003e-01,	 3.0203999999999998e-01,	 1.1627422812610562e-02,	 1.7359179815711100e+03,	 1.1064723263393272e+00,	 3.0014044114907745e+02,	 1.0040097243135382e+03,	 3.4768923530605451e+02,	 4.9927295927789794e+00 
5.7052400000000003e-01,	 3.0203999999999998e-01,	 1.1620873182902365e-02,	 1.7359606414023808e+03,	 8.8724917841753570e-01,	 3.0006824790523012e+02,	 1.0032028140832621e+03,	 3.4764741767691834e+02,	 4.9934525035135122e+00 
5.7502200000000003e-01,	 3.0203999999999998e-01,	 1.1615410026666748e-02,	 1.7359963365813826e+03,	 7.0698172136890458e-01,	 3.0000778535618292e+02,	 1.0025291462618701e+03,	 3.4761239113189134e+02,	 4.9940581084789040e+00 
5.7952000000000004e-01,	 3.0203999999999998e-01,	 1.1610970461861100e-02,	 1.7360254366106701e+03,	 5.6216438059923046e-01,	 2.9995840920049591e+02,	 1.0019810301321322e+03,	 3.4758378442457445e+02,	 4.9945526961375499e+00 
5.8401800000000004e-01,	 3.0203999999999998e-01,	 1.1607447169374965e-02,	 1.7360486305911872e+03,	 4.4836305340446714e-01,	 2.9991895326401743e+02,	 1.0015452252529998e+03,	 3.4756092343065939e+02,	 4.9949478536130600e+00 
5.8851600000000004e-01,	 3.0203999999999998e-01,	 1.1604712901582132e-02,	 1.7360667304799213e+03,	 3.6077812313438939e-01,	 2.9988803817475707e+02,	 1.0012060866416306e+03,	 3.4754301000144943e+02,	 4.9952573293301592e+00 
5.9301400000000004e-01,	 3.0203999999999998e-01,	 1.1602640282670908e-02,	 1.7360805639461787e+03,	 2.9474374111299606e-01,	 2.9986427089487881e+02,	 1.0009479344923792e+03,	 3.4752923766876921e+02,	 4.9954950570833869e+00 
5.9751200000000004e-01,	 3.0203999999999998e-01,	 1.1601110020847950e-02,	 1.7360909171018006e+03,	 2.4606755000163624e-01,	 2.9984633716166070e+02,	 1.0007560654009106e+03,	 3.4751884531725057e+02,	 4.9956742143157840e+00 
6.0201000000000005e-01,	 3.0203999999999998e-01,	 1.1600014033313379e-02,	 1.7360984902351092e+03,	 2.1112218349529871e-01,	 2.9983305920950704e+02,	 1.0006172095133509e+03,	 3.4751115072653272e+02,	 4.9958066077663625e+00 
6.0650800000000005e-01,	 3.0203999999999998e-01,	 1.1599260665939514e-02,	 1.7361038837411916e+03,	 1.8687919055694913e-01,	 2.9982343215323556e+02,	 1.0005200982581879e+03,	 3.4750557172822829e+02,	 4.9959023251490251e+00 
6.1100600000000005e-01,	 3.0203999999999998e-01,	 1.1598774550168747e-02,	 1.7361075991057187e+03,	 1.7088162929043788e-01,	 2.9981662188827454e+02,	 1.0004554421451062e+03,	 3.4750162504127161e+02,	 4.9959697521106463e+00 
6.1550400000000005e-01,	 3.0203999999999998e-01,	 1.1598493998597359e-02,	 1.7361100362204220e+03,	 1.6116826797530315e-01,	 2.9981195764752329e+02,	 1.0004156794059105e+03,	 3.4749892199309789e+02,	 4.9960156242895346e+00 
6.2000200000000005e-01,	 3.0203999999999998e-01,	 1.1598370982936784e-02,	 1.7361115147343198e+03,	 1.5621303872195430e-01,	 2.9980891105000535e+02,	 1.0003949030111658e+03,	 3.4749715639967212e+02,	 4.9960452619228404e+00 
6.2450000000000006e-01,	 3.0203999999999998e-01,	 1.1598371557576002e-02,	 1.7361122724325783e+03,	 1.5495720308873359e-01,	 2.9980709105624965e+02,	 1.0003888796654427e+03,	 3.4749610165514775e+02,	 4.9960626063968245e+00 
6.2899799999999995e-01,	 3.0203999999999998e-01,	 1.1598465004639555e-02,	 1.7361125359936934e+03,	 1.5644685517411966e-01,	 2.9980615964400567e+02,	 1.0003938317726476e+03,	 3.4749556187075831e+02,	 4.9960711259051029e+00 
6.3349599999999995e-01,	 3.0203999999999998e-01,	 1.1598624135066442e-02,	 1.7361124422799567e+03,	 1.5985303164143494e-01,	 2.9980580230463772e+02,	 1.0004063647446511e+03,	 3.4749535478048102e+02,	 4.9960738345292288e+00 
6.3799399999999995e-01,	 3.0203999999999998e-01,	 1.1598837170221116e-02,	 1.7361121478681125e+03,	 1.6434001773531537e-01,	 2.9980584558234932e+02,	 1.0004248839003253e+03,	 3.4749537986138859e+02,	 4.9960726278974450e+00 
6.4249199999999995e-01,	 3.0203999999999998e-01,	 1.1599092749901275e-02,	 1.7361116850506082e+03,	 1.7071079318141796e-01,	 2.9980617972516529e+02,	 1.0004480432313395e+03,	 3.4749557350846737e+02,	 4.9960685136648166e+00 
6.4698999999999995e-01,	 3.0203999999999998e-01,	 1.1599398917380748e-02,	 1.7361110479831532e+03,	 1.7878817736078628e-01,	 2.9980687972910243e+02,	 1.0004767868331888e+03,	 3.4749597918410723e+02,	 4.9960608501582797e+00 
6.5148799999999996e-01,	 3.0203999999999998e-01,	 1.1599739336572540e-02,	 1.7361103476788451e+03,	 1.8723247762509881e-01,	 2.9980776633663686e+02,	 1.0005091075876742e+03,	 3.4749649300207875e+02,	 4.9960514501209428e+00 
6.5598599999999996e-01,	 3.0203999999999998e-01,	 1.1600107200992915e-02,	 1.7361096224346775e+03,	 1.9653975938723123e-01,	 2.9980876497297345e+02,	 1.0005441696194030e+03,	 3.4749707174348362e+02,	 4.9960410453216193e+00 
6.6048399999999996e-01,	 3.0203999999999998e-01,	 1.1600503024843604e-02,	 1.7361088770473320e+03,	 2.0660332106614118e-01,	 2.9980987153227619e+02,	 1.0005820036364413e+03,	 3.4749771302854185e+02,	 4.9960296837925160e+00 
6.6498199999999996e-01,	 3.0203999999999998e-01,	 1.1600926802990246e-02,	 1.7361081301463187e+03,	 2.1736496173239389e-01,	 2.9981106924623839e+02,	 1.0006225532951064e+03,	 3.4749840713918758e+02,	 4.9960175588898341e+00 
6.6947999999999996e-01,	 3.0203999999999998e-01,	 1.1601376728981892e-02,	 1.7361073989449728e+03,	 2.2880139019169812e-01,	 2.9981233532990552e+02,	 1.0006655867959635e+03,	 3.4749914087059091e+02,	 4.9960049100333039e+00 
6.7397799999999997e-01,	 3.0203999999999998e-01,	 1.1601851722640853e-02,	 1.7361067013073571e+03,	 2.4088738990228742e-01,	 2.9981364873698783e+02,	 1.0007109407762224e+03,	 3.4749990202561872e+02,	 4.9959919640239434e+00 
6.7847599999999997e-01,	 3.0203999999999998e-01,	 1.1602351614549554e-02,	 1.7361060567041866e+03,	 2.5359906862690240e-01,	 2.9981499108067345e+02,	 1.0007585392969071e+03,	 3.4750067994847024e+02,	 4.9959789301237585e+00 
6.8297399999999997e-01,	 3.0203999999999998e-01,	 1.1602875157957247e-02,	 1.7361054822291808e+03,	 2.6690085868142038e-01,	 2.9981634634435659e+02,	 1.0008082213960520e+03,	 3.4750146535702754e+02,	 4.9959659909967211e+00 
6.8747199999999997e-01,	 3.0203999999999998e-01,	 1.1603421474440217e-02,	 1.7361050289254581e+03,	 2.8074558565534430e-01,	 2.9981769717746954e+02,	 1.0008598534180563e+03,	 3.4750224819619422e+02,	 4.9959534381054373e+00 
6.9196999999999997e-01,	 3.0203999999999998e-01,	 1.1603990227875519e-02,	 1.7361046835185039e+03,	 2.9509196261801979e-01,	 2.9981902535644190e+02,	 1.0009133455573556e+03,	 3.4750301790504079e+02,	 4.9959413850956427e+00 
6.9646799999999998e-01,	 3.0203999999999998e-01,	 1.1604579347117446e-02,	 1.7361043980728257e+03,	 3.0989018044608352e-01,	 2.9982030831576458e+02,	 1.0009684438427722e+03,	 3.4750376140648973e+02,	 4.9959298820346643e+00 
7.0096599999999998e-01,	 3.0203999999999998e-01,	 1.1605186988732065e-02,	 1.7361041923554044e+03,	 3.2507606027926872e-01,	 2.9982152106030014e+02,	 1.0010249058131950e+03,	 3.4750446421555546e+02,	 4.9959191940419734e+00 
7.0546399999999998e-01,	 3.0203999999999998e-01,	 1.1605811707728711e-02,	 1.7361040711165608e+03,	 3.4058231257348548e-01,	 2.9982263725962287e+02,	 1.0010825188955417e+03,	 3.4750511107353486e+02,	 4.9959095541367740e+00 
7.0996199999999998e-01,	 3.0203999999999998e-01,	 1.1606450747471070e-02,	 1.7361040254284662e+03,	 3.5632593018949166e-01,	 2.9982363175161458e+02,	 1.0011409612553995e+03,	 3.4750568739886944e+02,	 4.9959011462242211e+00 
7.1445999999999998e-01,	 3.0203999999999998e-01,	 1.1607101563482661e-02,	 1.7361040035919757e+03,	 3.7221423288049094e-01,	 2.9982447743816306e+02,	 1.0011999228692854e+03,	 3.4750617748812027e+02,	 4.9958940472417872e+00 
7.1895799999999999e-01,	 3.0203999999999998e-01,	 1.1607761545749554e-02,	 1.7361041273944988e+03,	 3.8815825230128342e-01,	 2.9982514116805635e+02,	 1.0012590678206299e+03,	 3.4750656213001548e+02,	 4.9958888837822197e+00 
7.2345599999999999e-01,	 3.0203999999999998e-01,	 1.1608427278489104e-02,	 1.7361044622088830e+03,	 4.0405964117293275e-01,	 2.9982559655557793e+02,	 1.0013180132533968e+03,	 3.4750682603398855e+02,	 4.9958860637153277e+00 
7.2795399999999999e-01,	 3.0203999999999998e-01,	 1.1609095845319429e-02,	 1.7361050804957742e+03,	 4.1982078708598281e-01,	 2.9982582370236770e+02,	 1.0013764410313416e+03,	 3.4750695766892215e+02,	 4.9958859612526991e+00 
7.3245199999999999e-01,	 3.0203999999999998e-01,	 1.1609765383190879e-02,	 1.7361061513254076e+03,	 4.3535927306074895e-01,	 2.9982578766915890e+02,	 1.0014340736215266e+03,	 3.4750693678714657e+02,	 4.9958893539319806e+00 
7.3694999999999999e-01,	 3.0203999999999998e-01,	 1.1610434136393673e-02,	 1.7361074803358624e+03,	 4.5060862304102467e-01,	 2.9982549775598920e+02,	 1.0014907904925468e+03,	 3.4750676877814595e+02,	 4.9958956049060586e+00 
7.4144800000000000e-01,	 3.0203999999999998e-01,	 1.1611101183550934e-02,	 1.7361090441965039e+03,	 4.6554354490105909e-01,	 2.9982494829001826e+02,	 1.0015464930724728e+03,	 3.4750645035420769e+02,	 4.9959046942738974e+00 
7.4594600000000000e-01,	 3.0203999999999998e-01,	 1.1611769546283009e-02,	 1.7361108168946189e+03,	 4.8024778017845204e-01,	 2.9982416611488065e+02,	 1.0016015315245469e+03,	 3.4750599707124297e+02,	 4.9959163236035575e+00 
7.5044400000000000e-01,	 3.0203999999999998e-01,	 1.1612448541641993e-02,	 1.7361127351132486e+03,	 4.9502336747495068e-01,	 2.9982324441211836e+02,	 1.0016570206792312e+03,	 3.4750546292903601e+02,	 4.9959295346144668e+00 
7.5494200000000000e-01,	 3.0203999999999998e-01,	 1.1613164366280744e-02,	 1.7361146577031186e+03,	 5.1064807155776548e-01,	 2.9982241722004392e+02,	 1.0017160020168725e+03,	 3.4750498355665849e+02,	 4.9959419719205256e+00 
7.5944000000000000e-01,	 3.0203999999999998e-01,	 1.1613979790707739e-02,	 1.7361166593341081e+03,	 5.2900792988746859e-01,	 2.9982222356372279e+02,	 1.0017856909741365e+03,	 3.4750487132931374e+02,	 4.9959493611968337e+00 
7.6393800000000001e-01,	 3.0203999999999998e-01,	 1.1615042438954471e-02,	 1.7361168172407210e+03,	 5.5447204409766782e-01,	 2.9982394320135825e+02,	 1.0018830979910190e+03,	 3.4750586788919395e+02,	 4.9959355113292965e+00 
7.6843600000000001e-01,	 3.0203999999999998e-01,	 1.1616679343135131e-02,	 1.7361147449426635e+03,	 5.9693385134449783e-01,	 2.9983036834078212e+02,	 1.0020457661401047e+03,	 3.4750959134380895e+02,	 4.9958760587067230e+00 
7.7293400000000001e-01,	 3.0203999999999998e-01,	 1.1619642013495950e-02,	 1.7361063788151414e+03,	 6.7886988082830868e-01,	 2.9984790470750772e+02,	 1.0023599460175329e+03,	 3.4751975370088451e+02,	 4.9957059794612828e+00 
7.7743200000000001e-01,	 3.0203999999999998e-01,	 1.1625639801488168e-02,	 1.7360833796868651e+03,	 8.5155328161536459e-01,	 2.9989114987773775e+02,	 1.0030219794927709e+03,	 3.4754481308739679e+02,	 4.9952798118578121e+00 
7.8193000000000001e-01,	 3.0203999999999998e-01,	 1.1638565094471668e-02,	 1.7360265679106769e+03,	 1.2319109689319354e+00,	 2.9999354361681765e+02,	 1.0044799801910524e+03,	 3.4760414023963034e+02,	 4.9942644636087037e+00 
7.8642800000000002e-01,	 3.0203999999999998e-01,	 1.1667281556259877e-02,	 1.7358917161441309e+03,	 2.0825428890800106e+00,	 3.0021491638358071e+02,	 1.0077014479031808e+03,	 3.4773236949870051e+02,	 4.9920373184000626e+00 
7.9092600000000002e-01,	 3.0203999999999998e-01,	 1.1731255522557830e-02,	 1.7355735361040101e+03,	 4.0011888222435488e+00,	 3.0076512066188809e+02,	 1.0150838125083177e+03,	 3.4805086842620216e+02,	 4.9865646252035125e+00 
7.9542400000000002e-01,	 3.0203999999999998e-01,	 1.1871563939708642e-02,	 1.7348266148105317e+03,	 8.2735951216033214e+00,	 3.0204928276268902e+02,	 1.0316103298406181e+03,	 3.4879310486815905e+02,	 4.9738550429065125e+00 
7.9992200000000002e-01,	 3.0203999999999998e-01,	 1.2164993764818544e-02,	 1.7331040774414164e+03,	 1.7306782613877793e+01,	 3.0488270102283718e+02,	 1.0670250406063853e+03,	 3.5042523900424186e+02,	 4.9459636326546219e+00 
8.0442000000000002e-01,	 3.0203999999999998e-01,	 1.2728022243483871e-02,	 1.7293668001853084e+03,	 3.4654923738515187e+01,	 3.1076931134519742e+02,	 1.1379652192398919e+03,	 3.5379203334100475e+02,	 4.8890699302494083e+00 
8.0891800000000003e-01,	 3.0203999999999998e-01,	 1.3685420439452152e-02,	 1.7222398782826499e+03,	 6.3304365148155071e+01,	 3.2143333788315385e+02,	 1.2655491016433546e+03,	 3.5981100776824059e+02,	 4.7897448591889411e+00 
8.1341600000000003e-01,	 3.0203999999999998e-01,	 1.5090659567091947e-02,	 1.7109485219459361e+03,	 1.0243832571706514e+02,	 3.3739879016596365e+02,	 1.4648112957783674e+03,	 3.6863854821927328e+02,	 4.6495744764134379e+00 
8.1791400000000003e-01,	 3.0203999999999998e-01,	 1.6848685313419445e-02,	 1.6963658322461988e+03,	 1.4642586507767302e+02,	 3.5687072326898829e+02,	 1.7298437527225562e+03,	 3.7912676669659299e+02,	 4.4910404730026690e+00 
8.2241200000000003e-01,	 3.0203999999999998e-01,	 1.8732946640008900e-02,	 1.6807469104566342e+03,	 1.8825005715634870e+02,	 3.7667146966179257e+02,	 2.0300127241077255e+03,	 3.8950258998987687e+02,	 4.3420928599476483e+00 
8.2691000000000003e-01,	 3.0203999999999998e-01,	 2.0499465271562944e-02,	 1.6663387937556677e+03,	 2.2340011146682690e+02,	 3.9417970902511968e+02,	 2.3246990315081730e+03,	 3.9845209889155097e+02,	 4.2194465404976063e+00 
8.3140800000000004e-01,	 3.0203999999999998e-01,	 2.1989229453184198e-02,	 1.6543992825615351e+03,	 2.5064075228960502e+02,	 4.0822844155088916e+02,	 2.5825171101662268e+03,	 4.0549043674436842e+02,	 4.1265524471374517e+00 
8.3590600000000004e-01,	 3.0203999999999998e-01,	 2.3151121340791128e-02,	 1.6451841610180722e+03,	 2.7075086139784526e+02,	 4.1881596023021751e+02,	 2.7894924615961299e+03,	 4.1071503212770858e+02,	 4.0595404669107555e+00 
8.4040400000000004e-01,	 3.0203999999999998e-01,	 2.4009895591716165e-02,	 1.6383728441742146e+03,	 2.8523188111115405e+02,	 4.2650127167030712e+02,	 2.9460528899807555e+03,	 4.1446623097753985e+02,	 4.0124286418845108e+00 
8.4490200000000004e-01,	 3.0203999999999998e-01,	 2.4711222931061080e-02,	 1.6334838326733998e+03,	 2.9650732970148033e+02,	 4.3162981421913423e+02,	 3.0685670087827652e+03,	 4.1695069706700036e+02,	 3.9817093886741586e+00 
8.4940000000000004e-01,	 3.0203999999999998e-01,	 2.5189183439364365e-02,	 1.6313485691655378e+03,	 3.0369345812716176e+02,	 4.3380236281147467e+02,	 3.1436626830337564e+03,	 4.1799871161310102e+02,	 3.9698106744545631e+00 
5.2554400000000001e-01,	 3.0454399999999998e-01,	 1.1615420224772067e-02,	 1.7358127233787948e+03,	 9.5282417113347906e-01,	 3.0025144217037177e+02,	 1.0033442495742670e+03,	 3.4775352236518836e+02,	 4.9915036750327033e+00 
5.3004200000000001e-01,	 3.0452869999999999e-01,	 1.1631014541651441e-02,	 1.7357568357178122e+03,	 1.4703601766653904e+00,	 3.0039542124051724e+02,	 1.0051730703021436e+03,	 3.4783689120342524e+02,	 4.9901476881411897e+00 
5.3454000000000002e-01,	 3.0451329999999999e-01,	 1.1648214118045733e-02,	 1.7356807187355014e+03,	 1.9935651454655223e+00,	 3.0055067527396216e+02,	 1.0071797625046468e+03,	 3.4792676624926787e+02,	 4.9886413808543031e+00 
5.3903800000000002e-01,	 3.0449799999999999e-01,	 1.1657739999833381e-02,	 1.7356419291935056e+03,	 2.2504777495284292e+00,	 3.0063043442903336e+02,	 1.0082709323711617e+03,	 3.4797292902040073e+02,	 4.9878690077775039e+00 
5.4353600000000002e-01,	 3.0448270000000000e-01,	 1.1661120066238796e-02,	 1.7356336878295260e+03,	 2.3092003919961828e+00,	 3.0065070916135659e+02,	 1.0086312905160509e+03,	 3.4798466259464692e+02,	 4.9876773621086583e+00 
5.4803400000000002e-01,	 3.0446730000000000e-01,	 1.1659907385889071e-02,	 1.7356480768636347e+03,	 2.2322526515903949e+00,	 3.0062765162911347e+02,	 1.0084490534465988e+03,	 3.4797131850268698e+02,	 4.9879096926853119e+00 
5.5253200000000002e-01,	 3.0445200000000000e-01,	 1.1655662376847564e-02,	 1.7356778723466709e+03,	 2.0643520560902546e+00,	 3.0057572826171270e+02,	 1.0079077961442728e+03,	 3.4794126700419901e+02,	 4.9884255320535784e+00 
5.5703000000000003e-01,	 3.0443670000000000e-01,	 1.1649674182527426e-02,	 1.7357166869402226e+03,	 1.8502347028553023e+00,	 3.0050691238297389e+02,	 1.0071593362554958e+03,	 3.4790143468839091e+02,	 4.9891075460748011e+00 
5.6152800000000003e-01,	 3.0442130000000001e-01,	 1.1642680272574204e-02,	 1.7357598510796506e+03,	 1.6170416963241299e+00,	 3.0043019254844012e+02,	 1.0062977109048719e+03,	 3.4785702199241035e+02,	 4.9898679473517218e+00 
5.6602600000000003e-01,	 3.0440600000000001e-01,	 1.1635421988794178e-02,	 1.7358038000233335e+03,	 1.3846291390358516e+00,	 3.0035201373741819e+02,	 1.0054086659941936e+03,	 3.4781175886892396e+02,	 4.9906430936055139e+00 
5.7052400000000003e-01,	 3.0439070000000001e-01,	 1.1628496070002823e-02,	 1.7358458984903925e+03,	 1.1664133841126243e+00,	 3.0027703811211950e+02,	 1.0045593756054874e+03,	 3.4776834475728776e+02,	 4.9913866990726179e+00 
5.7502200000000003e-01,	 3.0437530000000002e-01,	 1.1622158405539835e-02,	 1.7358844808070730e+03,	 9.6996109351370718e-01,	 3.0020835976122498e+02,	 1.0037822449517316e+03,	 3.4772857228185387e+02,	 4.9920682111588341e+00 
5.7952000000000004e-01,	 3.0435999999999996e-01,	 1.1616558336712322e-02,	 1.7359186377184510e+03,	 7.9892134723946617e-01,	 3.0014757673617362e+02,	 1.0030954410440519e+03,	 3.4769336829137609e+02,	 4.9926716465508481e+00 
5.8401800000000004e-01,	 3.0434469999999997e-01,	 1.1611751244178514e-02,	 1.7359480299237187e+03,	 6.5410406049759651e-01,	 3.0009524801733642e+02,	 1.0025055356747164e+03,	 3.4766305796571305e+02,	 4.9931912907695315e+00 
5.8851600000000004e-01,	 3.0432929999999997e-01,	 1.1607732346700223e-02,	 1.7359726930984714e+03,	 5.3432108802367584e-01,	 3.0005129038091434e+02,	 1.0020117673005658e+03,	 3.4763759437360261e+02,	 4.9936278567821191e+00 
5.9301400000000004e-01,	 3.0431399999999997e-01,	 1.1604452267838959e-02,	 1.7359929280056090e+03,	 4.3732696703408569e-01,	 3.0001516200196716e+02,	 1.0016080062800922e+03,	 3.4761666468384999e+02,	 4.9939866509840982e+00 
5.9751200000000004e-01,	 3.0429869999999998e-01,	 1.1601834263552428e-02,	 1.7360092005529150e+03,	 3.6041468135826377e-01,	 2.9998602473986335e+02,	 1.0012847865525380e+03,	 3.4759978413065483e+02,	 4.9942759380811994e+00 
6.0201000000000005e-01,	 3.0428329999999998e-01,	 1.1599791487111377e-02,	 1.7360220351865678e+03,	 3.0071311250953281e-01,	 2.9996294094729683e+02,	 1.0010314519026600e+03,	 3.4758641004817008e+02,	 4.9945049951483735e+00 
6.0650800000000005e-01,	 3.0426799999999998e-01,	 1.1598236461173835e-02,	 1.7360319578370434e+03,	 2.5541144179269198e-01,	 2.9994497659325640e+02,	 1.0008373149464899e+03,	 3.4757600166438544e+02,	 4.9946830860373082e+00 
6.1100600000000005e-01,	 3.0425269999999999e-01,	 1.1597085884580645e-02,	 1.7360394701661512e+03,	 2.2192240785572936e-01,	 2.9993124039703162e+02,	 1.0006921996447342e+03,	 3.4756804282660323e+02,	 4.9948190582547136e+00 
6.1550400000000005e-01,	 3.0423729999999999e-01,	 1.1596267542024022e-02,	 1.7360450233087365e+03,	 1.9797252489456385e-01,	 2.9992093983908222e+02,	 1.0005872218891711e+03,	 3.4756207449949505e+02,	 4.9949207982394732e+00 
6.2000200000000005e-01,	 3.0422199999999999e-01,	 1.1595713779049461e-02,	 1.7360490118317102e+03,	 1.8163453320454973e-01,	 2.9991339155949669e+02,	 1.0005142591535658e+03,	 3.4755770082651975e+02,	 4.9949951251404467e+00 
6.2450000000000006e-01,	 3.0420670000000000e-01,	 1.1595369994144535e-02,	 1.7360517591475268e+03,	 1.7132599520973946e-01,	 2.9990801756865221e+02,	 1.0004666691634397e+03,	 3.4755458696044752e+02,	 4.9950477787793659e+00 
6.2899799999999995e-01,	 3.0419130000000000e-01,	 1.1595196032491640e-02,	 1.7360535594549881e+03,	 1.6576260516378899e-01,	 2.9990434382829255e+02,	 1.0004394043901474e+03,	 3.4755245825906468e+02,	 4.9950835510265508e+00 
6.3349599999999995e-01,	 3.0417600000000000e-01,	 1.1595150227317103e-02,	 1.7360546340455032e+03,	 1.6379448120837439e-01,	 2.9990194460885192e+02,	 1.0004274488638714e+03,	 3.4755106805532245e+02,	 4.9951066227080592e+00 
6.3799399999999995e-01,	 3.0416070000000001e-01,	 1.1595204756232450e-02,	 1.7360551772419826e+03,	 1.6500671554522242e-01,	 2.9990050859908791e+02,	 1.0004273632752224e+03,	 3.4755023597114689e+02,	 4.9951201449559610e+00 
6.4249199999999995e-01,	 3.0414530000000001e-01,	 1.1595338591860949e-02,	 1.7360553190365133e+03,	 1.6818511097802111e-01,	 2.9989980259217288e+02,	 1.0004365553632113e+03,	 3.4754982688045300e+02,	 4.9951264334260834e+00 
6.4698999999999995e-01,	 3.0413000000000001e-01,	 1.1595539182796591e-02,	 1.7360551748047596e+03,	 1.7266764870051687e-01,	 2.9989970077059530e+02,	 1.0004535225162261e+03,	 3.4754976788062311e+02,	 4.9951268676657685e+00 
6.5148799999999996e-01,	 3.0411470000000002e-01,	 1.1595791225387557e-02,	 1.7360547609888742e+03,	 1.7903845507701854e-01,	 2.9990003881235305e+02,	 1.0004763962607726e+03,	 3.4754996375661267e+02,	 4.9951228636487404e+00 
6.5598599999999996e-01,	 3.0409929999999996e-01,	 1.1596086981494072e-02,	 1.7360542024927672e+03,	 1.8681170283268272e-01,	 2.9990072580509411e+02,	 1.0005042057704352e+03,	 3.4755036182952801e+02,	 4.9951155378034802e+00 
6.6048399999999996e-01,	 3.0408399999999997e-01,	 1.1596422030872537e-02,	 1.7360535196369110e+03,	 1.9546195806314901e-01,	 2.9990171819918294e+02,	 1.0005364244917063e+03,	 3.4755093686421390e+02,	 4.9951053111926740e+00 
6.6498199999999996e-01,	 3.0406869999999997e-01,	 1.1596789733435246e-02,	 1.7360527617320981e+03,	 2.0501499053366801e-01,	 2.9990293533383641e+02,	 1.0005722105287541e+03,	 3.4755164212169370e+02,	 4.9950929975166218e+00 
6.6947999999999996e-01,	 3.0405329999999997e-01,	 1.1597186648954828e-02,	 1.7360519542604238e+03,	 2.1540373151534134e-01,	 2.9990433415229865e+02,	 1.0006111235065655e+03,	 3.4755245265241780e+02,	 4.9950790287183642e+00 
6.7397799999999997e-01,	 3.0403799999999997e-01,	 1.1597610403567868e-02,	 1.7360511155235888e+03,	 2.2655805718864866e-01,	 2.9990588905068171e+02,	 1.0006528732746218e+03,	 3.4755335361980087e+02,	 4.9950636707302269e+00 
6.7847599999999997e-01,	 3.0402269999999998e-01,	 1.1598058966914975e-02,	 1.7360502647235467e+03,	 2.3842092600621134e-01,	 2.9990757130273971e+02,	 1.0006971888932401e+03,	 3.4755432837812646e+02,	 4.9950472180757535e+00 
6.8297399999999997e-01,	 3.0400729999999998e-01,	 1.1598531747006115e-02,	 1.7360494213192421e+03,	 2.5093139432445316e-01,	 2.9990936594324717e+02,	 1.0007439694334030e+03,	 3.4755536825541338e+02,	 4.9950298514119327e+00 
6.8747199999999997e-01,	 3.0399199999999998e-01,	 1.1599027332332475e-02,	 1.7360486203752853e+03,	 2.6405601726573813e-01,	 2.9991125550478552e+02,	 1.0007930349018231e+03,	 3.4755646312989290e+02,	 4.9950118171393587e+00 
6.9196999999999997e-01,	 3.0397669999999999e-01,	 1.1599543708902604e-02,	 1.7360478615505906e+03,	 2.7775711758253718e-01,	 2.9991321467105035e+02,	 1.0008441271195779e+03,	 3.4755759833201216e+02,	 4.9949933251406522e+00 
6.9646799999999998e-01,	 3.0396129999999999e-01,	 1.1600080144770562e-02,	 1.7360471293463336e+03,	 2.9198073562267790e-01,	 2.9991522555400047e+02,	 1.0008971233007162e+03,	 3.4755876349653806e+02,	 4.9949744798114475e+00 
7.0096599999999998e-01,	 3.0394599999999999e-01,	 1.1600634865202035e-02,	 1.7360464375298241e+03,	 3.0666976111574451e-01,	 2.9991727157429028e+02,	 1.0009518150400631e+03,	 3.4755994901665946e+02,	 4.9949554588436369e+00 
7.0546399999999998e-01,	 3.0393070000000000e-01,	 1.1601205603767591e-02,	 1.7360457947058380e+03,	 3.2175942060574542e-01,	 2.9991932370640416e+02,	 1.0010079099529729e+03,	 3.4756113807407701e+02,	 4.9949365287017145e+00 
7.0996199999999998e-01,	 3.0391530000000000e-01,	 1.1601791268084865e-02,	 1.7360452067732658e+03,	 3.3717433817184334e-01,	 2.9992136010139961e+02,	 1.0010652408876610e+03,	 3.4756231800898752e+02,	 4.9949178882830978e+00 
7.1445999999999998e-01,	 3.0390000000000000e-01,	 1.1602389240830130e-02,	 1.7360446515264052e+03,	 3.5282611945674747e-01,	 2.9992336160335543e+02,	 1.0011235180829050e+03,	 3.4756347772215111e+02,	 4.9948996331762183e+00 
7.1895799999999999e-01,	 3.0388470000000001e-01,	 1.1602996484146293e-02,	 1.7360441999483828e+03,	 3.6862381524709148e-01,	 2.9992529131875631e+02,	 1.0011823562613082e+03,	 3.4756459583698108e+02,	 4.9948822747717490e+00 
7.2345599999999999e-01,	 3.0386930000000001e-01,	 1.1603610712869155e-02,	 1.7360438981736431e+03,	 3.8447857585308853e-01,	 2.9992712141707079e+02,	 1.0012414653143899e+03,	 3.4756565622840037e+02,	 4.9948661774790217e+00 
7.2795399999999999e-01,	 3.0385400000000001e-01,	 1.1604228772946370e-02,	 1.7360437930824733e+03,	 4.0029889882850400e-01,	 2.9992883121072748e+02,	 1.0013005039802600e+03,	 3.4756664691024429e+02,	 4.9948516483558638e+00 
7.3245199999999999e-01,	 3.0383869999999996e-01,	 1.1604847907162982e-02,	 1.7360440062166799e+03,	 4.1599973293528125e-01,	 2.9993037931236108e+02,	 1.0013590961083568e+03,	 3.4756754390270311e+02,	 4.9948393816214667e+00 
7.3694999999999999e-01,	 3.0382329999999996e-01,	 1.1605466605702310e-02,	 1.7360444487763234e+03,	 4.3150294048983995e-01,	 2.9993175909974593e+02,	 1.0014170892236555e+03,	 3.4756834336950271e+02,	 4.9948291768243047e+00 
7.4144800000000000e-01,	 3.0380799999999997e-01,	 1.1606083218753159e-02,	 1.7360450561611783e+03,	 4.4675158798534875e-01,	 2.9993296165073446e+02,	 1.0014743110846290e+03,	 3.4756904014172386e+02,	 4.9948209223023134e+00 
7.4594600000000000e-01,	 3.0379269999999997e-01,	 1.1606697562714027e-02,	 1.7360458172970389e+03,	 4.6175063913106534e-01,	 2.9993398218819391e+02,	 1.0015307298003316e+03,	 3.4756963145206458e+02,	 4.9948146259271438e+00 
7.5044400000000000e-01,	 3.0377729999999997e-01,	 1.1607314904998868e-02,	 1.7360466779372875e+03,	 4.7663149878830946e-01,	 2.9993487025476077e+02,	 1.0015869652337065e+03,	 3.4757014600653184e+02,	 4.9948097191702825e+00 
7.5494200000000000e-01,	 3.0376199999999998e-01,	 1.1607950267399574e-02,	 1.7360475210579482e+03,	 4.9181540825802916e-01,	 2.9993577375054355e+02,	 1.0016448074564892e+03,	 3.4757066950005628e+02,	 4.9948046341762655e+00 
7.5944000000000000e-01,	 3.0374669999999998e-01,	 1.1608639807137503e-02,	 1.7360483107217310e+03,	 5.0838143825723026e-01,	 2.9993702739907798e+02,	 1.0017084943771368e+03,	 3.4757139587390571e+02,	 4.9947964814352073e+00 
7.6393800000000001e-01,	 3.0373129999999998e-01,	 1.1609472690099735e-02,	 1.7360480171627407e+03,	 5.2890616931010515e-01,	 2.9993945580976151e+02,	 1.0017884745900437e+03,	 3.4757280290989246e+02,	 4.9947754346629756e+00 
7.6843600000000001e-01,	 3.0371599999999999e-01,	 1.1610647854637394e-02,	 1.7360459573248957e+03,	 5.5928881145377352e-01,	 2.9994490572101324e+02,	 1.0019080846312823e+03,	 3.4757596060103333e+02,	 4.9947241587531641e+00 
7.7293400000000001e-01,	 3.0370069999999999e-01,	 1.1612622244093306e-02,	 1.7360391463199680e+03,	 6.1295450535480578e-01,	 2.9995758842492575e+02,	 1.0021208303258757e+03,	 3.4758330887785655e+02,	 4.9945990218417444e+00 
7.7743200000000001e-01,	 3.0368529999999999e-01,	 1.1616440556560500e-02,	 1.7360212354989696e+03,	 7.2059331797614856e-01,	 2.9998714173928931e+02,	 1.0025491011504498e+03,	 3.4760043127479804e+02,	 4.9943015855456263e+00 
7.8193000000000001e-01,	 3.0367000000000000e-01,	 1.1624489398090854e-02,	 1.7359776514004293e+03,	 9.5239119726506472e-01,	 3.0005568848512934e+02,	 1.0034729911536367e+03,	 3.4764014217262127e+02,	 4.9936060369823458e+00 
7.8642800000000002e-01,	 3.0365470000000000e-01,	 1.1642196280294101e-02,	 1.7358746776583530e+03,	 1.4678415828893856e+00,	 3.0022266727185109e+02,	 1.0055607968833050e+03,	 3.4773685831188209e+02,	 4.9919220720020254e+00 
7.9092600000000002e-01,	 3.0363930000000000e-01,	 1.1681882385708867e-02,	 1.7356353007804980e+03,	 2.6304950318460349e+00,	 3.0058901960553044e+02,	 1.0102198058582170e+03,	 3.4794895983407491e+02,	 4.9881950932416039e+00 