TITLE = "Final State"
VARIABLES = "X", "Y", "rho", "u", "v", "T", "p", "c", "M"
ZONE I=80, J=25, DATAPACKING=POINT, STRANDID=66000, SOLUTIONTIME=0.001592
9.5381020000000005e-01,	 2.7986069999999996e-01,	 4.6814770942456188e-02,	 1.5492624308317440e+03,	 1.4192459582230475e+02,	 5.8681879028153264e+02,	 7.9034525819651026e+03,	 4.8616198039347677e+02,	 3.2000642077433503e+00 
9.5459059999999996e-01,	 2.7996050000000000e-01,	 4.8560894732338586e-02,	 1.5457212435227411e+03,	 1.2558634103484329e+02,	 5.9595154272528544e+02,	 8.3258305133531831e+03,	 4.8993048195653034e+02,	 3.1653769490380346e+00 
9.5535530000000002e-01,	 2.8005829999999998e-01,	 5.0359954057267647e-02,	 1.5415681039193673e+03,	 1.0786976289706688e+02,	 6.0543727535683252e+02,	 8.7717131010596895e+03,	 4.9381418897330735e+02,	 3.1293907141485255e+00 
9.5611999999999997e-01,	 2.8015600000000002e-01,	 5.1868185630549221e-02,	 1.5381565472043380e+03,	 9.3133237394900291e+01,	 6.1307329264246709e+02,	 9.1483630532288789e+03,	 4.9691852248694403e+02,	 3.1010587086601871e+00 
9.5686959999999999e-01,	 2.8025180000000000e-01,	 5.3105455523396218e-02,	 1.5353922515778415e+03,	 8.1212299512100429e+01,	 6.1913532073402303e+02,	 9.4592054110702993e+03,	 4.9936922799617412e+02,	 3.0789613524380650e+00 
9.5761920000000000e-01,	 2.8034759999999997e-01,	 5.4116695862845086e-02,	 1.5331622741384363e+03,	 7.1581971505205786e+01,	 6.2396309008903620e+02,	 9.7144923408525792e+03,	 5.0131238801248765e+02,	 3.0616287372641766e+00 
9.5835420000000004e-01,	 2.8044150000000001e-01,	 5.4928972597220918e-02,	 1.5313794873676457e+03,	 6.3918367725956728e+01,	 6.2776250314667323e+02,	 9.9203452025106290e+03,	 5.0283635806866806e+02,	 3.0481345057089633e+00 
9.5908919999999998e-01,	 2.8053529999999999e-01,	 5.5584125856621217e-02,	 1.5299519467510195e+03,	 5.7784114693176726e+01,	 6.3077532052586628e+02,	 1.0086846469459204e+04,	 5.0404154377325216e+02,	 3.0375328954901919e+00 
9.5981019999999995e-01,	 2.8062739999999997e-01,	 5.6109428175471668e-02,	 1.5288166728722017e+03,	 5.2925085750324016e+01,	 6.3314304259544531e+02,	 1.0220393547594247e+04,	 5.0498666036998827e+02,	 3.0292532610438667e+00 
9.6053109999999997e-01,	 2.8071940000000001e-01,	 5.6531020478015330e-02,	 1.5279030799075372e+03,	 4.9033222035959554e+01,	 6.3502845451445910e+02,	 1.0327850636203417e+04,	 5.0573799146470691e+02,	 3.0226909712321013e+00 
9.6123840000000005e-01,	 2.8080959999999999e-01,	 5.6870236046252548e-02,	 1.5271696974321205e+03,	 4.5936145318253566e+01,	 6.3652383624159665e+02,	 1.0414289348579496e+04,	 5.0633310389415709e+02,	 3.0175005194782227e+00 
9.6194579999999996e-01,	 2.8089989999999998e-01,	 5.7148840754949706e-02,	 1.5265752340346530e+03,	 4.3440778783845552e+01,	 6.3772772980565173e+02,	 1.0485102110413673e+04,	 5.0681170593032061e+02,	 3.0133344876837498e+00 
9.6264000000000005e-01,	 2.8098839999999997e-01,	 5.7373876565322043e-02,	 1.5260868353197989e+03,	 4.1434054558642863e+01,	 6.3869970926994415e+02,	 1.0542433025150118e+04,	 5.0719778214260998e+02,	 3.0099682284903437e+00 
9.6333429999999998e-01,	 2.8107689999999996e-01,	 5.7562690892391064e-02,	 1.5256820461939540e+03,	 3.9796231221403119e+01,	 6.3949797820501954e+02,	 1.0590347261524765e+04,	 5.0751463981314208e+02,	 3.0072058323136344e+00 
9.6401590000000004e-01,	 2.8116379999999996e-01,	 5.7721156918929491e-02,	 1.5253432482889039e+03,	 3.8459714300663649e+01,	 6.4015567471731492e+02,	 1.0630423446855140e+04,	 5.0777555137318973e+02,	 3.0049261432226171e+00 
9.6469760000000004e-01,	 2.8125069999999996e-01,	 5.7856638381608136e-02,	 1.5250534743989770e+03,	 3.7348409146789947e+01,	 6.4070996527954560e+02,	 1.0664601027583225e+04,	 5.0799533720618672e+02,	 3.0030014520719446e+00 
9.6536699999999998e-01,	 2.8133599999999997e-01,	 5.7973487263967394e-02,	 1.5248026697730033e+03,	 3.6422328263280519e+01,	 6.4118014752372460e+02,	 1.0693981531011919e+04,	 5.0818169811584994e+02,	 3.0013627328811445e+00 
9.6603649999999996e-01,	 2.8142129999999999e-01,	 5.8077537199494586e-02,	 1.5245818543637633e+03,	 3.5634960808738271e+01,	 6.4158754860013642e+02,	 1.0719981998170089e+04,	 5.0834311990591988e+02,	 2.9999388137196896e+00 
9.6669430000000001e-01,	 2.8150510000000001e-01,	 5.8170246182379377e-02,	 1.5243905584326469e+03,	 3.4963158089329468e+01,	 6.4194679011331266e+02,	 1.0743106248044807e+04,	 5.0848541724010926e+02,	 2.9986926045274584e+00 
9.6735210000000005e-01,	 2.8158879999999997e-01,	 5.8253544745983682e-02,	 1.5242311487305208e+03,	 3.4376242152327265e+01,	 6.4228523894074692e+02,	 1.0764162267902751e+04,	 5.0861944206786615e+02,	 2.9975628533666785e+00 
9.6799869999999999e-01,	 2.8167110000000001e-01,	 5.8331863294199031e-02,	 1.5240782847468172e+03,	 3.3865583778946473e+01,	 6.4259737806111411e+02,	 1.0783872289474668e+04,	 5.0874301702465948e+02,	 2.9965118737862189e+00 
9.6864519999999998e-01,	 2.8175339999999999e-01,	 5.8405395841788943e-02,	 1.5239120603660310e+03,	 3.3409734621945105e+01,	 6.4285044683881813e+02,	 1.0801718604400930e+04,	 5.0884318417794793e+02,	 2.9955756422586162e+00 
9.6928099999999995e-01,	 2.8183429999999998e-01,	 5.8473850936841501e-02,	 1.5237538522180857e+03,	 3.2995339001283028e+01,	 6.4306965128294053e+02,	 1.0818066529114616e+04,	 5.0892993155518525e+02,	 2.9947365169453803e+00 
9.6991680000000002e-01,	 2.8191519999999998e-01,	 5.8540193789455672e-02,	 1.5236120437910661e+03,	 3.2614549478448339e+01,	 6.4329120363203094e+02,	 1.0834071717778168e+04,	 5.0901759306406166e+02,	 2.9939261418049337e+00 
9.7054220000000002e-01,	 2.8199479999999999e-01,	 5.8604093352590710e-02,	 1.5234804375298781e+03,	 3.2265095122848578e+01,	 6.4350457143600192e+02,	 1.0849495035279060e+04,	 5.0910200192981398e+02,	 2.9931566901995330e+00 
9.7116760000000002e-01,	 2.8207430000000000e-01,	 5.8664111826516721e-02,	 1.5233525313980845e+03,	 3.1936985743073915e+01,	 6.4371228651275601e+02,	 1.0864112042830951e+04,	 5.0918416112023567e+02,	 2.9924090130215242e+00 
9.7178310000000001e-01,	 2.8215249999999997e-01,	 5.8723394186663683e-02,	 1.5232306769666261e+03,	 3.1629732429877947e+01,	 6.4391114613017737e+02,	 1.0878450250271328e+04,	 5.0926280522151717e+02,	 2.9916950935088216e+00 
9.7239860000000000e-01,	 2.8223080000000000e-01,	 5.8783262713720502e-02,	 1.5231142618684839e+03,	 3.1339386990699893e+01,	 6.4410260388126198e+02,	 1.0892778684148401e+04,	 5.0933851059277316e+02,	 2.9910101307856207e+00 
9.7300460000000000e-01,	 2.8230780000000000e-01,	 5.8838842380384393e-02,	 1.5229988091169862e+03,	 3.1062363525742459e+01,	 6.4428887216715407e+02,	 1.0906230888772503e+04,	 5.0941215317129451e+02,	 2.9903400092392682e+00 
9.7361059999999999e-01,	 2.8238479999999999e-01,	 5.8895012575295960e-02,	 1.5228868281601108e+03,	 3.0797294911162993e+01,	 6.4447044022998762e+02,	 1.0919718901601211e+04,	 5.0948392723596538e+02,	 2.9896884303684579e+00 
9.7420750000000000e-01,	 2.8246060000000001e-01,	 5.8949144468563378e-02,	 1.5227768632012330e+03,	 3.0543104362638999e+01,	 6.4464730463890749e+02,	 1.0932754984251407e+04,	 5.0955383222042423e+02,	 2.9890524716407780e+00 
9.7480440000000002e-01,	 2.8253639999999997e-01,	 5.9003250570243464e-02,	 1.5226695718363612e+03,	 3.0297213559789991e+01,	 6.4482056934362504e+02,	 1.0945730686588746e+04,	 5.0962230513737489e+02,	 2.9884307359046063e+00 
9.7539260000000005e-01,	 2.8261110000000000e-01,	 5.9056354090431071e-02,	 1.5225645678974388e+03,	 3.0060653110663992e+01,	 6.4498951963094942e+02,	 1.0958452440993775e+04,	 5.0968906417071184e+02,	 2.9878241388662414e+00 
9.7598090000000004e-01,	 2.8268579999999999e-01,	 5.9108639111349767e-02,	 1.5224608678743834e+03,	 2.9830126135241184e+01,	 6.4515613680478236e+02,	 1.0970987762812201e+04,	 5.0975489273465791e+02,	 2.9872260134388577e+00 
9.7656080000000001e-01,	 2.8275939999999999e-01,	 5.9159652056075179e-02,	 1.5223584583275419e+03,	 2.9606885061544432e+01,	 6.4531970884494444e+02,	 1.0983240102013426e+04,	 5.0981950993240451e+02,	 2.9866380147436429e+00 
9.7714080000000003e-01,	 2.8283300000000000e-01,	 5.9210839335158534e-02,	 1.5222581957051711e+03,	 2.9388617280551728e+01,	 6.4548079787280005e+02,	 1.0995487319481519e+04,	 5.0988313824215533e+02,	 2.9860604174671552e+00 
9.7771290000000000e-01,	 2.8290559999999998e-01,	 5.9260710420196580e-02,	 1.5221585489332667e+03,	 2.9177468141255623e+01,	 6.4563949843362013e+02,	 1.1007454081648291e+04,	 5.0994581537144893e+02,	 2.9854900682383834e+00 
9.7828499999999996e-01,	 2.8297810000000001e-01,	 5.9308984754200378e-02,	 1.5220594159849461e+03,	 2.8968336154607275e+01,	 6.4579726507328041e+02,	 1.1019112799037181e+04,	 5.1000811602352570e+02,	 2.9849232015227201e+00 
9.7884959999999999e-01,	 2.8304979999999996e-01,	 5.9360602811348848e-02,	 1.5219654392199100e+03,	 2.8768031559712046e+01,	 6.4594962415436726e+02,	 1.1031304937728497e+04,	 5.1006827405574836e+02,	 2.9843794988412053e+00 
9.7941429999999996e-01,	 2.8312139999999997e-01,	 5.9407092943447135e-02,	 1.5218680112247794e+03,	 2.8569052410088574e+01,	 6.4610324406761993e+02,	 1.1042569975376418e+04,	 5.1012892273711446e+02,	 2.9838263897861834e+00 
9.7997179999999995e-01,	 2.8319200000000000e-01,	 5.9453723588712586e-02,	 1.5217720172173147e+03,	 2.8374235351798450e+01,	 6.4625494661269374e+02,	 1.1053832451557762e+04,	 5.1018880737207513e+02,	 2.9832808922268956e+00 
9.8052940000000000e-01,	 2.8326269999999998e-01,	 5.9502607695662339e-02,	 1.5216793200180930e+03,	 2.8184627640514609e+01,	 6.4640397361708801e+02,	 1.1065472266132347e+04,	 5.1024762899292642e+02,	 2.9827484338278767e+00 
9.8108019999999996e-01,	 2.8333249999999999e-01,	 5.9548536236603791e-02,	 1.5215855770963449e+03,	 2.7997985118519729e+01,	 6.4655227330066418e+02,	 1.1076554050153460e+04,	 5.1030615680636362e+02,	 2.9822159186564896e+00 
9.8163109999999998e-01,	 2.8340230000000000e-01,	 5.9594691308577634e-02,	 1.5214924482005872e+03,	 2.7813852336200405e+01,	 6.4669993098239433e+02,	 1.1087670892559509e+04,	 5.1036442457959834e+02,	 2.9816863816439816e+00 
9.8217560000000004e-01,	 2.8347129999999998e-01,	 5.9640784459654358e-02,	 1.5214006178303143e+03,	 2.7633261014210603e+01,	 6.4684564835751974e+02,	 1.1098746840930551e+04,	 5.1042192015979549e+02,	 2.9811641880105504e+00 
9.8272009999999999e-01,	 2.8354029999999997e-01,	 5.9686384099434699e-02,	 1.5213086881573668e+03,	 2.7454758178775634e+01,	 6.4699119365571573e+02,	 1.1109731839325706e+04,	 5.1047934137945180e+02,	 2.9806424667135691e+00 
9.8325870000000004e-01,	 2.8360849999999999e-01,	 5.9730642808783485e-02,	 1.5212160471953471e+03,	 2.7278531344986590e+01,	 6.4713661012207490e+02,	 1.1120468792209824e+04,	 5.1053670532204023e+02,	 2.9801199242920364e+00 
9.8379729999999999e-01,	 2.8367670000000000e-01,	 5.9775587336852190e-02,	 1.5211240370232720e+03,	 2.7103709328248758e+01,	 6.4728175635313744e+02,	 1.1131332513331758e+04,	 5.1059395623536625e+02,	 2.9795994823083487e+00 
9.8433029999999999e-01,	 2.8374420000000000e-01,	 5.9820267060496646e-02,	 1.5210327368704311e+03,	 2.6929733561260701e+01,	 6.4742559745362075e+02,	 1.1142128204248078e+04,	 5.1065068602578066e+02,	 2.9790836553264186e+00 
9.8486330000000000e-01,	 2.8381170000000000e-01,	 5.9864620286866510e-02,	 1.5209409888471434e+03,	 2.6755521008910193e+01,	 6.4756985093729963e+02,	 1.1152873868461835e+04,	 5.1070757212814607e+02,	 2.9785661845387166e+00 
9.8539109999999996e-01,	 2.8387849999999998e-01,	 5.9908311165095318e-02,	 1.5208487651238613e+03,	 2.6581611634371132e+01,	 6.4771432501435424e+02,	 1.1163503592040497e+04,	 5.1076453887091674e+02,	 2.9780474763338169e+00 
9.8591890000000004e-01,	 2.8394530000000001e-01,	 5.9952345258752919e-02,	 1.5207556272518789e+03,	 2.6408035721179481e+01,	 6.4786017546942378e+02,	 1.1174224657310566e+04,	 5.1082204188140054e+02,	 2.9775240182069371e+00 
9.8644180000000004e-01,	 2.8401139999999997e-01,	 5.9994933955204596e-02,	 1.5206608346800267e+03,	 2.6232649582667776e+01,	 6.4800766121787956e+02,	 1.1184708182175853e+04,	 5.1088018304115599e+02,	 2.9769936977810674e+00 
9.8696479999999998e-01,	 2.8407759999999999e-01,	 6.0040547905974642e-02,	 1.5205674328621367e+03,	 2.6057325229427079e+01,	 6.4815521377769142e+02,	 1.1195760594322279e+04,	 5.1093834391843194e+02,	 2.9764661456555226e+00 
9.8748320000000001e-01,	 2.8414319999999998e-01,	 6.0084460038174185e-02,	 1.5204718378084081e+03,	 2.5879441589904737e+01,	 6.4830449246372666e+02,	 1.1206529306396269e+04,	 5.1099717844748164e+02,	 2.9759304525531385e+00 
9.8800169999999998e-01,	 2.8420879999999998e-01,	 6.0128469354136238e-02,	 1.5203736401881235e+03,	 2.5699276816473287e+01,	 6.4845688200468248e+02,	 1.1217373733744784e+04,	 5.1105723205721006e+02,	 2.9753826579917257e+00 
9.8851599999999995e-01,	 2.8427379999999997e-01,	 6.0172285168626605e-02,	 1.5202740530414776e+03,	 2.5515224174370253e+01,	 6.4861126781424741e+02,	 1.1228220470211167e+04,	 5.1111806516045107e+02,	 2.9748276504215592e+00 
9.8903030000000003e-01,	 2.8433890000000001e-01,	 6.0218906290861754e-02,	 1.5201743028866060e+03,	 2.5330595251858533e+01,	 6.4876695096645540e+02,	 1.1239617173210319e+04,	 5.1117940212852670e+02,	 2.9742695483950845e+00 
9.8954089999999995e-01,	 2.8440339999999997e-01,	 6.0261851784309241e-02,	 1.5200701950613411e+03,	 2.5139217928450897e+01,	 6.4892697951389187e+02,	 1.1250407182299268e+04,	 5.1124244345113533e+02,	 2.9736929689085878e+00 
9.9005149999999997e-01,	 2.8446800000000000e-01,	 6.0309400585267813e-02,	 1.5199698179491243e+03,	 2.4946435888540073e+01,	 6.4908883879792097e+02,	 1.1262092522885161e+04,	 5.1130619806387159e+02,	 2.9731196806270659e+00 
9.9055859999999996e-01,	 2.8453210000000001e-01,	 6.0354135790892632e-02,	 1.5198687343768320e+03,	 2.4749005284429145e+01,	 6.4925397755331824e+02,	 1.1273313696986597e+04,	 5.1137123623300101e+02,	 2.9725375917622467e+00 
9.9106570000000005e-01,	 2.8459619999999997e-01,	 6.0400361557171461e-02,	 1.5197672045036359e+03,	 2.4549286388709618e+01,	 6.4942118174183474e+02,	 1.1284853499187169e+04,	 5.1143707942477693e+02,	 2.9719500774631373e+00 
9.9156979999999995e-01,	 2.8465989999999997e-01,	 6.0446645435985873e-02,	 1.5196624274366054e+03,	 2.4347028188452317e+01,	 6.4958979899267160e+02,	 1.1296433182137624e+04,	 5.1150347048173472e+02,	 2.9713531552337398e+00 
9.9207380000000001e-01,	 2.8472359999999997e-01,	 6.0493258126843877e-02,	 1.5195561677263313e+03,	 2.4142858202363769e+01,	 6.4976056363370208e+02,	 1.1308116192927278e+04,	 5.1157069826684693e+02,	 2.9707486234623626e+00 
9.9257519999999999e-01,	 2.8478690000000001e-01,	 6.0538850630158264e-02,	 1.5194455777514966e+03,	 2.3935586594562331e+01,	 6.4993477403869804e+02,	 1.1319673041617836e+04,	 5.1163927350106201e+02,	 2.9701279231736977e+00 
9.9307650000000003e-01,	 2.8485030000000000e-01,	 6.0587377125531340e-02,	 1.5193357941390793e+03,	 2.3730746032014540e+01,	 6.5010925090020010e+02,	 1.1331787855560677e+04,	 5.1170794441073389e+02,	 2.9695085381657838e+00 
9.9357540000000000e-01,	 2.8491329999999998e-01,	 6.0632363676707518e-02,	 1.5192229145454360e+03,	 2.3523021421070375e+01,	 6.5028309509339124e+02,	 1.1343234244099558e+04,	 5.1177635714939373e+02,	 2.9688847341034608e+00 
9.9407440000000002e-01,	 2.8497639999999996e-01,	 6.0680225398869483e-02,	 1.5191122112706134e+03,	 2.3319266784708105e+01,	 6.5045381235517914e+02,	 1.1355168581781480e+04,	 5.1184353045095634e+02,	 2.9682727094866928e+00 
9.9457130000000005e-01,	 2.8503909999999999e-01,	 6.0723399828144536e-02,	 1.5189993648674263e+03,	 2.3113887948542995e+01,	 6.5062637845796576e+02,	 1.1366262550230864e+04,	 5.1191142227054752e+02,	 2.9676524982552022e+00 
9.9506819999999996e-01,	 2.8510189999999996e-01,	 6.0771129425864739e-02,	 1.5188873970127008e+03,	 2.2914524585075508e+01,	 6.5079680517111024e+02,	 1.1378176268465622e+04,	 5.1197846356457393e+02,	 2.9670393268240027e+00 
9.9556339999999999e-01,	 2.8516449999999999e-01,	 6.0815832695320357e-02,	 1.5187782388035853e+03,	 2.2719619740143315e+01,	 6.5096638148073691e+02,	 1.1389513020488699e+04,	 5.1204516162065920e+02,	 2.9664339713752339e+00 
9.9605860000000002e-01,	 2.8522700000000001e-01,	 6.0857917140356488e-02,	 1.5186687130022317e+03,	 2.2527640026929774e+01,	 6.5113586797182575e+02,	 1.1400361983796223e+04,	 5.1211181566922301e+02,	 2.9658284434813367e+00 
9.9655249999999995e-01,	 2.8528939999999997e-01,	 6.0902549327244218e-02,	 1.5185615248518857e+03,	 2.2344576232627169e+01,	 6.5130077339513196e+02,	 1.1411612171459105e+04,	 5.1217665979290086e+02,	 2.9652384179606854e+00 
9.9704640000000000e-01,	 2.8535179999999999e-01,	 6.0944189703911758e-02,	 1.5184578400008777e+03,	 2.2168470595128507e+01,	 6.5146327813087180e+02,	 1.1422263769952760e+04,	 5.1224055188783711e+02,	 2.9646611308236150e+00 
9.9753919999999996e-01,	 2.8541400000000000e-01,	 6.0984309801828451e-02,	 1.5183546702483773e+03,	 2.1999114721869528e+01,	 6.5162236342874621e+02,	 1.1432574264341483e+04,	 5.1230309184152736e+02,	 2.9640930462689417e+00 
9.9803200000000003e-01,	 2.8547630000000002e-01,	 6.1025761733547235e-02,	 1.5182571609388560e+03,	 2.1841996898429365e+01,	 6.5177479120787530e+02,	 1.1443021283486449e+04,	 5.1236300741593118e+02,	 2.9635517061729946e+00 
9.9852419999999997e-01,	 2.8553839999999997e-01,	 6.1061834116249665e-02,	 1.5181600510238422e+03,	 2.1690167509751934e+01,	 6.5192604551650243e+02,	 1.1452442361454234e+04,	 5.1242245480322060e+02,	 2.9630141578148423e+00 
9.9901640000000003e-01,	 2.8560059999999998e-01,	 6.1101414660512027e-02,	 1.5180668350756100e+03,	 2.1537106821343990e+01,	 6.5207268028727322e+02,	 1.1462443499687755e+04,	 5.1248007999324329e+02,	 2.9624948601942194e+00 
9.9950819999999996e-01,	 2.8566269999999999e-01,	 6.1145020365332176e-02,	 1.5179298651674137e+03,	 2.1617630001281192e+01,	 6.5226552085831145e+02,	 1.1474016062516584e+04,	 5.1255585348345187e+02,	 2.9617919315741865e+00 
1.0000000000000000e+00,	 2.8572480000000000e-01,	 6.1209654503606173e-02,	 1.5177194457728060e+03,	 2.1342641353752803e+01,	 6.5261145110960308e+02,	 1.1492236518890628e+04,	 5.1269175294983086e+02,	 2.9605888782902485e+00 
9.5378750000000001e-01,	 2.8078490000000000e-01,	 5.0581585746830610e-02,	 1.5433058360983491e+03,	 9.3766405299722180e+01,	 6.0823910118455763e+02,	 8.8510891210172667e+03,	 4.9495549986824562e+02,	 3.1238195928198138e+00 
9.5456799999999997e-01,	 2.8088049999999998e-01,	 5.1850702981291519e-02,	 1.5405849906595856e+03,	 8.3331871173115744e+01,	 6.1429316042247888e+02,	 9.1634764106990497e+03,	 4.9741265073095184e+02,	 3.1017246883061294e+00 
9.5533279999999998e-01,	 2.8097420000000001e-01,	 5.3109081423108287e-02,	 1.5373730929676992e+03,	 7.3631554379172499e+01,	 6.2009956960044997e+02,	 9.4745841477582981e+03,	 4.9975793855907983e+02,	 3.0797616877567520e+00 
9.5609770000000005e-01,	 2.8106789999999998e-01,	 5.4141333978129785e-02,	 1.5347591619794036e+03,	 6.5784000609042309e+01,	 6.2474374222617826e+02,	 9.7310746511813668e+03,	 5.0162589073665237e+02,	 3.0623785275678590e+00 
9.5684749999999996e-01,	 2.8115970000000001e-01,	 5.4969419096007804e-02,	 1.5326575284153546e+03,	 5.9509884611210992e+01,	 6.2839318105795883e+02,	 9.9376237226200101e+03,	 5.0308888045753292e+02,	 3.0487901343606718e+00 
9.5759729999999998e-01,	 2.8125139999999998e-01,	 5.5636149619845809e-02,	 1.5309700300130007e+03,	 5.4438554527527586e+01,	 6.3128334178933312e+02,	 1.0104418684050399e+04,	 5.0424447838118903e+02,	 3.0380850137887641e+00 
9.5833250000000003e-01,	 2.8134139999999996e-01,	 5.6166531317000702e-02,	 1.5296274116882571e+03,	 5.0382456072313666e+01,	 6.3354634860864462e+02,	 1.0237311864846417e+04,	 5.0514747058214630e+02,	 3.0297230369009376e+00 
9.5906769999999997e-01,	 2.8143140000000000e-01,	 5.6591222669750155e-02,	 1.5285542576865284e+03,	 4.7093732317487941e+01,	 6.3533935716941687e+02,	 1.0343910968103022e+04,	 5.0586177807828540e+02,	 3.0231174108252663e+00 
9.5978889999999994e-01,	 2.8151949999999998e-01,	 5.6930277334261509e-02,	 1.5277028527163482e+03,	 4.4447631951748448e+01,	 6.3674846295377608e+02,	 1.0428963373851086e+04,	 5.0642243747559650e+02,	 3.0179336299707837e+00 
9.6050999999999997e-01,	 2.8160770000000002e-01,	 5.7205435099846491e-02,	 1.5270251021129584e+03,	 4.2278821765863945e+01,	 6.3787343933150203e+02,	 1.0497883512239638e+04,	 5.0686960138648192e+02,	 3.0138131656672997e+00 
9.6121760000000001e-01,	 2.8169420000000001e-01,	 5.7426917809599576e-02,	 1.5264806888170101e+03,	 4.0507974957611246e+01,	 6.3876984016127449e+02,	 1.0553337995031090e+04,	 5.0722562719690842e+02,	 3.0105302042923134e+00 
9.6192509999999998e-01,	 2.8178070000000000e-01,	 5.7610954997659447e-02,	 1.5260382998581724e+03,	 3.9035544296877340e+01,	 6.3949750411550679e+02,	 1.0599219003218428e+04,	 5.0751445169103607e+02,	 3.0078699653762606e+00 
9.6261960000000002e-01,	 2.8186559999999999e-01,	 5.7763371825288297e-02,	 1.5256762186947228e+03,	 3.7812126542124396e+01,	 6.4008956873649413e+02,	 1.0637099547573876e+04,	 5.0774933285415682e+02,	 3.0057050063893302e+00 
9.6331409999999995e-01,	 2.8195039999999999e-01,	 5.7892714660561451e-02,	 1.5253736775731045e+03,	 3.6774613257674488e+01,	 6.4058343691092227e+02,	 1.0669143522849521e+04,	 5.0794517488750660e+02,	 3.0039007765152963e+00 
9.6399599999999996e-01,	 2.8203370000000000e-01,	 5.8003723062217016e-02,	 1.5251182866290760e+03,	 3.5895115505085620e+01,	 6.4099800508336148e+02,	 1.0696519462845798e+04,	 5.0810951245203637e+02,	 3.0023855166549112e+00 
9.6467780000000003e-01,	 2.8211690000000000e-01,	 5.8101728102744603e-02,	 1.5248984656935729e+03,	 3.5132943134708270e+01,	 6.4135568467668122e+02,	 1.0720571449684616e+04,	 5.0825125630804496e+02,	 3.0010808951426879e+00 
9.6534750000000003e-01,	 2.8219869999999997e-01,	 5.8188764976355542e-02,	 1.5247069081189761e+03,	 3.4471293611498893e+01,	 6.4166720646784165e+02,	 1.0741845993562176e+04,	 5.0837467621672073e+02,	 2.9999459086494844e+00 
9.6601729999999997e-01,	 2.8228039999999999e-01,	 5.8267860170441055e-02,	 1.5245413729113147e+03,	 3.3884792869545336e+01,	 6.4195022906220311e+02,	 1.0761191625298126e+04,	 5.0848677923229184e+02,	 2.9989332154505171e+00 
9.6667530000000002e-01,	 2.8236069999999996e-01,	 5.8341240025620425e-02,	 1.5243929726007475e+03,	 3.3364932324163917e+01,	 6.4221074717125691e+02,	 1.0779116411469302e+04,	 5.0858994655827189e+02,	 2.9980106258144383e+00 
9.6733340000000001e-01,	 2.8244100000000000e-01,	 5.8409953333813922e-02,	 1.5242374070622061e+03,	 3.2893546527509059e+01,	 6.4244367247738455e+02,	 1.0795725983233528e+04,	 5.0868216918923741e+02,	 2.9971412109373476e+00 
9.6798019999999996e-01,	 2.8251979999999999e-01,	 5.8474673720848892e-02,	 1.5240864786657976e+03,	 3.2467506948785989e+01,	 6.4264098953328187e+02,	 1.0811007467878759e+04,	 5.0876028028798203e+02,	 2.9963665109308399e+00 
9.6862700000000002e-01,	 2.8259869999999998e-01,	 5.8537191410615842e-02,	 1.5239584137013062e+03,	 3.2074568174861099e+01,	 6.4283855320885289e+02,	 1.0825893086115404e+04,	 5.0883847700183446e+02,	 2.9956380659093691e+00 
9.6926299999999999e-01,	 2.8267619999999999e-01,	 5.8597205746571228e-02,	 1.5238401367899501e+03,	 3.1710711252522962e+01,	 6.4304388677070096e+02,	 1.0840453682462747e+04,	 5.0891973634323341e+02,	 2.9949124351060030e+00 
9.6989899999999996e-01,	 2.8275370000000000e-01,	 5.8655376735874599e-02,	 1.5237224114124697e+03,	 3.1368118351622599e+01,	 6.4323811719398930e+02,	 1.0854492879311139e+04,	 5.0899658975461898e+02,	 2.9942150651746373e+00 
9.7052470000000002e-01,	 2.8282999999999997e-01,	 5.8712661424913389e-02,	 1.5236076164582455e+03,	 3.1047743369361115e+01,	 6.4342391023721984e+02,	 1.0868231995188165e+04,	 5.0907009379231545e+02,	 2.9935443945253022e+00 
9.7115039999999997e-01,	 2.8290620000000000e-01,	 5.8769155109702487e-02,	 1.5234957832776859e+03,	 3.0742632553000526e+01,	 6.4360535083354284e+02,	 1.0881757181818357e+04,	 5.0914186565936308e+02,	 2.9928906507005824e+00 
9.7176620000000002e-01,	 2.8298119999999999e-01,	 5.8823095974773219e-02,	 1.5233843548249320e+03,	 3.0453281617132944e+01,	 6.4378304894531755e+02,	 1.0894752116194089e+04,	 5.0921214731877427e+02,	 2.9922473791587256e+00 
9.7238190000000002e-01,	 2.8305619999999998e-01,	 5.8877588913194431e-02,	 1.5232753040368818e+03,	 3.0177290293704544e+01,	 6.4395771474255184e+02,	 1.0907803481226150e+04,	 5.0928122021055964e+02,	 2.9916166790820342e+00 
9.7298819999999997e-01,	 2.8312999999999999e-01,	 5.8930638297817597e-02,	 1.5231682628248834e+03,	 2.9913828651465565e+01,	 6.4412904786186982e+02,	 1.0920536311960394e+04,	 5.0934896606941226e+02,	 2.9909984667595348e+00 
9.7359450000000003e-01,	 2.8320370000000000e-01,	 5.8983344086689711e-02,	 1.5230625217471968e+03,	 2.9659690398952254e+01,	 6.4429852029751623e+02,	 1.0933179109041277e+04,	 5.0941596734275896e+02,	 2.9903877857344270e+00 
9.7419169999999999e-01,	 2.8327639999999998e-01,	 5.9035032392265402e-02,	 1.5229581902343020e+03,	 2.9415621853770105e+01,	 6.4446517765421731e+02,	 1.0945590583536943e+04,	 5.0948184707597898e+02,	 2.9897870764327741e+00 
9.7478889999999996e-01,	 2.8334909999999996e-01,	 5.9086172628012634e-02,	 1.5228544718008754e+03,	 2.9178864423179423e+01,	 6.4463064453463357e+02,	 1.0957885134972747e+04,	 5.0954724778676109e+02,	 2.9891908858395344e+00 
9.7537739999999995e-01,	 2.8342059999999997e-01,	 5.9136572869713355e-02,	 1.5227518505776900e+03,	 2.8950786648442403e+01,	 6.4479364901587178e+02,	 1.0970005390482062e+04,	 5.0961166702862874e+02,	 2.9886031513815050e+00 
9.7596590000000005e-01,	 2.8349219999999997e-01,	 5.9186782627252930e-02,	 1.5226503079229556e+03,	 2.8728550434165921e+01,	 6.4495547875981890e+02,	 1.0982075025752776e+04,	 5.0967561396093834e+02,	 2.9880207322918091e+00 
9.7654620000000003e-01,	 2.8356270000000000e-01,	 5.9236136148371088e-02,	 1.5225498743478618e+03,	 2.8513352633582731e+01,	 6.4511508758733771e+02,	 1.0993952573710469e+04,	 5.0973867544158696e+02,	 2.9874461451353129e+00 
9.7712639999999995e-01,	 2.8363329999999998e-01,	 5.9284707736481312e-02,	 1.5224494381071013e+03,	 2.8302923617893654e+01,	 6.4527403870528815e+02,	 1.1005678277311572e+04,	 5.0980146930861360e+02,	 2.9868734952678300e+00 
9.7769879999999998e-01,	 2.8370279999999998e-01,	 5.9333812844365813e-02,	 1.5223516002627453e+03,	 2.8099452143391183e+01,	 6.4543017522926618e+02,	 1.1017459445813680e+04,	 5.0986314373687065e+02,	 2.9863129462812052e+00 
9.7827120000000001e-01,	 2.8377239999999998e-01,	 5.9380513519356401e-02,	 1.5222523107839309e+03,	 2.7898639330582668e+01,	 6.4558671883799195e+02,	 1.1028805402673941e+04,	 5.0992497147631059e+02,	 2.9857489368234829e+00 
9.7883620000000005e-01,	 2.8384100000000001e-01,	 5.9427794102854016e-02,	 1.5221539580942726e+03,	 2.7704928353126125e+01,	 6.4574095334610638e+02,	 1.1040223820486030e+04,	 5.0998587989345020e+02,	 2.9851925862981439e+00 
9.7940110000000002e-01,	 2.8390959999999998e-01,	 5.9475460204085978e-02,	 1.5220580747515187e+03,	 2.7514347420077954e+01,	 6.4589399901152046e+02,	 1.1051697729088746e+04,	 5.1004631163763599e+02,	 2.9846441569510596e+00 
9.7995900000000002e-01,	 2.8397739999999999e-01,	 5.9520922011646639e-02,	 1.5219613228247431e+03,	 2.7326878329703849e+01,	 6.4604634868112248e+02,	 1.1062754219403720e+04,	 5.1010646144979307e+02,	 2.9840959597786960e+00 
9.8051679999999997e-01,	 2.8404509999999999e-01,	 5.9566763438338034e-02,	 1.5218646169453082e+03,	 2.7143096120015109e+01,	 6.4619823269232279e+02,	 1.1073877288826501e+04,	 5.1016642035408108e+02,	 2.9835492718542111e+00 
9.8106800000000005e-01,	 2.8411199999999998e-01,	 5.9612208519645368e-02,	 1.5217689533531779e+03,	 2.6962968137231961e+01,	 6.4634883022972053e+02,	 1.1084908600654975e+04,	 5.1022586444327510e+02,	 2.9830079342594216e+00 
9.8161909999999997e-01,	 2.8417890000000001e-01,	 5.9657164594554508e-02,	 1.5216731315380921e+03,	 2.6784580299534859e+01,	 6.4649957204235682e+02,	 1.1095855374498113e+04,	 5.1028535854630434e+02,	 2.9824662214472601e+00 
9.8216400000000004e-01,	 2.8424499999999997e-01,	 5.9701508860015254e-02,	 1.5215771639335799e+03,	 2.6609229710000832e+01,	 6.4664966621958183e+02,	 1.1106681104766732e+04,	 5.1034459015251980e+02,	 2.9819260273139321e+00 
9.8270880000000005e-01,	 2.8431109999999998e-01,	 5.9746166442480424e-02,	 1.5214815484483677e+03,	 2.6435360670499559e+01,	 6.4679974469522233e+02,	 1.1117568696856777e+04,	 5.1040380868976354e+02,	 2.9813868139211586e+00 
9.8324769999999995e-01,	 2.8437649999999998e-01,	 5.9790195331907471e-02,	 1.5213859132708326e+03,	 2.6262893374627584e+01,	 6.4694961479431879e+02,	 1.1128339546568055e+04,	 5.1046293814938576e+02,	 2.9808482927940854e+00 
9.8378659999999996e-01,	 2.8444179999999997e-01,	 5.9834025199438923e-02,	 1.5212894806689728e+03,	 2.6090563195229514e+01,	 6.4710092713655024e+02,	 1.1139101968436795e+04,	 5.1052262968119817e+02,	 2.9803050955765467e+00 
9.8431990000000003e-01,	 2.8450650000000000e-01,	 5.9877520326499054e-02,	 1.5211926627523310e+03,	 2.5919131774608399e+01,	 6.4725267468887023e+02,	 1.1149813371265835e+04,	 5.1058248589138037e+02,	 2.9797603772308214e+00 
9.8485319999999998e-01,	 2.8457119999999997e-01,	 5.9921408728925624e-02,	 1.5210958567053563e+03,	 2.5747090406046247e+01,	 6.4740520770139676e+02,	 1.1160615361462029e+04,	 5.1064264485241534e+02,	 2.9792140603810413e+00 
9.8538139999999996e-01,	 2.8463519999999998e-01,	 5.9964631500521379e-02,	 1.5209981556384832e+03,	 2.5574329938765231e+01,	 6.4755842189636746e+02,	 1.1171308949154572e+04,	 5.1070306533749488e+02,	 2.9786646083179527e+00 
9.8590949999999999e-01,	 2.8469919999999999e-01,	 6.0008995528867626e-02,	 1.5209003134155778e+03,	 2.5399642731380574e+01,	 6.4771276976990680e+02,	 1.1182238583800263e+04,	 5.1076392566524936e+02,	 2.9781124200141686e+00 
9.8643270000000005e-01,	 2.8476259999999998e-01,	 6.0052159197324290e-02,	 1.5208000632083140e+03,	 2.5222217958029091e+01,	 6.4786916706431725e+02,	 1.1192983833840341e+04,	 5.1082558669639337e+02,	 2.9775509324522540e+00 