TITLE = "Final State"
VARIABLES = "X", "Y", "rho", "u", "v", "T", "p", "c", "M"
ZONE I=82, J=27, DATAPACKING=POINT, STRANDID=51000, SOLUTIONTIME=0.001230
8.4940000000000004e-01,	 2.2769999999999999e-01,	 2.7660310926066658e-02,	 1.5859499759622465e+03,	 4.2284241930967892e+02,	 4.5904191246446140e+02,	 3.6529130544508789e+03,	 4.2998683283419820e+02,	 3.8172121891637696e+00 
8.5143709999999995e-01,	 2.2824580000000000e-01,	 2.7672340588316149e-02,	 1.5858099048040719e+03,	 4.2321151774998447e+02,	 4.5913392506564253e+02,	 3.6552342579922183e+03,	 4.3002992500451694e+02,	 3.8167361718908239e+00 
8.5347430000000002e-01,	 2.2879159999999998e-01,	 2.7679565750162990e-02,	 1.5856897928525700e+03,	 4.2349484159398105e+02,	 4.5919764421581380e+02,	 3.6566960384503996e+03,	 4.3005976400055800e+02,	 3.8163714442424670e+00 
8.5545939999999998e-01,	 2.2932349999999999e-01,	 2.7684940052719507e-02,	 1.5856162564016395e+03,	 4.2366248006723242e+02,	 4.5922774237976779e+02,	 3.6576457526937174e+03,	 4.3007385792868757e+02,	 3.8161817829003035e+00 
8.5744460000000000e-01,	 2.2985539999999999e-01,	 2.7688388170406534e-02,	 1.5855742729670665e+03,	 4.2376975903679761e+02,	 4.5923510062225182e+02,	 3.6581599210235531e+03,	 4.3007730346862797e+02,	 3.8161212987646858e+00 
8.5937909999999995e-01,	 2.3037369999999999e-01,	 2.7689081087810888e-02,	 1.5855531374358095e+03,	 4.2383885110821143e+02,	 4.5923148489136645e+02,	 3.6582226657307192e+03,	 4.3007561038501132e+02,	 3.8161303286659978e+00 
8.6131360000000001e-01,	 2.3089199999999999e-01,	 2.7687694072523500e-02,	 1.5855450946740107e+03,	 4.2388030810220630e+02,	 4.5922258264946288e+02,	 3.6579685048034889e+03,	 4.3007144183842723e+02,	 3.8161741455574374e+00 
8.6319889999999999e-01,	 2.3139709999999999e-01,	 2.7685727227207753e-02,	 1.5855437655688695e+03,	 4.2390302558289000e+02,	 4.5921190298711855e+02,	 3.6576235908805074e+03,	 4.3006644094707264e+02,	 3.8162291781281179e+00 
8.6508419999999997e-01,	 2.3190220000000000e-01,	 2.7684228379745927e-02,	 1.5855428088932920e+03,	 4.2392149256298563e+02,	 4.5920425323078769e+02,	 3.6573646477531520e+03,	 4.3006285881303035e+02,	 3.8162699066950601e+00 
8.6692159999999996e-01,	 2.3239449999999998e-01,	 2.7683315383713047e-02,	 1.5855401929993070e+03,	 4.2394045504835719e+02,	 4.5919977762781605e+02,	 3.6572083867266570e+03,	 4.3006076301874560e+02,	 3.8162940172339108e+00 
8.6875899999999995e-01,	 2.3288679999999998e-01,	 2.7682152203359033e-02,	 1.5855404721002078e+03,	 4.2395251657041831e+02,	 4.5919430323818227e+02,	 3.6570111225235423e+03,	 4.3005819950792255e+02,	 3.8163246371252910e+00 
8.7054980000000004e-01,	 2.3336659999999998e-01,	 2.7680888571898758e-02,	 1.5855416286606278e+03,	 4.2395974855126622e+02,	 4.5918864108584148e+02,	 3.6567990965610297e+03,	 4.3005554805674996e+02,	 3.8163551081388216e+00 
8.7234060000000002e-01,	 2.3384639999999998e-01,	 2.7680202553232634e-02,	 1.5855398317591623e+03,	 4.2397088893270200e+02,	 4.5918665433925310e+02,	 3.6566926484034616e+03,	 4.3005461770673622e+02,	 3.8163660193287363e+00 
8.7408609999999998e-01,	 2.3431410000000000e-01,	 2.7680213896989027e-02,	 1.5855354102123533e+03,	 4.2398606284244067e+02,	 4.5918762569754222e+02,	 3.6567018822999021e+03,	 4.3005507257284876e+02,	 3.8163611651376019e+00 
8.7583160000000004e-01,	 2.3478179999999998e-01,	 2.7679208119745117e-02,	 1.5855369882929401e+03,	 4.2398825835823595e+02,	 4.5918354079889031e+02,	 3.6565364852710672e+03,	 4.3005315969977153e+02,	 3.8163830040697184e+00 
8.7753300000000001e-01,	 2.3523759999999999e-01,	 2.7678403914813285e-02,	 1.5855373987915268e+03,	 4.2398742273521236e+02,	 4.5918144739319160e+02,	 3.6564135769442933e+03,	 4.3005217939812599e+02,	 3.8163921236665002e+00 
8.7923439999999997e-01,	 2.3569350000000000e-01,	 2.7679152097573802e-02,	 1.5855310192057534e+03,	 4.2400426050315502e+02,	 4.5918648229504186e+02,	 3.6565525079710078e+03,	 4.3005453714209682e+02,	 3.8163669843549761e+00 
8.8089300000000004e-01,	 2.3613789999999998e-01,	 2.7678411910385361e-02,	 1.5855325425710305e+03,	 4.2400079202712845e+02,	 4.5918391945323333e+02,	 3.6564343179470484e+03,	 4.3005333701608259e+02,	 3.8163789729176427e+00 
8.8255150000000004e-01,	 2.3658219999999999e-01,	 2.7677328640276097e-02,	 1.5855355449574336e+03,	 4.2399375063347179e+02,	 4.5918113490608351e+02,	 3.6562690412268189e+03,	 4.3005203306622872e+02,	 3.8163930590564910e+00 
8.8416839999999997e-01,	 2.3701539999999999e-01,	 2.7677971169316216e-02,	 1.5855298386813906e+03,	 4.2400348223148592e+02,	 4.5918690889833874e+02,	 3.6563998984678237e+03,	 4.3005473691130589e+02,	 3.8163620921801513e+00 
8.8578520000000005e-01,	 2.3744859999999998e-01,	 2.7679532404852655e-02,	 1.5855182690172053e+03,	 4.2402229075910930e+02,	 4.5919827091906723e+02,	 3.6566966238389300e+03,	 4.3006005746870261e+02,	 3.8163001870935815e+00 
8.8736150000000003e-01,	 2.3787100000000000e-01,	 2.7680600487249903e-02,	 1.5855104605314427e+03,	 4.2403320419650129e+02,	 4.5920671872061155e+02,	 3.6569050007076944e+03,	 4.3006401332561524e+02,	 3.8162540996872130e+00 
8.8893780000000000e-01,	 2.3829329999999999e-01,	 2.7680331799757971e-02,	 1.5855084972768077e+03,	 4.2402806376826925e+02,	 4.5920959028299774e+02,	 3.6568923717425364e+03,	 4.3006535798550732e+02,	 3.8162346695010814e+00 
8.9047469999999995e-01,	 2.3870509999999998e-01,	 2.7681740622997789e-02,	 1.5855002853914802e+03,	 4.2403806620175442e+02,	 4.5921923105470080e+02,	 3.6571552713127030e+03,	 4.3006987241667372e+02,	 3.8161821735186825e+00 
8.9201160000000002e-01,	 2.3911689999999999e-01,	 2.7682555503322936e-02,	 1.5854945227813985e+03,	 4.2404170186068956e+02,	 4.5922672081061995e+02,	 3.6573225777845846e+03,	 4.3007337957079636e+02,	 3.8161402933414670e+00 
8.9351020000000003e-01,	 2.3951839999999999e-01,	 2.7683032645817361e-02,	 1.5854905581809082e+03,	 4.2404093344565047e+02,	 4.5923263791018167e+02,	 3.6574327413060678e+03,	 4.3007615029241725e+02,	 3.8161063412508045e+00 
8.9500869999999999e-01,	 2.3991989999999999e-01,	 2.7684033808906324e-02,	 1.5854853315204109e+03,	 4.2404219199699889e+02,	 4.5924028466131176e+02,	 3.6576259158424650e+03,	 4.3007973090856558e+02,	 3.8160635863111723e+00 
8.9646999999999999e-01,	 2.4031139999999998e-01,	 2.7684455067063487e-02,	 1.5854822003254719e+03,	 4.2403911409234922e+02,	 4.5924595269451879e+02,	 3.6577267164628979e+03,	 4.3008238496435757e+02,	 3.8160311549337993e+00 
8.9793129999999999e-01,	 2.4070290000000000e-01,	 2.7685497738292354e-02,	 1.5854760805925698e+03,	 4.2404165286154523e+02,	 4.5925469118564052e+02,	 3.6579340778338474e+03,	 4.3008647672956829e+02,	 3.8159826291117938e+00 
8.9935630000000000e-01,	 2.4108469999999999e-01,	 2.7686848268388846e-02,	 1.5854682126363339e+03,	 4.2404739196530761e+02,	 4.5926523803328661e+02,	 3.6581965250833364e+03,	 4.3009141519899413e+02,	 3.8159245877954664e+00 
9.0078139999999995e-01,	 2.4146650000000000e-01,	 2.7688201718085829e-02,	 1.5854586242815526e+03,	 4.2405435851377820e+02,	 4.5927724490536036e+02,	 3.6584709964336171e+03,	 4.3009703724310208e+02,	 3.8158573563421840e+00 
9.0217119999999995e-01,	 2.4183890000000000e-01,	 2.7690733104911172e-02,	 1.5854438460733973e+03,	 4.2407267902547136e+02,	 4.5929432717374152e+02,	 3.6589415561153091e+03,	 4.3010503564144091e+02,	 3.8157642086570727e+00 
9.0356099999999995e-01,	 2.4221129999999999e-01,	 2.7692361184715252e-02,	 1.5854336949224266e+03,	 4.2408017391055478e+02,	 4.5930696325069800e+02,	 3.6592573544915390e+03,	 4.3011095211223960e+02,	 3.8156934232065343e+00 
9.0491659999999996e-01,	 2.4257450000000000e-01,	 2.7693200406262615e-02,	 1.5854281360134601e+03,	 4.2407764461036328e+02,	 4.5931534742625126e+02,	 3.6594350468842354e+03,	 4.3011487771054539e+02,	 3.8156445930686504e+00 
9.0627219999999997e-01,	 2.4293769999999998e-01,	 2.7694723514802427e-02,	 1.5854206344889567e+03,	 4.2408008753353045e+02,	 4.5932578994015682e+02,	 3.6597195151697442e+03,	 4.3011976700402153e+02,	 3.8155858389547945e+00 
9.0759449999999997e-01,	 2.4329199999999998e-01,	 2.7695449513646372e-02,	 1.5854172011797805e+03,	 4.2407364883604242e+02,	 4.5933297181210594e+02,	 3.6598726760045183e+03,	 4.3012312959880967e+02,	 3.8155444304804775e+00 
9.0891679999999997e-01,	 2.4364619999999998e-01,	 2.7696114426145599e-02,	 1.5854115910563423e+03,	 4.2407454304674849e+02,	 4.5934157530428956e+02,	 3.6600290947871767e+03,	 4.3012715776996492e+02,	 3.8154966348618533e+00 
9.1020679999999998e-01,	 2.4399189999999998e-01,	 2.7699264280269441e-02,	 1.5853964350935000e+03,	 4.2409365482765611e+02,	 4.5936024067176697e+02,	 3.6605940889728495e+03,	 4.3013589680028093e+02,	 3.8153965587781271e+00 
9.1149680000000000e-01,	 2.4433749999999999e-01,	 2.7699879023048896e-02,	 1.5853906206538513e+03,	 4.2409035365241147e+02,	 4.5936917961412496e+02,	 3.6607465653413960e+03,	 4.3014008190484816e+02,	 3.8153443947230610e+00 
9.1275530000000005e-01,	 2.4467469999999999e-01,	 2.7701595740621320e-02,	 1.5853825237815531e+03,	 4.2409334265324969e+02,	 4.5938075195070678e+02,	 3.6610656689432135e+03,	 4.3014549987222279e+02,	 3.8152799494031937e+00 
9.1401390000000005e-01,	 2.4501189999999998e-01,	 2.7702605004640817e-02,	 1.5853772411792488e+03,	 4.2409053692845794e+02,	 4.5938963821851610e+02,	 3.6612698763924868e+03,	 4.3014966022244175e+02,	 3.8152294992491189e+00 
9.1524190000000005e-01,	 2.4534090000000000e-01,	 2.7703521526310865e-02,	 1.5853731461180678e+03,	 4.2408588089560408e+02,	 4.5939752068578787e+02,	 3.6614538312110658e+03,	 4.3015335058220614e+02,	 3.8151847739804214e+00 
9.1647000000000001e-01,	 2.4566990000000000e-01,	 2.7704714647101766e-02,	 1.5853660316798978e+03,	 4.2408690935864178e+02,	 4.5940821365496129e+02,	 3.6616967487203310e+03,	 4.3015835669297684e+02,	 3.8151250139908792e+00 
9.1766840000000005e-01,	 2.4599099999999999e-01,	 2.7707322515454328e-02,	 1.5853516987661449e+03,	 4.2410352231499525e+02,	 4.5942577006059105e+02,	 3.6621813732251876e+03,	 4.3016657592178177e+02,	 3.8150299105737737e+00 
9.1886679999999998e-01,	 2.4631209999999998e-01,	 2.7709568470283066e-02,	 1.5853382593028530e+03,	 4.2411743746648631e+02,	 4.5944213433381043e+02,	 3.6626086832563942e+03,	 4.3017423689897805e+02,	 3.8149401477345437e+00 
9.2003639999999998e-01,	 2.4662550000000000e-01,	 2.7711088768700706e-02,	 1.5853303963003891e+03,	 4.2411639343261686e+02,	 4.5945320075066638e+02,	 3.6628978587662336e+03,	 4.3017941759356910e+02,	 3.8148759193284540e+00 
9.2120590000000002e-01,	 2.4693879999999999e-01,	 2.7711483552440574e-02,	 1.5853268927578940e+03,	 4.2411041949143112e+02,	 4.5945995753726987e+02,	 3.6630039098224861e+03,	 4.3018258072295299e+02,	 3.8148364120387015e+00 
9.2234760000000005e-01,	 2.4724469999999998e-01,	 2.7713845414146995e-02,	 1.5853142955230937e+03,	 4.2412343502393031e+02,	 4.5947573835707567e+02,	 3.6634419311413872e+03,	 4.3018996828240000e+02,	 3.8147504316841321e+00 
9.2348920000000001e-01,	 2.4755059999999998e-01,	 2.7716257890023861e-02,	 1.5853005771471073e+03,	 4.2413808181172379e+02,	 4.5949246770580976e+02,	 3.6638942280953829e+03,	 4.3019779974322967e+02,	 3.8146589809225420e+00 
9.2460359999999997e-01,	 2.4784919999999999e-01,	 2.7717653751489744e-02,	 1.5852928815055275e+03,	 4.2413953788146614e+02,	 4.5950326998539572e+02,	 3.6641648905520283e+03,	 4.3020285650685975e+02,	 3.8145977361661787e+00 
9.2571809999999999e-01,	 2.4814780000000000e-01,	 2.7718186971909496e-02,	 1.5852910255924824e+03,	 4.2412943184337712e+02,	 4.5950871956907520e+02,	 3.6642788370298658e+03,	 4.3020540754367255e+02,	 3.8145648775031638e+00 
9.2680620000000002e-01,	 2.4843930000000000e-01,	 2.7718516803808352e-02,	 1.5852902497428408e+03,	 4.2411737742511946e+02,	 4.5951342781783467e+02,	 3.6643599856516498e+03,	 4.3020761153763573e+02,	 3.8145363512775261e+00 
9.2789429999999995e-01,	 2.4873080000000000e-01,	 2.7720065170572482e-02,	 1.5852819212939912e+03,	 4.2412213609482944e+02,	 4.5952553313082001e+02,	 3.6646612166019199e+03,	 4.3021327814406470e+02,	 3.8144702651866136e+00 
9.2895680000000003e-01,	 2.4901550000000000e-01,	 2.7723008331172586e-02,	 1.5852661499715482e+03,	 4.2414204279416134e+02,	 4.5954465558821289e+02,	 3.6652028252211539e+03,	 4.3022222938714481e+02,	 3.8143674468432276e+00 
9.3001929999999999e-01,	 2.4930020000000000e-01,	 2.7724938304804408e-02,	 1.5852553729584706e+03,	 4.2414897163062284e+02,	 4.5955872521913750e+02,	 3.6655702064796901e+03,	 4.3022881527774246e+02,	 3.8142890212075660e+00 
9.3105689999999997e-01,	 2.4957820000000000e-01,	 2.7725695359558697e-02,	 1.5852511145459971e+03,	 4.2414222469349727e+02,	 4.5956651523205585e+02,	 3.6657324352611640e+03,	 4.3023246168204537e+02,	 3.8142430785926882e+00 
9.3209460000000000e-01,	 2.4985620000000000e-01,	 2.7727384966195978e-02,	 1.5852423546619689e+03,	 4.2414742163512267e+02,	 4.5957876068076894e+02,	 3.6660535071383597e+03,	 4.3023819355575154e+02,	 3.8141757164827097e+00 
9.3310810000000000e-01,	 2.5012780000000001e-01,	 2.7729804443897572e-02,	 1.5852314870970265e+03,	 4.2415167504072002e+02,	 4.5959398458155823e+02,	 3.6664948565740401e+03,	 4.3024531948267969e+02,	 3.8140906988580268e+00 
9.3412160000000000e-01,	 2.5039929999999999e-01,	 2.7729886716669164e-02,	 1.5852301038260211e+03,	 4.2413834939084211e+02,	 4.5959963472804782e+02,	 3.6665508100663742e+03,	 4.3024796414480733e+02,	 3.8140561431790005e+00 
9.3511180000000005e-01,	 2.5066460000000002e-01,	 2.7731949965423067e-02,	 1.5852212306280135e+03,	 4.2414136085732525e+02,	 4.5961304611403204e+02,	 3.6669306206997458e+03,	 4.3025424154255319e+02,	 3.8139823828995119e+00 
9.3610199999999999e-01,	 2.5092989999999998e-01,	 2.7733990017450617e-02,	 1.5852110605850344e+03,	 4.2414580644611465e+02,	 4.5962790658011590e+02,	 3.6673189419622881e+03,	 4.3026119709672747e+02,	 3.8139005633736902e+00 
9.3706940000000005e-01,	 2.5118910000000000e-01,	 2.7735863429177502e-02,	 1.5852016795794475e+03,	 4.2414648850605204e+02,	 4.5964209264126748e+02,	 3.6676798634238789e+03,	 4.3026783688564137e+02,	 3.8138210560935679e+00 
9.3803689999999995e-01,	 2.5144830000000001e-01,	 2.7738376566386239e-02,	 1.5851877505618293e+03,	 4.2415818783401494e+02,	 4.5966082675338350e+02,	 3.6681616916544908e+03,	 4.3027660523376750e+02,	 3.8137190924803210e+00 
9.3898239999999999e-01,	 2.5170169999999997e-01,	 2.7742052301727563e-02,	 1.5851707120464871e+03,	 4.2416892607519037e+02,	 4.5968305833377303e+02,	 3.6688252108583392e+03,	 4.3028701031151502e+02,	 3.8135950687395606e+00 
9.3992790000000004e-01,	 2.5195499999999998e-01,	 2.7742822973798573e-02,	 1.5851662017442393e+03,	 4.2415586941160035e+02,	 4.5969315175046404e+02,	 3.6690076904157763e+03,	 4.3029173426443521e+02,	 3.8135352320066556e+00 
9.4085200000000002e-01,	 2.5220260000000000e-01,	 2.7745050719638457e-02,	 1.5851576626365377e+03,	 4.2415084127224947e+02,	 4.5970787296128196e+02,	 3.6694198170729519e+03,	 4.3029862403927376e+02,	 3.8134519805134830e+00 
9.4177619999999995e-01,	 2.5245020000000001e-01,	 2.7747371715589501e-02,	 1.5851476428470714e+03,	 4.2414833548954044e+02,	 4.5972450459923289e+02,	 3.6698595462183725e+03,	 4.3030640779350011e+02,	 3.8133590003731417e+00 
9.4267970000000001e-01,	 2.5269229999999998e-01,	 2.7749709519776414e-02,	 1.5851395887387066e+03,	 4.2413974164067406e+02,	 4.5973998530354874e+02,	 3.6702923323338782e+03,	 4.3031365277404757e+02,	 3.8132715537847583e+00 
9.4358319999999996e-01,	 2.5293430000000000e-01,	 2.7750570654694724e-02,	 1.5851364260114735e+03,	 4.2412125404386740e+02,	 4.5975100790314013e+02,	 3.6704942302816467e+03,	 4.3031881128409123e+02,	 3.8132076369336483e+00 
9.4446660000000004e-01,	 2.5317099999999998e-01,	 2.7754542184950295e-02,	 1.5851202670348832e+03,	 4.2412882496570279e+02,	 4.5977532495628316e+02,	 3.6712137008231048e+03,	 4.3033019129942579e+02,	 3.8130750704638454e+00 
9.4535009999999997e-01,	 2.5340770000000001e-01,	 2.7757611670769351e-02,	 1.5851058303756290e+03,	 4.2413017109382452e+02,	 4.5979821069772800e+02,	 3.6718024732909716e+03,	 4.3034090120751443e+02,	 3.8129485758622028e+00 
9.4621409999999995e-01,	 2.5363920000000001e-01,	 2.7761184808752056e-02,	 1.5850903560694032e+03,	 4.2413011513762575e+02,	 4.5982237220244292e+02,	 3.6724681022188465e+03,	 4.3035220784908103e+02,	 3.8128136293213704e+00 
9.4707819999999998e-01,	 2.5387070000000000e-01,	 2.7764476552726861e-02,	 1.5850745870965611e+03,	 4.2413028846894633e+02,	 4.5984716527762703e+02,	 3.6731015986188554e+03,	 4.3036380973218701e+02,	 3.8126755505807179e+00 
9.4792350000000003e-01,	 2.5409719999999997e-01,	 2.7769481796614454e-02,	 1.5850508744503950e+03,	 4.2414644040736630e+02,	 4.5988002440905564e+02,	 3.6740262821898327e+03,	 4.3037918563252850e+02,	 3.8124958138634524e+00 
9.4876870000000002e-01,	 2.5432369999999999e-01,	 2.7774094976874983e-02,	 1.5850299148992940e+03,	 4.2415158107884196e+02,	 4.5991065035769276e+02,	 3.6748813408423448e+03,	 4.3039351605643941e+02,	 3.8123249168155651e+00 
9.4959579999999999e-01,	 2.5454529999999997e-01,	 2.7776958450016372e-02,	 1.5850178547991154e+03,	 4.2413728723321117e+02,	 4.5993293762543811e+02,	 3.6754383194297325e+03,	 4.3040394436388669e+02,	 3.8121968946488760e+00 
9.5042289999999996e-01,	 2.5476689999999996e-01,	 2.7780772829687318e-02,	 1.5850025038662857e+03,	 4.2412986212919623e+02,	 4.5995929594263703e+02,	 3.6761537017194064e+03,	 4.3041627720659807e+02,	 3.8120487502196863e+00 
9.5123239999999998e-01,	 2.5498379999999998e-01,	 2.7785296395353057e-02,	 1.5849835009368476e+03,	 4.2412990708425525e+02,	 4.5998968441702334e+02,	 3.6769952075344086e+03,	 4.3043049528861246e+02,	 3.8118802085737622e+00 
9.5204190000000000e-01,	 2.5520070000000000e-01,	 2.7789515768471672e-02,	 1.5849666951338918e+03,	 4.2412387091383749e+02,	 4.6001848173958149e+02,	 3.6777838131200729e+03,	 4.3044396847316290e+02,	 3.8117195532707933e+00 
9.5283430000000002e-01,	 2.5541300000000000e-01,	 2.7792900072590630e-02,	 1.5849549827408055e+03,	 4.2410585821805796e+02,	 4.6004269893203303e+02,	 3.6784253431215284e+03,	 4.3045529846059765e+02,	 3.8115821238802505e+00 
9.5362680000000000e-01,	 2.5562530000000000e-01,	 2.7795131100741124e-02,	 1.5849443701484493e+03,	 4.2408051760054741e+02,	 4.6006299967957381e+02,	 3.6788829569585660e+03,	 4.3046479591372565e+02,	 3.8114589956948506e+00 
9.5440280000000000e-01,	 2.5583319999999998e-01,	 2.7834651179293970e-02,	 1.5848526908279866e+03,	 4.2447617113770866e+02,	 4.6008619099966222e+02,	 3.6842994324855454e+03,	 4.3047564542897692e+02,	 3.8113948820272947e+00 
8.4940000000000004e-01,	 2.2918680000000000e-01,	 2.7661308695742376e-02,	 1.5864709562576654e+03,	 4.2140829939469052e+02,	 4.5870908769117364e+02,	 3.6503962114709316e+03,	 4.2983092526244519e+02,	 3.8189100093119484e+00 
8.5143610000000003e-01,	 2.2972170000000000e-01,	 2.7667985224714864e-02,	 1.5864016034156609e+03,	 4.2158916427303006e+02,	 4.5875069083624618e+02,	 3.6516084536692751e+03,	 4.2985041682406262e+02,	 3.8186889524491936e+00 
8.5347220000000001e-01,	 2.3025659999999998e-01,	 2.7678104927144398e-02,	 1.5863070944794983e+03,	 4.2181860399344617e+02,	 4.5881776375305071e+02,	 3.6534781363340076e+03,	 4.2988183941160105e+02,	 3.8183344722068213e+00 
8.5545640000000001e-01,	 2.3077779999999998e-01,	 2.7684662681134099e-02,	 1.5862327304547534e+03,	 4.2200494350839551e+02,	 4.5887289235408866e+02,	 3.6547828348641524e+03,	 4.2990766455881612e+02,	 3.8180493466441168e+00 
8.5744060000000000e-01,	 2.3129909999999998e-01,	 2.7688341333620956e-02,	 1.5861773837146868e+03,	 4.2214429078393567e+02,	 4.5891210811271065e+02,	 3.6555808541982760e+03,	 4.2992603434628791e+02,	 3.8178451483072711e+00 
8.5937419999999998e-01,	 2.3180699999999999e-01,	 2.7690816593172973e-02,	 1.5861373247950137e+03,	 4.2224590859949137e+02,	 4.5893735033198220e+02,	 3.6561087440857164e+03,	 4.2993785811146068e+02,	 3.8177109094871913e+00 
8.6130779999999996e-01,	 2.3231499999999999e-01,	 2.7692532666050745e-02,	 1.5861100664391154e+03,	 4.2231747897563912e+02,	 4.5895230021132068e+02,	 3.6564544278640265e+03,	 4.2994486066502702e+02,	 3.8176302912689870e+00 
8.6319219999999997e-01,	 2.3280999999999999e-01,	 2.7693516914487841e-02,	 1.5860926405449950e+03,	 4.2236642500508691e+02,	 4.5895946570870603e+02,	 3.6566414748826214e+03,	 4.2994821695798908e+02,	 3.8175906170008855e+00 
8.6507659999999997e-01,	 2.3330499999999998e-01,	 2.7693709085815667e-02,	 1.5860804570827931e+03,	 4.2240322196569008e+02,	 4.5896266855838485e+02,	 3.6566923671698469e+03,	 4.2994971715267837e+02,	 3.8175719379951181e+00 
8.6691320000000005e-01,	 2.3378739999999998e-01,	 2.7693522538207595e-02,	 1.5860702138856914e+03,	 4.2243504990907775e+02,	 4.5896493795848130e+02,	 3.6566858161876376e+03,	 4.2995078012227293e+02,	 3.8175585296505190e+00 
8.6874980000000002e-01,	 2.3426989999999998e-01,	 2.7693130782326832e-02,	 1.5860627501759332e+03,	 4.2246154648176611e+02,	 4.5896601956891266e+02,	 3.6566427056056136e+03,	 4.2995128673937626e+02,	 3.8175531180911664e+00 
8.7053990000000003e-01,	 2.3474009999999998e-01,	 2.7692514358803662e-02,	 1.5860575041159275e+03,	 4.2248178292591263e+02,	 4.5896579834426075e+02,	 3.6565595496283336e+03,	 4.2995118311968423e+02,	 3.8175543622889463e+00 
8.7232989999999999e-01,	 2.3521029999999998e-01,	 2.7691916703045681e-02,	 1.5860522024361430e+03,	 4.2249956049054936e+02,	 4.5896606255593383e+02,	 3.6564827392166762e+03,	 4.2995130687411807e+02,	 3.8175519911253555e+00 
8.7407469999999998e-01,	 2.3566859999999998e-01,	 2.7691699533396428e-02,	 1.5860451349491286e+03,	 4.2251965156860228e+02,	 4.5896843363577602e+02,	 3.6564729535353199e+03,	 4.2995241746555757e+02,	 3.8175382748826063e+00 
8.7581949999999997e-01,	 2.3612690000000000e-01,	 2.7691454586585101e-02,	 1.5860406576999560e+03,	 4.2253655210154551e+02,	 4.5896979524155711e+02,	 3.6564514576551646e+03,	 4.2995305522756922e+02,	 3.8175326686709981e+00 
8.7752030000000003e-01,	 2.3657370000000000e-01,	 2.7690820263432434e-02,	 1.5860374557544280e+03,	 4.2254584834469540e+02,	 4.5896995167023994e+02,	 3.6563689461654430e+03,	 4.2995312849707966e+02,	 3.8175303880275235e+00 
8.7922100000000003e-01,	 2.3702039999999999e-01,	 2.7690815275317963e-02,	 1.5860303495001135e+03,	 4.2256278114177883e+02,	 4.5897372808489865e+02,	 3.6563983721987602e+03,	 4.2995489732524715e+02,	 3.8175088507152313e+00 
8.8087899999999997e-01,	 2.3745590000000000e-01,	 2.7690845172116969e-02,	 1.5860258297134203e+03,	 4.2257531755814944e+02,	 4.5897666120154668e+02,	 3.6564256864812646e+03,	 4.2995627115753348e+02,	 3.8174940014554855e+00 
8.8253689999999996e-01,	 2.3789140000000000e-01,	 2.7690326415528332e-02,	 1.5860239980747274e+03,	 4.2258007609509906e+02,	 4.5897771810401429e+02,	 3.6563656071200598e+03,	 4.2995676619532162e+02,	 3.8174883390697523e+00 
8.8415319999999997e-01,	 2.3831590000000000e-01,	 2.7690295460230462e-02,	 1.5860191340996257e+03,	 4.2258721410567171e+02,	 4.5898125195977673e+02,	 3.6563896714432649e+03,	 4.2995842139797230e+02,	 3.8174669859211035e+00 
8.8576949999999999e-01,	 2.3874049999999999e-01,	 2.7690913509767032e-02,	 1.5860095096618675e+03,	 4.2260165170527864e+02,	 4.5898922185092886e+02,	 3.6565347744317382e+03,	 4.2996215434668022e+02,	 3.8174208582310420e+00 
8.8734519999999995e-01,	 2.3915429999999999e-01,	 2.7692062461549989e-02,	 1.5859989983838930e+03,	 4.2262065894607974e+02,	 4.5899948972952450e+02,	 3.6567682938101912e+03,	 4.2996696358217122e+02,	 3.8173659196037986e+00 
8.8892099999999996e-01,	 2.3956819999999998e-01,	 2.7692522105275556e-02,	 1.5859920266800534e+03,	 4.2263046019762635e+02,	 4.5900669893760164e+02,	 3.6568864257335986e+03,	 4.2997034017539721e+02,	 3.8173261433424885e+00 
8.9045739999999995e-01,	 2.3997179999999999e-01,	 2.7693319079132417e-02,	 1.5859828460576346e+03,	 4.2264283820959679e+02,	 4.5901558179124993e+02,	 3.6570624400350953e+03,	 4.2997450062135090e+02,	 3.8172759879506239e+00 
8.9199379999999995e-01,	 2.4037529999999999e-01,	 2.7694308223326393e-02,	 1.5859737385869980e+03,	 4.2265601694106823e+02,	 4.5902512484678152e+02,	 3.6572690962409547e+03,	 4.2997897024000065e+02,	 3.8172237330081118e+00 
8.9349190000000001e-01,	 2.4076879999999998e-01,	 2.7695006487159644e-02,	 1.5859659099906282e+03,	 4.2266562665861568e+02,	 4.5903357741703428e+02,	 3.6574286552241001e+03,	 4.2998292907637511e+02,	 3.8171767503945433e+00 
8.9498999999999995e-01,	 2.4116230000000000e-01,	 2.7695908536417603e-02,	 1.5859576915017506e+03,	 4.2267518955675462e+02,	 4.5904263927809768e+02,	 3.6576199849810487e+03,	 4.2998717323902980e+02,	 3.8171263316853974e+00 
8.9645090000000005e-01,	 2.4154599999999998e-01,	 2.7696629266203143e-02,	 1.5859507712917607e+03,	 4.2268249394600952e+02,	 4.5905077159991828e+02,	 3.6577799665784378e+03,	 4.2999098201220824e+02,	 3.8170813439751110e+00 
8.9791169999999998e-01,	 2.4192959999999999e-01,	 2.7697385257405203e-02,	 1.5859430398333207e+03,	 4.2268955193807244e+02,	 4.5905947609696449e+02,	 3.6579491677567958e+03,	 4.2999505872629044e+02,	 3.8170320080988218e+00 
8.9933640000000004e-01,	 2.4230379999999999e-01,	 2.7698498100822345e-02,	 1.5859340732644714e+03,	 4.2269931763351292e+02,	 4.5906964327840285e+02,	 3.6581771581715298e+03,	 4.2999982043343391e+02,	 3.8169754390418045e+00 
9.0076109999999998e-01,	 2.4267799999999998e-01,	 2.7699551601334076e-02,	 1.5859242133273915e+03,	 4.2270897101682345e+02,	 4.5908042585808784e+02,	 3.6584022215227751e+03,	 4.3000487029914717e+02,	 3.8169142388466395e+00 
9.0215049999999997e-01,	 2.4304289999999998e-01,	 2.7701194498225126e-02,	 1.5859106112045888e+03,	 4.2272556272027674e+02,	 4.5909453925735454e+02,	 3.6587316822288453e+03,	 4.3001148001657020e+02,	 3.8168349415678531e+00 
9.0354000000000001e-01,	 2.4340779999999998e-01,	 2.7703017779009506e-02,	 1.5858971607493183e+03,	 4.2274355480114929e+02,	 4.5910933762051320e+02,	 3.6590904409851551e+03,	 4.3001841041349360e+02,	 3.8167539805714501e+00 
9.0489529999999996e-01,	 2.4376380000000000e-01,	 2.7704416900624487e-02,	 1.5858865310339477e+03,	 4.2275578749596662e+02,	 4.5912175534262838e+02,	 3.6593742147455905e+03,	 4.3002422581799595e+02,	 3.8166858072285321e+00 
9.0625060000000002e-01,	 2.4411970000000000e-01,	 2.7705725216465176e-02,	 1.5858757809728365e+03,	 4.2276662002336604e+02,	 4.5913380328134264e+02,	 3.6596430565257433e+03,	 4.3002986797225032e+02,	 3.8166180645587517e+00 
9.0757259999999995e-01,	 2.4446689999999999e-01,	 2.7707115063798256e-02,	 1.5858671831480351e+03,	 4.2277522415640101e+02,	 4.5914493259602671e+02,	 3.6599153546402658e+03,	 4.3003507986112436e+02,	 3.8165576435844777e+00 
9.0889470000000006e-01,	 2.4481409999999998e-01,	 2.7707693543314774e-02,	 1.5858598885668955e+03,	 4.2277911288103064e+02,	 4.5915368233294816e+02,	 3.6600615146866471e+03,	 4.3003917734279383e+02,	 3.8165072180100990e+00 
9.1018440000000000e-01,	 2.4515279999999998e-01,	 2.7709589597840301e-02,	 1.5858467401244320e+03,	 4.2279346287203106e+02,	 4.5916819934684361e+02,	 3.6604277026495988e+03,	 4.3004597554087974e+02,	 3.8164259395001068e+00 
9.1147409999999995e-01,	 2.4549150000000000e-01,	 2.7710975214895607e-02,	 1.5858362948068584e+03,	 4.2280430356494531e+02,	 4.5918079056802435e+02,	 3.6607111227651903e+03,	 4.3005187181906621e+02,	 3.8163566389932408e+00 
9.1273249999999995e-01,	 2.4582199999999998e-01,	 2.7712466554877791e-02,	 1.5858256313459990e+03,	 4.2281490065175808e+02,	 4.5919342402518555e+02,	 3.6610088563838276e+03,	 4.3005778779447502e+02,	 3.8162865297911073e+00 
9.1399079999999999e-01,	 2.4615250000000000e-01,	 2.7713768738058676e-02,	 1.5858161960219497e+03,	 4.2282363968305850e+02,	 4.5920507516797471e+02,	 3.6612737791712161e+03,	 4.3006324370112293e+02,	 3.8162221514798436e+00 
9.1521870000000005e-01,	 2.4647490000000000e-01,	 2.7714972542832582e-02,	 1.5858081976965561e+03,	 4.2282996259445861e+02,	 4.5921552893204921e+02,	 3.6615161663616932e+03,	 4.3006813884965635e+02,	 3.8161645319379471e+00 
9.1644650000000005e-01,	 2.4679730000000000e-01,	 2.7715915840201374e-02,	 1.5858003066012495e+03,	 4.2283400118141799e+02,	 4.5922532277185985e+02,	 3.6617188814901651e+03,	 4.3007272492714793e+02,	 3.8161085287189587e+00 
9.1764469999999998e-01,	 2.4711200000000000e-01,	 2.7717485832720195e-02,	 1.5857885240268529e+03,	 4.2284516815155416e+02,	 4.5923837767947839e+02,	 3.6620304044293475e+03,	 4.3007883796089465e+02,	 3.8160345056836649e+00 
9.1884299999999997e-01,	 2.4742670000000000e-01,	 2.7719305705770844e-02,	 1.5857746504586000e+03,	 4.2286138605325482e+02,	 4.5925357713163385e+02,	 3.6623920562994736e+03,	 4.3008595508018465e+02,	 3.8159499044583725e+00 
9.2001239999999995e-01,	 2.4773379999999998e-01,	 2.7721290800255587e-02,	 1.5857620368952794e+03,	 4.2287610564267453e+02,	 4.5926842516876440e+02,	 3.6627727519467080e+03,	 4.3009290753622810e+02,	 3.8158687005383300e+00 
9.2118180000000005e-01,	 2.4804089999999998e-01,	 2.7722429644241903e-02,	 1.5857535291232848e+03,	 4.2288395237322021e+02,	 4.5927926691178806e+02,	 3.6630096946818935e+03,	 4.3009798401112329e+02,	 3.8158092494485039e+00 
9.2232329999999996e-01,	 2.4834059999999999e-01,	 2.7723827692475184e-02,	 1.5857424142331981e+03,	 4.2289333254518692e+02,	 4.5929167081872720e+02,	 3.6632933541699367e+03,	 4.3010379187110402e+02,	 3.8157383730612864e+00 
9.2346479999999997e-01,	 2.4864039999999998e-01,	 2.7725732329146432e-02,	 1.5857286824394334e+03,	 4.2290874112468208e+02,	 4.5930677546421168e+02,	 3.6636655060757562e+03,	 4.3011086418734499e+02,	 3.8156540143056876e+00 
9.2457920000000005e-01,	 2.4893299999999999e-01,	 2.7727584521358380e-02,	 1.5857161039432979e+03,	 4.2292363050244768e+02,	 4.5932147397059350e+02,	 3.6640275045307931e+03,	 4.3011774622898076e+02,	 3.8155736264452123e+00 
9.2569360000000001e-01,	 2.4922559999999999e-01,	 2.7729024614911859e-02,	 1.5857070710297144e+03,	 4.2293235204330369e+02,	 4.5933340166750901e+02,	 3.6643129566217917e+03,	 4.3012333085880988e+02,	 3.8155090198254054e+00 