TITLE = "Final State"
VARIABLES = "X", "Y", "rho", "u", "v", "T", "p", "c", "M"
ZONE I=102, J=27, DATAPACKING=POINT, STRANDID=60000, SOLUTIONTIME=0.001448
1.0000000000000000e+00,	 2.6805000000000001e-01,	 2.4705873812914121e-02,	 1.5915505242751371e+03,	 4.0021489062176283e+02,	 4.6094133684779155e+02,	 3.2762407924731024e+03,	 4.3087551459941557e+02,	 3.8087537371157589e+00 
1.0004999999999999e+00,	 2.6803939999999998e-01,	 1.9218464275755239e-02,	 1.6063025555469615e+03,	 3.2683007885071066e+02,	 4.5849890811563426e+02,	 2.5350523024996305e+03,	 4.2973244014975040e+02,	 3.8145014013865017e+00 
1.0009999999999999e+00,	 2.6802890000000001e-01,	 1.4488522724674774e-02,	 1.6232416452804478e+03,	 2.3514126702803631e+02,	 4.5006518874388689e+02,	 1.8759854537413783e+03,	 4.2576180459705813e+02,	 3.8523521339001188e+00 
1.0014989999999999e+00,	 2.6801829999999999e-01,	 1.2143168641306823e-02,	 1.6365678494923081e+03,	 1.6439284476162703e+02,	 4.3595952521559110e+02,	 1.5230288668224100e+03,	 4.1903671071696238e+02,	 3.9252020049313630e+00 
1.0019990000000001e+00,	 2.6800770000000002e-01,	 1.0729793003854189e-02,	 1.6479793741766177e+03,	 1.1736721184053239e+02,	 4.2078256491714490e+02,	 1.2989098727587491e+03,	 4.1167818566270466e+02,	 4.0132159658317921e+00 
1.0024999999999999e+00,	 2.6799719999999999e-01,	 9.7537824168241888e-03,	 1.6577269283650326e+03,	 8.4766243628611250e+01,	 4.0678168067091752e+02,	 1.1414696983079948e+03,	 4.0477127029979675e+02,	 4.1008165717304754e+00 
1.0029999999999999e+00,	 2.6798659999999996e-01,	 9.0277091900958471e-03,	 1.6658180538296992e+03,	 6.1092487433699525e+01,	 3.9473984481063559e+02,	 1.0252232916651963e+03,	 3.9873510184983382e+02,	 4.1805648102454640e+00 
1.0035000000000001e+00,	 2.6797599999999999e-01,	 8.4741167527884360e-03,	 1.6723061750460133e+03,	 4.3058446551969027e+01,	 3.8481577413575803e+02,	 9.3816072285464213e+02,	 3.9369093919396670e+02,	 4.2491717484592160e+00 
1.0040009999999999e+00,	 2.6796539999999996e-01,	 8.0551805975115839e-03,	 1.6772469385012892e+03,	 2.8678618691283074e+01,	 3.7698017257322056e+02,	 8.7362233396351292e+02,	 3.8966216665996518e+02,	 4.3049909552541736e+00 
1.0045020000000000e+00,	 2.6795490000000000e-01,	 7.7553746546932742e-03,	 1.6806287199963206e+03,	 1.6566729980956929e+01,	 3.7117903740842735e+02,	 8.2816364471709414e+02,	 3.8665239724977056e+02,	 4.3468251662338595e+00 
1.0050030000000001e+00,	 2.6794429999999997e-01,	 7.5664353698647073e-03,	 1.6822411575071083e+03,	 5.8012634532912806e+00,	 3.6785787564103020e+02,	 8.0075806746067371e+02,	 3.8491870483363198e+02,	 4.3704063722429423e+00 
1.0055050000000001e+00,	 2.6793370000000000e-01,	 7.5374994880351726e-03,	 1.6814638491397614e+03,	 -9.6115755830362417e+00,	 3.6788809708419939e+02,	 7.9776130949493927e+02,	 3.8493451604853209e+02,	 4.3682529096051956e+00 
1.0060070000000001e+00,	 2.6792309999999997e-01,	 7.7088893891461945e-03,	 1.6777102901538487e+03,	 -2.9153938440872388e+01,	 3.7254454828079503e+02,	 8.2622810553608417e+02,	 3.8736296183269337e+02,	 4.3317605025421271e+00 
1.0065100000000000e+00,	 2.6791239999999999e-01,	 8.1354092673996663e-03,	 1.6703474180413709e+03,	 -5.0119556564912870e+01,	 3.8324708385616782e+02,	 8.9699124109679758e+02,	 3.9288768493181158e+02,	 4.2533763295363434e+00 
1.0070129999999999e+00,	 2.6790179999999997e-01,	 8.8701538974678626e-03,	 1.6591413954885184e+03,	 -7.2780389209578146e+01,	 4.0095379717548451e+02,	 1.0231879648317328e+03,	 4.0186126957763372e+02,	 4.1326125633699258e+00 
1.0075160000000001e+00,	 2.6789120000000000e-01,	 9.9416249668793678e-03,	 1.6444182953422871e+03,	 -9.2428339102267898e+01,	 4.2552433588030527e+02,	 1.2170592347925722e+03,	 4.1399127456396491e+02,	 3.9783781026490672e+00 
1.0080199999999999e+00,	 2.6788049999999997e-01,	 1.1358852520681365e-02,	 1.6270538167768700e+03,	 -1.0527816516911631e+02,	 4.5546368621509077e+02,	 1.4883948376133876e+03,	 4.2830768306977910e+02,	 3.8067406309413774e+00 
1.0085249999999999e+00,	 2.6786989999999999e-01,	 1.3103753862353485e-02,	 1.6081823525807840e+03,	 -1.1009135702243196e+02,	 4.8478441705122589e+02,	 1.8275712425593949e+03,	 4.4187894888793943e+02,	 3.6479361931841203e+00 
1.0090300000000001e+00,	 2.6785919999999996e-01,	 1.5125983212982461e-02,	 1.5892325389507087e+03,	 -1.0798939429431594e+02,	 5.1575953591948860e+02,	 2.2444028833801431e+03,	 4.5577722491186307e+02,	 3.4949032149263863e+00 
1.0095360000000000e+00,	 2.6784849999999999e-01,	 1.7371390410781170e-02,	 1.5713468596236894e+03,	 -1.0060871350409445e+02,	 5.4881540450089233e+02,	 2.7427789724370336e+03,	 4.7015616261443358e+02,	 3.3490242828219228e+00 
1.0100420000000001e+00,	 2.6783780000000001e-01,	 1.9789481698179831e-02,	 1.5550035301257924e+03,	 -9.2444475077884334e+01,	 5.7706180270334698e+02,	 3.2853881430328061e+03,	 4.8210335150065578e+02,	 3.2311515761497134e+00 
1.0105489999999999e+00,	 2.6782709999999998e-01,	 2.2288601663690413e-02,	 1.5406345416875372e+03,	 -8.6576189773236905e+01,	 6.0141268017683046e+02,	 3.8564290054781227e+03,	 4.9217015739249251e+02,	 3.1352270796600994e+00 
1.0110570000000001e+00,	 2.6781630000000001e-01,	 2.4794695756904100e-02,	 1.5284927234820402e+03,	 -8.1408198892132020e+01,	 6.2189814458693922e+02,	 4.4361679743317773e+03,	 5.0048217813576650e+02,	 3.0583688559914357e+00 
1.0115660000000000e+00,	 2.6780559999999998e-01,	 2.7240769151599706e-02,	 1.5185840622233313e+03,	 -7.5866580737434731e+01,	 6.3851145174945987e+02,	 5.0040079857043211e+03,	 5.0712302805042555e+02,	 2.9982428274013566e+00 
1.0120750000000001e+00,	 2.6779480000000000e-01,	 2.9473618338887266e-02,	 1.5108601712707214e+03,	 -6.9883150974965417e+01,	 6.5150511445793973e+02,	 5.5243504628872824e+03,	 5.1225699941445828e+02,	 2.9525716448479442e+00 
1.0125860000000000e+00,	 2.6778399999999997e-01,	 3.1520679778141936e-02,	 1.5046398349134065e+03,	 -6.4484635569701979e+01,	 6.6182414523768853e+02,	 6.0016148285316804e+03,	 5.1629781879128757e+02,	 2.9169618025082480e+00 
1.0130969999999999e+00,	 2.6777319999999999e-01,	 3.3360875057106956e-02,	 1.4996627092018834e+03,	 -5.9563253898554215e+01,	 6.7000247452107544e+02,	 6.4304857153947314e+03,	 5.1947803599653366e+02,	 2.8891406350155586e+00 
1.0136090000000000e+00,	 2.6776240000000001e-01,	 3.4987720789870835e-02,	 1.4957134193735155e+03,	 -5.5127246894344651e+01,	 6.7645878913600222e+02,	 6.8090564306568685e+03,	 5.2197494658126413e+02,	 2.8674345234995853e+00 
1.0141220000000000e+00,	 2.6775159999999998e-01,	 3.6400411616112016e-02,	 1.4925915740173887e+03,	 -5.1230569787525440e+01,	 6.8152387867638856e+02,	 7.1370264956432038e+03,	 5.2392548611776374e+02,	 2.8505399225939825e+00 
1.0146360000000001e+00,	 2.6774070000000000e-01,	 3.7611107086846618e-02,	 1.4901221559775377e+03,	 -4.7903031485535081e+01,	 6.8547549314162052e+02,	 7.4171658018992157e+03,	 5.2544220415453879e+02,	 2.8374042205567021e+00 
1.0151509999999999e+00,	 2.6772979999999996e-01,	 3.8652591625290042e-02,	 1.4881138175515432e+03,	 -4.5053745469645847e+01,	 6.8864254782186538e+02,	 7.6577715811101971e+03,	 5.2665463734864761e+02,	 2.8268918062673611e+00 
1.0156670000000001e+00,	 2.6771889999999998e-01,	 3.9550586540187810e-02,	 1.4864418542005228e+03,	 -4.2667872989120909e+01,	 6.9123986847967581e+02,	 7.8652339449780420e+03,	 5.2764688187200886e+02,	 2.8182751827460208e+00 
1.0161849999999999e+00,	 2.6770800000000000e-01,	 4.0324842169111544e-02,	 1.4850409379582816e+03,	 -4.0739020207273597e+01,	 6.9338966092119017e+02,	 8.0441465737336384e+03,	 5.2846674972208973e+02,	 2.8111506143726044e+00 
1.0167029999999999e+00,	 2.6769699999999996e-01,	 4.0987680085207104e-02,	 1.4838651054265174e+03,	 -3.9229459424623201e+01,	 6.9517434673047660e+02,	 8.1974167102654301e+03,	 5.2914641157771666e+02,	 2.8052416945890841e+00 
1.0172230000000000e+00,	 2.6768599999999998e-01,	 4.1565776068338500e-02,	 1.4828537788355129e+03,	 -3.7942312139685384e+01,	 6.9672497835463241e+02,	 8.3315769880433545e+03,	 5.2973623060812281e+02,	 2.8001466305008034e+00 
1.0177430000000001e+00,	 2.6767500000000000e-01,	 4.2064074509541652e-02,	 1.4819857135273933e+03,	 -3.6853835662952491e+01,	 6.9806383172032884e+02,	 8.4476597312684862e+03,	 5.3024496702423050e+02,	 2.7957717153177968e+00 
1.0182650000000000e+00,	 2.6766400000000001e-01,	 4.2493705876753787e-02,	 1.4812384838474461e+03,	 -3.5940751305106360e+01,	 6.9921778949630516e+02,	 8.5480492188371754e+03,	 5.3068305564275545e+02,	 2.7920138713590701e+00 
1.0187889999999999e+00,	 2.6765289999999997e-01,	 4.2862981930348265e-02,	 1.4805934754530967e+03,	 -3.5193072779183041e+01,	 7.0021144833492872e+02,	 8.6345861258433342e+03,	 5.3105999878315583e+02,	 2.7887840958046235e+00 
1.0193129999999999e+00,	 2.6764189999999999e-01,	 4.3184080589472998e-02,	 1.4800193948165108e+03,	 -3.4575486379191297e+01,	 7.0109342359298489e+02,	 8.7102277033636346e+03,	 5.3139435091480868e+02,	 2.7859219898498289e+00 
1.0198389999999999e+00,	 2.6763070000000000e-01,	 4.3455368250753648e-02,	 1.4795161275291698e+03,	 -3.4115323332554055e+01,	 7.0185253878070557e+02,	 8.7744367404385630e+03,	 5.3168195908124358e+02,	 2.7834485878842390e+00 
1.0203670000000000e+00,	 2.6761960000000001e-01,	 4.3703215095400177e-02,	 1.4790449853842570e+03,	 -3.3675131277589273e+01,	 7.0257487802322339e+02,	 8.8335636326367858e+03,	 5.3195548945757685e+02,	 2.7811129415987619e+00 
1.0208950000000001e+00,	 2.6760839999999997e-01,	 4.3917033256809762e-02,	 1.4786144176894243e+03,	 -3.3377222265864873e+01,	 7.0322439868585286e+02,	 8.8849883402816540e+03,	 5.3220132536311576e+02,	 2.7790067713621838e+00 
1.0214259999999999e+00,	 2.6759719999999998e-01,	 4.4115114738633110e-02,	 1.4782037333384342e+03,	 -3.3087941552222695e+01,	 7.0385827768674403e+02,	 8.9331077630704149e+03,	 5.3244113164547787e+02,	 2.7769717954073032e+00 
1.0219570000000000e+00,	 2.6758599999999999e-01,	 4.4289793979696138e-02,	 1.4778289120628515e+03,	 -3.2861650387757983e+01,	 7.0443499654474135e+02,	 8.9758279896475797e+03,	 5.3265921955912211e+02,	 2.7751218333409953e+00 
1.0224910000000000e+00,	 2.6757470000000000e-01,	 4.4444494753780275e-02,	 1.4774849646643356e+03,	 -3.2684201975411220e+01,	 7.0496152779517115e+02,	 9.0139122856662325e+03,	 5.3285825093743961e+02,	 2.7734325776835989e+00 
1.0230260000000000e+00,	 2.6756340000000001e-01,	 4.4586460863295957e-02,	 1.4771626061443253e+03,	 -3.2504262322200489e+01,	 7.0545983210254440e+02,	 9.0490966941837796e+03,	 5.3304654394767670e+02,	 2.7718408459383714e+00 
1.0235620000000001e+00,	 2.6755210000000001e-01,	 4.4713457868660232e-02,	 1.4768668835091225e+03,	 -3.2358319394063187e+01,	 7.0591317217597179e+02,	 9.0807031796494884e+03,	 5.3321778867243972e+02,	 2.7703901849585129e+00 
1.0241000000000000e+00,	 2.6754069999999996e-01,	 4.4826309901601809e-02,	 1.4765998764807623e+03,	 -3.2259571816897889e+01,	 7.0631681154514126e+02,	 9.1088273409369940e+03,	 5.3337021317906613e+02,	 2.7690939399978167e+00 
1.0246400000000000e+00,	 2.6752929999999997e-01,	 4.4931984268327577e-02,	 1.4763443468577671e+03,	 -3.2160076876169725e+01,	 7.0670511643808595e+02,	 9.1353201340934775e+03,	 5.3351680589972545e+02,	 2.7678501781290863e+00 
1.0251820000000000e+00,	 2.6751779999999997e-01,	 4.5029839006896798e-02,	 1.4761041859280103e+03,	 -3.2070612303641447e+01,	 7.0707340423170763e+02,	 9.1599865036274114e+03,	 5.3365580456431212e+02,	 2.7666756805642434e+00 
1.0257250000000000e+00,	 2.6750639999999998e-01,	 4.5123169125770732e-02,	 1.4758746406216339e+03,	 -3.1962799128510845e+01,	 7.0742819422343860e+02,	 9.1835775065528378e+03,	 5.3378967467768757e+02,	 2.7655475122294022e+00 
1.0262700000000000e+00,	 2.6749479999999998e-01,	 4.5201332737971847e-02,	 1.4756646263581692e+03,	 -3.1930985113849118e+01,	 7.0773710159945438e+02,	 9.2035026261909970e+03,	 5.3390620492947323e+02,	 2.7645493527182325e+00 
1.0268170000000001e+00,	 2.6748329999999998e-01,	 4.5286740552696811e-02,	 1.4754475374620347e+03,	 -3.1828288504739767e+01,	 7.0807303492881636e+02,	 9.2252693970693144e+03,	 5.3403290141770447e+02,	 2.7634829105573759e+00 
1.0273660000000000e+00,	 2.6747169999999998e-01,	 4.5359435492025549e-02,	 1.4752569786058343e+03,	 -3.1812008973838125e+01,	 7.0835460849038031e+02,	 9.2437523601973917e+03,	 5.3413907309247884e+02,	 2.7625762755326102e+00 
1.0279170000000000e+00,	 2.6745999999999998e-01,	 4.5430093961430745e-02,	 1.4750626299964188e+03,	 -3.1784990511133923e+01,	 7.0864471323512373e+02,	 9.2619434278864883e+03,	 5.3424843951387629e+02,	 2.7616459614869902e+00 
1.0284690000000001e+00,	 2.6744839999999998e-01,	 4.5503295689246548e-02,	 1.4748718417656328e+03,	 -3.1731717465256558e+01,	 7.0893890347239449e+02,	 9.2807184857627180e+03,	 5.3435932326385785e+02,	 2.7607137938507940e+00 
1.0290239999999999e+00,	 2.6743659999999997e-01,	 4.5566502687334781e-02,	 1.4746913522677310e+03,	 -3.1719036799256365e+01,	 7.0920739973486991e+02,	 9.2971297660777182e+03,	 5.3446050257463128e+02,	 2.7598530238041543e+00 
1.0295810000000001e+00,	 2.6742489999999997e-01,	 4.5638372872834260e-02,	 1.4745049065993990e+03,	 -3.1639483071691949e+01,	 7.0950075364126189e+02,	 9.3156454451911213e+03,	 5.3457102727202687e+02,	 2.7589305210184873e+00 
1.0301400000000001e+00,	 2.6741310000000001e-01,	 4.5698074170726355e-02,	 1.4743366700057850e+03,	 -3.1638124497727549e+01,	 7.0974934496977460e+02,	 9.3310998356629570e+03,	 5.3466466923287157e+02,	 2.7581326776075232e+00 
1.0307010000000001e+00,	 2.6740120000000001e-01,	 4.5754909126699786e-02,	 1.4741774725297314e+03,	 -3.1655615691292510e+01,	 7.0998179550237035e+02,	 9.3457648140613437e+03,	 5.3475221627582323e+02,	 2.7573841967743817e+00 
1.0312640000000000e+00,	 2.6738930000000000e-01,	 4.5816949132098841e-02,	 1.4740063142145482e+03,	 -3.1613095534964643e+01,	 7.1024478001012812e+02,	 9.3619033859399751e+03,	 5.3485124594731019e+02,	 2.7565520138955462e+00 
1.0318290000000001e+00,	 2.6737739999999999e-01,	 4.5878185814520592e-02,	 1.4738362870237770e+03,	 -3.1568467704569706e+01,	 7.1050650549231318e+02,	 9.3778705219100430e+03,	 5.3494978331815719e+02,	 2.7557247066453638e+00 
1.0323970000000000e+00,	 2.6736539999999998e-01,	 4.5931819222072581e-02,	 1.4736863465355864e+03,	 -3.1599346949382927e+01,	 7.1072546142704869e+02,	 9.3917269677466684e+03,	 5.3503220438421499e+02,	 2.7550212457747465e+00 
1.0329660000000001e+00,	 2.6735330000000002e-01,	 4.5983871493010600e-02,	 1.4735390466037359e+03,	 -3.1619674116033490e+01,	 7.1093979861851562e+02,	 9.4052056717587493e+03,	 5.3511287453155080e+02,	 2.7543315256826473e+00 
1.0335390000000000e+00,	 2.6734120000000000e-01,	 4.6044543920198966e-02,	 1.4733717231288624e+03,	 -3.1570019340663912e+01,	 7.1119999768181901e+02,	 9.4210619496778327e+03,	 5.3521078938416849e+02,	 2.7535130827762084e+00 
1.0341130000000001e+00,	 2.6732909999999999e-01,	 4.6102659692626155e-02,	 1.4732035968939499e+03,	 -3.1535493704302517e+01,	 7.1145662150328985e+02,	 9.4363565889126930e+03,	 5.3530734130406995e+02,	 2.7527010559590956e+00 
1.0346900000000001e+00,	 2.6731689999999997e-01,	 4.6158818133255397e-02,	 1.4730421008640024e+03,	 -3.1524684511930765e+01,	 7.1169809456666803e+02,	 9.4510578396655656e+03,	 5.3539817701589607e+02,	 2.7519320322103678e+00 
1.0352690000000000e+00,	 2.6730470000000001e-01,	 4.6217428051421441e-02,	 1.4728789917675922e+03,	 -3.1509550118387978e+01,	 7.1194463339192885e+02,	 9.4663363621921853e+03,	 5.3549090243514161e+02,	 2.7511503763905703e+00 
1.0358510000000001e+00,	 2.6729239999999999e-01,	 4.6270391247313788e-02,	 1.4727223980412482e+03,	 -3.1544057673554427e+01,	 7.1217239040403638e+02,	 9.4802162089410176e+03,	 5.3557654958355749e+02,	 2.7504194863875560e+00 
1.0364350000000000e+00,	 2.6727999999999996e-01,	 4.6323104391054436e-02,	 1.4725635259262731e+03,	 -3.1567545301128192e+01,	 7.1240461868164903e+02,	 9.4941113354293229e+03,	 5.3566386403417323e+02,	 2.7496755798645003e+00 
1.0370220000000001e+00,	 2.6726759999999999e-01,	 4.6385116569294810e-02,	 1.4723910347239396e+03,	 -3.1516045027350554e+01,	 7.1267362333982578e+02,	 9.5104107717714487e+03,	 5.3576498807992471e+02,	 2.7488326489147261e+00 
1.0376120000000000e+00,	 2.6725519999999997e-01,	 4.6447770239765609e-02,	 1.4722188033140947e+03,	 -3.1470109407208724e+01,	 7.1294161020195702e+02,	 9.5268377817151249e+03,	 5.3586571054138108e+02,	 2.7479928049833884e+00 
1.0382039999999999e+00,	 2.6724270000000000e-01,	 4.6501602817718944e-02,	 1.4720578117988641e+03,	 -3.1503917073131923e+01,	 7.1317571563418528e+02,	 9.5410112177324609e+03,	 5.3595368322763682e+02,	 2.7472427773401171e+00 
1.0387980000000001e+00,	 2.6723009999999997e-01,	 4.6556410853481306e-02,	 1.4718983027427803e+03,	 -3.1515130446176670e+01,	 7.1340954599088286e+02,	 9.5553884269023001e+03,	 5.3604153813312871e+02,	 2.7464954634329670e+00 
1.0393960000000000e+00,	 2.6721750000000000e-01,	 4.6616954265487433e-02,	 1.4717287791933668e+03,	 -3.1500008269400951e+01,	 7.1366870434614793e+02,	 9.5712902268115231e+03,	 5.3613889247202655e+02,	 2.7456800187301518e+00 
1.0399959999999999e+00,	 2.6720479999999996e-01,	 4.6670859931196088e-02,	 1.4715716852949270e+03,	 -3.1536094241778429e+01,	 7.1389919615712233e+02,	 9.5854528095927017e+03,	 5.3622546320673143e+02,	 2.7449452890739416e+00 
1.0405990000000001e+00,	 2.6719199999999999e-01,	 4.6726569214479492e-02,	 1.4714110525693422e+03,	 -3.1548478797595095e+01,	 7.1413830145463180e+02,	 9.6001088858989551e+03,	 5.3631525432551609e+02,	 2.7441867759977305e+00 
1.0412049999999999e+00,	 2.6717920000000001e-01,	 4.6790087375613236e-02,	 1.4712322690724900e+03,	 -3.1487209678361033e+01,	 7.1441768796912118e+02,	 9.6169197538391345e+03,	 5.3642015319247002e+02,	 2.7433144807566179e+00 
1.0418140000000000e+00,	 2.6716639999999997e-01,	 4.6850877925311410e-02,	 1.4710601200162346e+03,	 -3.1477080190871781e+01,	 7.1468069425067381e+02,	 9.6329592144453090e+03,	 5.3651888317222074e+02,	 2.7424884636901794e+00 
1.0424260000000001e+00,	 2.6715339999999999e-01,	 4.6902377448299178e-02,	 1.4709104016185656e+03,	 -3.1521913111979821e+01,	 7.1489459530973647e+02,	 9.6464342517764544e+03,	 5.3659916613815039e+02,	 2.7418009871023719e+00 
1.0430400000000000e+00,	 2.6714040000000000e-01,	 4.6962867673040899e-02,	 1.4707400294499312e+03,	 -3.1492431155842571e+01,	 7.1515526927019812e+02,	 9.6623972470062981e+03,	 5.3669698802831965e+02,	 2.7409826992088528e+00 
1.0436580000000000e+00,	 2.6712740000000001e-01,	 4.7026529563131581e-02,	 1.4705623775595277e+03,	 -3.1431411347620489e+01,	 7.1543315325865842e+02,	 9.6792549470115591e+03,	 5.3680124861428533e+02,	 2.7401170290473704e+00 
1.0442790000000000e+00,	 2.6711429999999997e-01,	 4.7083038127608445e-02,	 1.4704036911496960e+03,	 -3.1431501847681670e+01,	 7.1566997128047569e+02,	 9.6940936596293723e+03,	 5.3689008548954803e+02,	 2.7393681389431448e+00 
1.0449029999999999e+00,	 2.6710109999999998e-01,	 4.7135875226358398e-02,	 1.4702571028222624e+03,	 -3.1466644553500888e+01,	 7.1588335511364744e+02,	 9.7078661074126485e+03,	 5.3697011897616960e+02,	 2.7386883162156179e+00 
1.0455300000000001e+00,	 2.6708779999999999e-01,	 4.7189525694379869e-02,	 1.4701092603937705e+03,	 -3.1474105844649330e+01,	 7.1610374694808752e+02,	 9.7219077512300773e+03,	 5.3705276842023409e+02,	 2.7379919229004726e+00 
1.0461600000000000e+00,	 2.6707449999999999e-01,	 4.7246382129971592e-02,	 1.4699526956054940e+03,	 -3.1447935192440230e+01,	 7.1634491840768851e+02,	 9.7368993363907502e+03,	 5.3714319588779756e+02,	 2.7372385323900761e+00 
1.0467930000000001e+00,	 2.6706110000000000e-01,	 4.7301562181924495e-02,	 1.4697996535709331e+03,	 -3.1418833213829714e+01,	 7.1657961061809601e+02,	 9.7514650410601007e+03,	 5.3723117934174479e+02,	 2.7365042843184400e+00 
1.0474300000000001e+00,	 2.6704770000000000e-01,	 4.7360017168968087e-02,	 1.4696417222048844e+03,	 -3.1358996453729539e+01,	 7.1682626054229036e+02,	 9.7668764891691353e+03,	 5.3732363008077868e+02,	 2.7357372142947658e+00 
1.0480700000000001e+00,	 2.6703420000000000e-01,	 4.7411831352096270e-02,	 1.4695017347682690e+03,	 -3.1349994809335037e+01,	 7.1703543401437139e+02,	 9.7804150726456701e+03,	 5.3740202121782693e+02,	 2.7350773635020422e+00 
1.0487139999999999e+00,	 2.6702060000000000e-01,	 4.7460460094551196e-02,	 1.4693686433992525e+03,	 -3.1364737796053390e+01,	 7.1723054603358992e+02,	 9.7931105915796052e+03,	 5.3747513229196556e+02,	 2.7344583376913865e+00 
1.0493610000000000e+00,	 2.6700689999999999e-01,	 4.7505218342338458e-02,	 1.4692441566139373e+03,	 -3.1403782005981853e+01,	 7.1741063861853195e+02,	 9.8048074352663316e+03,	 5.3754260655880046e+02,	 2.7338851176830308e+00 
1.0500110000000000e+00,	 2.6699309999999998e-01,	 4.7552018047838943e-02,	 1.4691224453440379e+03,	 -3.1405156887315126e+01,	 7.1759420506036554e+02,	 9.8169778917508320e+03,	 5.3761137364075319e+02,	 2.7333091339725528e+00 
1.0506650000000000e+00,	 2.6697929999999997e-01,	 4.7603227094769732e-02,	 1.4689893957905128e+03,	 -3.1363396259654998e+01,	 7.1780377801234761e+02,	 9.8304199827470820e+03,	 5.3768987244745040e+02,	 2.7326610416844739e+00 
1.0513220000000001e+00,	 2.6696539999999996e-01,	 4.7651506149781156e-02,	 1.4688592127350939e+03,	 -3.1325077782275301e+01,	 7.1800462832447784e+02,	 9.8431434281727215e+03,	 5.3776509330061435e+02,	 2.7320352591831165e+00 
1.0519829999999999e+00,	 2.6695150000000001e-01,	 4.7700083966523830e-02,	 1.4687323584041596e+03,	 -3.1295265988194590e+01,	 7.1819986026275535e+02,	 9.8558570831420038e+03,	 5.3783819992240547e+02,	 2.7314269150046409e+00 
1.0526480000000000e+00,	 2.6693739999999999e-01,	 4.7740399134748618e-02,	 1.4686245709875218e+03,	 -3.1318564484133407e+01,	 7.1835482445453886e+02,	 9.8663154297860383e+03,	 5.3789622079600633e+02,	 2.7309328676867555e+00 
1.0533159999999999e+00,	 2.6692329999999997e-01,	 4.7786054444941467e-02,	 1.4685071084719930e+03,	 -3.1297590675847474e+01,	 7.1853487477612271e+02,	 9.8782261121810770e+03,	 5.3796362642649262e+02,	 2.7303715600002119e+00 
1.0539879999999999e+00,	 2.6690910000000001e-01,	 4.7828121894742733e-02,	 1.4683967027965505e+03,	 -3.1292696522318991e+01,	 7.1870099068689444e+02,	 9.8892079288807272e+03,	 5.3802580792702452e+02,	 2.7298506491314236e+00 
1.0546640000000000e+00,	 2.6689479999999999e-01,	 4.7868227458450541e-02,	 1.4682920339506297e+03,	 -3.1301069970220894e+01,	 7.1885635042361287e+02,	 9.8996398949096711e+03,	 5.3808395660930853e+02,	 2.7293614989558330e+00 
1.0553440000000001e+00,	 2.6688039999999996e-01,	 4.7909461801027647e-02,	 1.4681817855131349e+03,	 -3.1288667179463168e+01,	 7.1902347562516820e+02,	 9.9104711057330587e+03,	 5.3814650190330599e+02,	 2.7288389713184671e+00 
1.0560270000000000e+00,	 2.6686599999999999e-01,	 4.7955091091514593e-02,	 1.4680678632964705e+03,	 -3.1237768446610197e+01,	 7.1920334243216166e+02,	 9.9223914124343428e+03,	 5.3821380752240486e+02,	 2.7282840873422085e+00 
1.0567150000000001e+00,	 2.6685149999999996e-01,	 4.7991821106479253e-02,	 1.4679855446558129e+03,	 -3.1202999344461205e+01,	 7.1935228418107431e+02,	 9.9320476510347617e+03,	 5.3826953470776027e+02,	 2.7278473565349155e+00 
1.0000000000000000e+00,	 2.6872979999999996e-01,	 2.7968941849126783e-02,	 1.5887055656450566e+03,	 4.1980130394317371e+02,	 4.5997576631774660e+02,	 3.7011861220668438e+03,	 4.3042398338205766e+02,	 3.8177105013096821e+00 
1.0004999999999999e+00,	 2.6871940000000000e-01,	 2.5447743561720981e-02,	 1.5983089955260841e+03,	 3.8911702959006959e+02,	 4.5673017062538213e+02,	 3.3437894123492315e+03,	 4.2890275624022775e+02,	 3.8353531290947442e+00 
1.0009999999999999e+00,	 2.6870909999999998e-01,	 2.2487268494260009e-02,	 1.6126169353715989e+03,	 3.4960096283716166e+02,	 4.4967399808369674e+02,	 2.9091386379202595e+03,	 4.2557673113107410e+02,	 3.8772726793576031e+00 
1.0014989999999999e+00,	 2.6869870000000001e-01,	 1.9332919146134050e-02,	 1.6272679134995280e+03,	 3.0249230261964499e+02,	 4.4024551253597213e+02,	 2.4486251732534238e+03,	 4.2109148109705859e+02,	 3.9306049026725152e+00 
1.0019990000000001e+00,	 2.6868839999999999e-01,	 1.6706593081870419e-02,	 1.6398908835938223e+03,	 2.5455030583409155e+02,	 4.2992815905644676e+02,	 2.0663968127277376e+03,	 4.1612799326712383e+02,	 3.9880264454182606e+00 
1.0024999999999999e+00,	 2.6867799999999997e-01,	 1.4689764026968576e-02,	 1.6502047133071903e+03,	 2.1070136896528356e+02,	 4.1976076547433496e+02,	 1.7739713437473558e+03,	 4.1117803634892636e+02,	 4.0459401205773817e+00 
1.0029999999999999e+00,	 2.6866770000000001e-01,	 1.3186360444688799e-02,	 1.6583935810779110e+03,	 1.7178324797271026e+02,	 4.1047724525304591e+02,	 1.5571984666479084e+03,	 4.0660576329899914e+02,	 4.1004506132740195e+00 
1.0035000000000001e+00,	 2.6865729999999999e-01,	 1.2084289868099771e-02,	 1.6646345559742556e+03,	 1.3679617871534739e+02,	 4.0250373267717731e+02,	 1.3993327030522557e+03,	 4.0263724212009629e+02,	 4.1482648278645247e+00 
1.0040009999999999e+00,	 2.6864689999999997e-01,	 1.1311531370043556e-02,	 1.6687677017751594e+03,	 1.0398115917066636e+02,	 3.9717004860080135e+02,	 1.2924919050556409e+03,	 3.9996061876369112e+02,	 4.1804218355682510e+00 
1.0045020000000000e+00,	 2.6863660000000000e-01,	 1.0832523635321580e-02,	 1.6706571293914117e+03,	 7.1198372942310783e+01,	 3.9449892930698991e+02,	 1.2294345442033796e+03,	 3.9861340634512271e+02,	 4.1949757449326981e+00 
1.0050040000000000e+00,	 2.6862619999999998e-01,	 1.0644396716726352e-02,	 1.6698249709777424e+03,	 3.4368437332699557e+01,	 3.9576631207039679e+02,	 1.2119642622448578e+03,	 3.9925319345288023e+02,	 4.1832567591996801e+00 
1.0055050000000001e+00,	 2.6861580000000002e-01,	 1.0711220245846377e-02,	 1.6661307155211466e+03,	 -6.0351606307887264e+00,	 4.0103773381752524e+02,	 1.2358168841786401e+03,	 4.0190333068371439e+02,	 4.1456278630857231e+00 
1.0060070000000001e+00,	 2.6860539999999999e-01,	 1.1030436726369178e-02,	 1.6595154839645575e+03,	 -4.7600049805801177e+01,	 4.0993067983012361e+02,	 1.3008675128442317e+03,	 4.0633496792374200e+02,	 4.0857866863097829e+00 
1.0065100000000000e+00,	 2.6859499999999997e-01,	 1.1582574064882863e-02,	 1.6502196450055653e+03,	 -9.0119590054917524e+01,	 4.2171273042224141e+02,	 1.4052439846207376e+03,	 4.1213295433791046e+02,	 4.0100616584237230e+00 
1.0070129999999999e+00,	 2.6858460000000001e-01,	 1.2349246743280810e-02,	 1.6389310022231011e+03,	 -1.2987939358921196e+02,	 4.3524940491132867e+02,	 1.5463528232072745e+03,	 4.1869529398883361e+02,	 3.9266483506492076e+00 
1.0075160000000001e+00,	 2.6857409999999998e-01,	 1.3308558026746860e-02,	 1.6265722133619142e+03,	 -1.6444661674708675e+02,	 4.4958138480537593e+02,	 1.7213503044323465e+03,	 4.2553290372942394e+02,	 3.8419211535636850e+00 
1.0080199999999999e+00,	 2.6856370000000002e-01,	 1.4440109609564520e-02,	 1.6140245116855072e+03,	 -1.9226921322692866e+02,	 4.6422043202919082e+02,	 1.9285223604599269e+03,	 4.3240540336261284e+02,	 3.7590559823269536e+00 
1.0085249999999999e+00,	 2.6855329999999999e-01,	 1.5724258718034186e-02,	 1.6020520079625353e+03,	 -2.1285314680447743e+02,	 4.8071389974519053e+02,	 2.1746371260271926e+03,	 4.4001990861260617e+02,	 3.6728571899530271e+00 
1.0090300000000001e+00,	 2.6854279999999997e-01,	 1.7140267159080281e-02,	 1.5910103472701210e+03,	 -2.2696552907278260e+02,	 4.9622348322004211e+02,	 2.4469485462274884e+03,	 4.4706188302614146e+02,	 3.5948439202607800e+00 
1.0095360000000000e+00,	 2.6853230000000000e-01,	 1.8672990895442967e-02,	 1.5809600982868058e+03,	 -2.3599553730941219e+02,	 5.0979129167512218e+02,	 2.7386481243687099e+03,	 4.5313247981604877e+02,	 3.5276151528016322e+00 
1.0100420000000001e+00,	 2.6852179999999998e-01,	 2.0304537643416030e-02,	 1.5719451548242530e+03,	 -2.3887271755001541e+02,	 5.2413890794180168e+02,	 3.0617479909850613e+03,	 4.5946473758765262e+02,	 3.4605291433072640e+00 
1.0105489999999999e+00,	 2.6851130000000001e-01,	 2.2034828279141817e-02,	 1.5637999362201995e+03,	 -2.3381011569153137e+02,	 5.3889995427459746e+02,	 3.4162351317190760e+03,	 4.6588964730448362e+02,	 3.3938987305707786e+00 
1.0110570000000001e+00,	 2.6850079999999998e-01,	 2.3835932728939323e-02,	 1.5562685243489241e+03,	 -2.2230349709677608e+02,	 5.5415515364420435e+02,	 3.8000863481502652e+03,	 4.7243783956877212e+02,	 3.3275609364877989e+00 
1.0115660000000000e+00,	 2.6849030000000002e-01,	 2.5592834145260514e-02,	 1.5492849224375170e+03,	 -2.0668830941565915e+02,	 5.6990187911647911e+02,	 4.1961249186520208e+03,	 4.7910315528795360e+02,	 3.2623687073420413e+00 
1.0120750000000001e+00,	 2.6847969999999999e-01,	 2.7436582994550471e-02,	 1.5424957287874797e+03,	 -1.8854553800991701e+02,	 5.8544910679391239e+02,	 4.6211398066198426e+03,	 4.8559427784081123e+02,	 3.2001537495524115e+00 
1.0125860000000000e+00,	 2.6846919999999996e-01,	 2.9391229746370116e-02,	 1.5360490774099567e+03,	 -1.6950907508165685e+02,	 5.9994572032615770e+02,	 5.0729391704349164e+03,	 4.9156954262974705e+02,	 3.1437541137940523e+00 
1.0130969999999999e+00,	 2.6845859999999999e-01,	 3.1253567666374146e-02,	 1.5302843970225517e+03,	 -1.5088396666491417e+02,	 6.1304861272629853e+02,	 5.5121934625772201e+03,	 4.9690852039498265e+02,	 3.0945432003588582e+00 
1.0136090000000000e+00,	 2.6844799999999996e-01,	 3.3023396354021087e-02,	 1.5251167367423177e+03,	 -1.3339432151874155e+02,	 6.2453230994269654e+02,	 5.9334404211695974e+03,	 5.0154100082471228e+02,	 3.0524708571961816e+00 
1.0141220000000000e+00,	 2.6843729999999999e-01,	 3.4683533628675302e-02,	 1.5205606016791305e+03,	 -1.1750998730258283e+02,	 6.3432940908682986e+02,	 6.3294813153563982e+03,	 5.0545955419552212e+02,	 3.0172433317529856e+00 
1.0146360000000001e+00,	 2.6842669999999996e-01,	 3.6219612824551210e-02,	 1.5166074489900250e+03,	 -1.0363762347001210e+02,	 6.4251701191501365e+02,	 6.6951200998963232e+03,	 5.0871120317399033e+02,	 2.9882266448747772e+00 