TITLE = "Final State"
VARIABLES = "X", "Y", "rho", "u", "v", "T", "p", "c", "M"
ZONE I=80, J=25, DATAPACKING=POINT, STRANDID=79000, SOLUTIONTIME=0.001906
9.5381020000000005e-01,	 2.7986069999999996e-01,	 4.6814770942457382e-02,	 1.5492624308317556e+03,	 1.4192459582228179e+02,	 5.8681879028153116e+02,	 7.9034525819652845e+03,	 4.8616198039347614e+02,	 3.2000642077433734e+00 
9.5459059999999996e-01,	 2.7996050000000000e-01,	 4.8560894732339571e-02,	 1.5457212435227548e+03,	 1.2558634103482187e+02,	 5.9595154272528248e+02,	 8.3258305133533104e+03,	 4.8993048195652915e+02,	 3.1653769490380665e+00 
9.5535530000000002e-01,	 2.8005829999999998e-01,	 5.0359954057268584e-02,	 1.5415681039193796e+03,	 1.0786976289704720e+02,	 6.0543727535683104e+02,	 8.7717131010598314e+03,	 4.9381418897330673e+02,	 3.1293907141485522e+00 
9.5611999999999997e-01,	 2.8015600000000002e-01,	 5.1868185630549943e-02,	 1.5381565472043512e+03,	 9.3133237394882343e+01,	 6.1307329264246334e+02,	 9.1483630532289499e+03,	 4.9691852248694249e+02,	 3.1010587086602213e+00 
9.5686959999999999e-01,	 2.8025180000000000e-01,	 5.3105455523396752e-02,	 1.5353922515778554e+03,	 8.1212299512084087e+01,	 6.1913532073401836e+02,	 9.4592054110703230e+03,	 4.9936922799617224e+02,	 3.0789613524381023e+00 
9.5761920000000000e-01,	 2.8034759999999997e-01,	 5.4116695862845510e-02,	 1.5331622741384504e+03,	 7.1581971505190893e+01,	 6.2396309008903074e+02,	 9.7144923408525701e+03,	 5.0131238801248543e+02,	 3.0616287372642170e+00 
9.5835420000000004e-01,	 2.8044150000000001e-01,	 5.4928972597221182e-02,	 1.5313794873676607e+03,	 6.3918367725943249e+01,	 6.2776250314666663e+02,	 9.9203452025105726e+03,	 5.0283635806866539e+02,	 3.0481345057090086e+00 
9.5908919999999998e-01,	 2.8053529999999999e-01,	 5.5584125856621508e-02,	 1.5299519467510331e+03,	 5.7784114693164497e+01,	 6.3077532052585934e+02,	 1.0086846469459146e+04,	 5.0404154377324943e+02,	 3.0375328954902345e+00 
9.5981019999999995e-01,	 2.8062739999999997e-01,	 5.6109428175471820e-02,	 1.5288166728722153e+03,	 5.2925085750312675e+01,	 6.3314304259543746e+02,	 1.0220393547594151e+04,	 5.0498666036998520e+02,	 3.0292532610439116e+00 
9.6053109999999997e-01,	 2.8071940000000001e-01,	 5.6531020478015448e-02,	 1.5279030799075499e+03,	 4.9033222035948768e+01,	 6.3502845451444966e+02,	 1.0327850636203284e+04,	 5.0573799146470310e+02,	 3.0226909712321484e+00 
9.6123840000000005e-01,	 2.8080959999999999e-01,	 5.6870236046252520e-02,	 1.5271696974321330e+03,	 4.5936145318243582e+01,	 6.3652383624158847e+02,	 1.0414289348579357e+04,	 5.0633310389415385e+02,	 3.0175005194782658e+00 
9.6194579999999996e-01,	 2.8089989999999998e-01,	 5.7148840754949554e-02,	 1.5265752340346667e+03,	 4.3440778783836350e+01,	 6.3772772980564264e+02,	 1.0485102110413496e+04,	 5.0681170593031698e+02,	 3.0133344876837982e+00 
9.6264000000000005e-01,	 2.8098839999999997e-01,	 5.7373876565321787e-02,	 1.5260868353198114e+03,	 4.1434054558634344e+01,	 6.3869970926993437e+02,	 1.0542433025149909e+04,	 5.0719778214260612e+02,	 3.0099682284903908e+00 
9.6333429999999998e-01,	 2.8107689999999996e-01,	 5.7562690892390640e-02,	 1.5256820461939678e+03,	 3.9796231221395388e+01,	 6.3949797820500908e+02,	 1.0590347261524512e+04,	 5.0751463981313793e+02,	 3.0072058323136859e+00 
9.6401590000000004e-01,	 2.8116379999999996e-01,	 5.7721156918929054e-02,	 1.5253432482889164e+03,	 3.8459714300656643e+01,	 6.4015567471730401e+02,	 1.0630423446854878e+04,	 5.0777555137318541e+02,	 3.0049261432226673e+00 
9.6469760000000004e-01,	 2.8125069999999996e-01,	 5.7856638381607636e-02,	 1.5250534743989890e+03,	 3.7348409146783347e+01,	 6.4070996527953434e+02,	 1.0664601027582943e+04,	 5.0799533720618228e+02,	 3.0030014520719939e+00 
9.6536699999999998e-01,	 2.8133599999999997e-01,	 5.7973487263966790e-02,	 1.5248026697730156e+03,	 3.6422328263274338e+01,	 6.4118014752371209e+02,	 1.0693981531011601e+04,	 5.0818169811584499e+02,	 3.0013627328811974e+00 
9.6603649999999996e-01,	 2.8142129999999999e-01,	 5.8077537199493892e-02,	 1.5245818543637754e+03,	 3.5634960808732458e+01,	 6.4158754860012482e+02,	 1.0719981998169767e+04,	 5.0834311990591533e+02,	 2.9999388137197402e+00 
9.6669430000000001e-01,	 2.8150510000000001e-01,	 5.8170246182378683e-02,	 1.5243905584326574e+03,	 3.4963158089323898e+01,	 6.4194679011330118e+02,	 1.0743106248044487e+04,	 5.0848541724010471e+02,	 2.9986926045275060e+00 
9.6735210000000005e-01,	 2.8158879999999997e-01,	 5.8253544745983016e-02,	 1.5242311487305271e+03,	 3.4376242152321637e+01,	 6.4228523894073487e+02,	 1.0764162267902426e+04,	 5.0861944206786137e+02,	 2.9975628533667189e+00 
9.6799869999999999e-01,	 2.8167110000000001e-01,	 5.8331863294198302e-02,	 1.5240782847468261e+03,	 3.3865583778940689e+01,	 6.4259737806110161e+02,	 1.0783872289474324e+04,	 5.0874301702465448e+02,	 2.9965118737862650e+00 
9.6864519999999998e-01,	 2.8175339999999999e-01,	 5.8405395841788152e-02,	 1.5239120603660415e+03,	 3.3409734621939521e+01,	 6.4285044683880790e+02,	 1.0801718604400612e+04,	 5.0884318417794384e+02,	 2.9955756422586606e+00 
9.6928099999999995e-01,	 2.8183429999999998e-01,	 5.8473850936840689e-02,	 1.5237538522180967e+03,	 3.2995339001278083e+01,	 6.4306965128292541e+02,	 1.0818066529114210e+04,	 5.0892993155517928e+02,	 2.9947365169454367e+00 
9.6991680000000002e-01,	 2.8191519999999998e-01,	 5.8540193789454888e-02,	 1.5236120437910740e+03,	 3.2614549478443635e+01,	 6.4329120363201969e+02,	 1.0834071717777835e+04,	 5.0901759306405717e+02,	 2.9939261418049754e+00 
9.7054220000000002e-01,	 2.8199479999999999e-01,	 5.8604093352589919e-02,	 1.5234804375298847e+03,	 3.2265095122843832e+01,	 6.4350457143599215e+02,	 1.0849495035278749e+04,	 5.0910200192981011e+02,	 2.9931566901995685e+00 
9.7116760000000002e-01,	 2.8207430000000000e-01,	 5.8664111826515895e-02,	 1.5233525313980917e+03,	 3.1936985743069194e+01,	 6.4371228651274362e+02,	 1.0864112042830589e+04,	 5.0918416112023078e+02,	 2.9924090130215668e+00 
9.7178310000000001e-01,	 2.8215249999999997e-01,	 5.8723394186662815e-02,	 1.5232306769666343e+03,	 3.1629732429873425e+01,	 6.4391114613016384e+02,	 1.0878450250270940e+04,	 5.0926280522151183e+02,	 2.9916950935088686e+00 
9.7239860000000000e-01,	 2.8223080000000000e-01,	 5.8783262713719628e-02,	 1.5231142618684908e+03,	 3.1339386990695512e+01,	 6.4410260388125118e+02,	 1.0892778684148057e+04,	 5.0933851059276890e+02,	 2.9910101307856589e+00 
9.7300460000000000e-01,	 2.8230780000000000e-01,	 5.8838842380383477e-02,	 1.5229988091169948e+03,	 3.1062363525738213e+01,	 6.4428887216714054e+02,	 1.0906230888772105e+04,	 5.0941215317128922e+02,	 2.9903400092393162e+00 
9.7361059999999999e-01,	 2.8238479999999999e-01,	 5.8895012575295065e-02,	 1.5228868281601183e+03,	 3.0797294911158886e+01,	 6.4447044022997272e+02,	 1.0919718901600791e+04,	 5.0948392723595947e+02,	 2.9896884303685067e+00 
9.7420750000000000e-01,	 2.8246060000000001e-01,	 5.8949144468562593e-02,	 1.5227768632012376e+03,	 3.0543104362634921e+01,	 6.4464730463889509e+02,	 1.0932754984251053e+04,	 5.0955383222041934e+02,	 2.9890524716408153e+00 
9.7480440000000002e-01,	 2.8253639999999997e-01,	 5.9003250570242576e-02,	 1.5226695718363671e+03,	 3.0297213559786162e+01,	 6.4482056934361276e+02,	 1.0945730686588373e+04,	 5.0962230513737006e+02,	 2.9884307359046458e+00 
9.7539260000000005e-01,	 2.8261110000000000e-01,	 5.9056354090430085e-02,	 1.5225645678974442e+03,	 3.0060653110660233e+01,	 6.4498951963093918e+02,	 1.0958452440993417e+04,	 5.0968906417070781e+02,	 2.9878241388662752e+00 
9.7598090000000004e-01,	 2.8268579999999999e-01,	 5.9108639111348796e-02,	 1.5224608678743898e+03,	 2.9830126135237698e+01,	 6.4515613680477065e+02,	 1.0970987762811821e+04,	 5.0975489273465331e+02,	 2.9872260134388973e+00 
9.7656080000000001e-01,	 2.8275939999999999e-01,	 5.9159652056074215e-02,	 1.5223584583275488e+03,	 2.9606885061541384e+01,	 6.4531970884493114e+02,	 1.0983240102013020e+04,	 5.0981950993239928e+02,	 2.9866380147436868e+00 
9.7714080000000003e-01,	 2.8283300000000000e-01,	 5.9210839335157611e-02,	 1.5222581957051780e+03,	 2.9388617280548843e+01,	 6.4548079787278652e+02,	 1.0995487319481119e+04,	 5.0988313824214998e+02,	 2.9860604174671992e+00 
9.7771290000000000e-01,	 2.8290559999999998e-01,	 5.9260710420195706e-02,	 1.5221585489332722e+03,	 2.9177468141252696e+01,	 6.4563949843360820e+02,	 1.1007454081647924e+04,	 5.0994581537144421e+02,	 2.9854900682384211e+00 
9.7828499999999996e-01,	 2.8297810000000001e-01,	 5.9308984754199393e-02,	 1.5220594159849518e+03,	 2.8968336154604344e+01,	 6.4579726507326745e+02,	 1.1019112799036779e+04,	 5.1000811602352059e+02,	 2.9849232015227605e+00 
9.7884959999999999e-01,	 2.8304979999999996e-01,	 5.9360602811347848e-02,	 1.5219654392199150e+03,	 2.8768031559709193e+01,	 6.4594962415435634e+02,	 1.1031304937728126e+04,	 5.1006827405574410e+02,	 2.9843794988412400e+00 
9.7941429999999996e-01,	 2.8312139999999997e-01,	 5.9407092943446142e-02,	 1.5218680112247848e+03,	 2.8569052410085902e+01,	 6.4610324406760719e+02,	 1.1042569975376015e+04,	 5.1012892273710941e+02,	 2.9838263897862238e+00 
9.7997179999999995e-01,	 2.8319200000000000e-01,	 5.9453723588711635e-02,	 1.5217720172173181e+03,	 2.8374235351795939e+01,	 6.4625494661268124e+02,	 1.1053832451557375e+04,	 5.1018880737207019e+02,	 2.9832808922269312e+00 
9.8052940000000000e-01,	 2.8326269999999998e-01,	 5.9502607695661250e-02,	 1.5216793200180994e+03,	 2.8184627640512268e+01,	 6.4640397361707528e+02,	 1.1065472266131927e+04,	 5.1024762899292136e+02,	 2.9827484338279184e+00 
9.8108019999999996e-01,	 2.8333249999999999e-01,	 5.9548536236602674e-02,	 1.5215855770963499e+03,	 2.7997985118517896e+01,	 6.4655227330065281e+02,	 1.1076554050153056e+04,	 5.1030615680635918e+02,	 2.9822159186565256e+00 
9.8163109999999998e-01,	 2.8340230000000000e-01,	 5.9594691308576524e-02,	 1.5214924482005936e+03,	 2.7813852336198963e+01,	 6.4669993098238001e+02,	 1.1087670892559059e+04,	 5.1036442457959265e+02,	 2.9816863816440269e+00 
9.8217560000000004e-01,	 2.8347129999999998e-01,	 5.9640784459653318e-02,	 1.5214006178303193e+03,	 2.7633261014209118e+01,	 6.4684564835750757e+02,	 1.1098746840930149e+04,	 5.1042192015979066e+02,	 2.9811641880105886e+00 
9.8272009999999999e-01,	 2.8354029999999997e-01,	 5.9686384099433651e-02,	 1.5213086881573704e+03,	 2.7454758178773925e+01,	 6.4699119365570334e+02,	 1.1109731839325301e+04,	 5.1047934137944696e+02,	 2.9806424667136047e+00 
9.8325870000000004e-01,	 2.8360849999999999e-01,	 5.9730642808782292e-02,	 1.5212160471953532e+03,	 2.7278531344985019e+01,	 6.4713661012206057e+02,	 1.1120468792209354e+04,	 5.1053670532203461e+02,	 2.9801199242920813e+00 
9.8379729999999999e-01,	 2.8367670000000000e-01,	 5.9775587336851010e-02,	 1.5211240370232783e+03,	 2.7103709328247199e+01,	 6.4728175635312402e+02,	 1.1131332513331308e+04,	 5.1059395623536096e+02,	 2.9795994823083922e+00 
9.8433029999999999e-01,	 2.8374420000000000e-01,	 5.9820267060495494e-02,	 1.5210327368704366e+03,	 2.6929733561259226e+01,	 6.4742559745360541e+02,	 1.1142128204247600e+04,	 5.1065068602577458e+02,	 2.9790836553264652e+00 
9.8486330000000000e-01,	 2.8381170000000000e-01,	 5.9864620286865303e-02,	 1.5209409888471505e+03,	 2.6755521008909035e+01,	 6.4756985093728645e+02,	 1.1152873868461382e+04,	 5.1070757212814090e+02,	 2.9785661845387601e+00 
9.8539109999999996e-01,	 2.8387849999999998e-01,	 5.9908311165094055e-02,	 1.5208487651238690e+03,	 2.6581611634369782e+01,	 6.4771432501434128e+02,	 1.1163503592040039e+04,	 5.1076453887091162e+02,	 2.9780474763338622e+00 
9.8591890000000004e-01,	 2.8394530000000001e-01,	 5.9952345258751628e-02,	 1.5207556272518873e+03,	 2.6408035721177967e+01,	 6.4786017546941025e+02,	 1.1174224657310093e+04,	 5.1082204188139519e+02,	 2.9775240182069846e+00 
9.8644180000000004e-01,	 2.8401139999999997e-01,	 5.9994933955203340e-02,	 1.5206608346800342e+03,	 2.6232649582666344e+01,	 6.4800766121786728e+02,	 1.1184708182175405e+04,	 5.1088018304115116e+02,	 2.9769936977811104e+00 
9.8696479999999998e-01,	 2.8407759999999999e-01,	 6.0040547905973359e-02,	 1.5205674328621444e+03,	 2.6057325229425803e+01,	 6.4815521377768005e+02,	 1.1195760594321844e+04,	 5.1093834391842745e+02,	 2.9764661456555639e+00 
9.8748320000000001e-01,	 2.8414319999999998e-01,	 6.0084460038172985e-02,	 1.5204718378084135e+03,	 2.5879441589903312e+01,	 6.4830449246371313e+02,	 1.1206529306395812e+04,	 5.1099717844747630e+02,	 2.9759304525531802e+00 
9.8800169999999998e-01,	 2.8420879999999998e-01,	 6.0128469354135045e-02,	 1.5203736401881288e+03,	 2.5699276816471787e+01,	 6.4845688200466975e+02,	 1.1217373733744342e+04,	 5.1105723205720500e+02,	 2.9753826579917657e+00 
9.8851599999999995e-01,	 2.8427379999999997e-01,	 6.0172285168625328e-02,	 1.5202740530414844e+03,	 2.5515224174368527e+01,	 6.4861126781423422e+02,	 1.1228220470210701e+04,	 5.1111806516044584e+02,	 2.9748276504216036e+00 
9.8903030000000003e-01,	 2.8433890000000001e-01,	 6.0218906290860449e-02,	 1.5201743028866122e+03,	 2.5330595251856696e+01,	 6.4876695096644266e+02,	 1.1239617173209854e+04,	 5.1117940212852164e+02,	 2.9742695483951263e+00 
9.8954089999999995e-01,	 2.8440339999999997e-01,	 6.0261851784307874e-02,	 1.5200701950613488e+03,	 2.5139217928449725e+01,	 6.4892697951387925e+02,	 1.1250407182298793e+04,	 5.1124244345113038e+02,	 2.9736929689086313e+00 
9.9005149999999997e-01,	 2.8446800000000000e-01,	 6.0309400585266508e-02,	 1.5199698179491297e+03,	 2.4946435888539057e+01,	 6.4908883879790642e+02,	 1.1262092522884665e+04,	 5.1130619806386585e+02,	 2.9731196806271099e+00 
9.9055859999999996e-01,	 2.8453210000000001e-01,	 6.0354135790891231e-02,	 1.5198687343768379e+03,	 2.4749005284428137e+01,	 6.4925397755330300e+02,	 1.1273313696986072e+04,	 5.1137123623299499e+02,	 2.9725375917622938e+00 
9.9106570000000005e-01,	 2.8459619999999997e-01,	 6.0400361557170004e-02,	 1.5197672045036429e+03,	 2.4549286388708701e+01,	 6.4942118174182099e+02,	 1.1284853499186658e+04,	 5.1143707942477153e+02,	 2.9719500774631822e+00 
9.9156979999999995e-01,	 2.8465989999999997e-01,	 6.0446645435984478e-02,	 1.5196624274366125e+03,	 2.4347028188451418e+01,	 6.4958979899265614e+02,	 1.1296433182137094e+04,	 5.1150347048172864e+02,	 2.9713531552337891e+00 
9.9207380000000001e-01,	 2.8472359999999997e-01,	 6.0493258126842517e-02,	 1.5195561677263381e+03,	 2.4142858202363051e+01,	 6.4976056363368832e+02,	 1.1308116192926786e+04,	 5.1157069826684148e+02,	 2.9707486234624074e+00 
9.9257519999999999e-01,	 2.8478690000000001e-01,	 6.0538850630156932e-02,	 1.5194455777515032e+03,	 2.3935586594561798e+01,	 6.4993477403868474e+02,	 1.1319673041617354e+04,	 5.1163927350105678e+02,	 2.9701279231737407e+00 
9.9307650000000003e-01,	 2.8485030000000000e-01,	 6.0587377125529987e-02,	 1.5193357941390866e+03,	 2.3730746032014558e+01,	 6.5010925090018577e+02,	 1.1331787855560173e+04,	 5.1170794441072826e+02,	 2.9695085381658304e+00 
9.9357540000000000e-01,	 2.8491329999999998e-01,	 6.0632363676706047e-02,	 1.5192229145454453e+03,	 2.3523021421070744e+01,	 6.5028309509337646e+02,	 1.1343234244099025e+04,	 5.1177635714938793e+02,	 2.9688847341035127e+00 
9.9407440000000002e-01,	 2.8497639999999996e-01,	 6.0680225398868040e-02,	 1.5191122112706221e+03,	 2.3319266784708674e+01,	 6.5045381235516595e+02,	 1.1355168581780979e+04,	 5.1184353045095116e+02,	 2.9682727094867398e+00 
9.9457130000000005e-01,	 2.8503909999999999e-01,	 6.0723399828143093e-02,	 1.5189993648674347e+03,	 2.3113887948543571e+01,	 6.5062637845795166e+02,	 1.1366262550230347e+04,	 5.1191142227054195e+02,	 2.9676524982552510e+00 
9.9506819999999996e-01,	 2.8510189999999996e-01,	 6.0771129425863366e-02,	 1.5188873970127083e+03,	 2.2914524585075974e+01,	 6.5079680517109568e+02,	 1.1378176268465111e+04,	 5.1197846356456819e+02,	 2.9670393268240507e+00 
9.9556339999999999e-01,	 2.8516449999999999e-01,	 6.0815832695318831e-02,	 1.5187782388035948e+03,	 2.2719619740143891e+01,	 6.5096638148072384e+02,	 1.1389513020488183e+04,	 5.1204516162065408e+02,	 2.9664339713752823e+00 
9.9605860000000002e-01,	 2.8522700000000001e-01,	 6.0857917140355017e-02,	 1.5186687130022397e+03,	 2.2527640026930356e+01,	 6.5113586797181347e+02,	 1.1400361983795734e+04,	 5.1211181566921823e+02,	 2.9658284434813802e+00 
9.9655249999999995e-01,	 2.8528939999999997e-01,	 6.0902549327242574e-02,	 1.5185615248518957e+03,	 2.2344576232627837e+01,	 6.5130077339511877e+02,	 1.1411612171458566e+04,	 5.1217665979289563e+02,	 2.9652384179607352e+00 
9.9704640000000000e-01,	 2.8535179999999999e-01,	 6.0944189703910065e-02,	 1.5184578400008895e+03,	 2.2168470595129250e+01,	 6.5146327813085884e+02,	 1.1422263769952217e+04,	 5.1224055188783200e+02,	 2.9646611308236674e+00 
9.9753919999999996e-01,	 2.8541400000000000e-01,	 6.0984309801826862e-02,	 1.5183546702483870e+03,	 2.1999114721870214e+01,	 6.5162236342873371e+02,	 1.1432574264340965e+04,	 5.1230309184152247e+02,	 2.9640930462689892e+00 
9.9803200000000003e-01,	 2.8547630000000002e-01,	 6.1025761733545701e-02,	 1.5182571609388651e+03,	 2.1841996898430438e+01,	 6.5177479120786120e+02,	 1.1443021283485914e+04,	 5.1236300741592561e+02,	 2.9635517061730448e+00 
9.9852419999999997e-01,	 2.8553839999999997e-01,	 6.1061834116248020e-02,	 1.5181600510238527e+03,	 2.1690167509753294e+01,	 6.5192604551648822e+02,	 1.1452442361453675e+04,	 5.1242245480321503e+02,	 2.9630141578148952e+00 
9.9901640000000003e-01,	 2.8560059999999998e-01,	 6.1101414660510313e-02,	 1.5180668350756205e+03,	 2.1537106821345589e+01,	 6.5207268028725889e+02,	 1.1462443499687181e+04,	 5.1248007999323761e+02,	 2.9624948601942727e+00 
9.9950819999999996e-01,	 2.8566269999999999e-01,	 6.1145020365330573e-02,	 1.5179298651674249e+03,	 2.1617630001282741e+01,	 6.5226552085829735e+02,	 1.1474016062516035e+04,	 5.1255585348344641e+02,	 2.9617919315742398e+00 
1.0000000000000000e+00,	 2.8572480000000000e-01,	 6.1209654503604556e-02,	 1.5177194457728160e+03,	 2.1342641353754200e+01,	 6.5261145110958967e+02,	 1.1492236518890088e+04,	 5.1269175294982551e+02,	 2.9605888782902992e+00 
9.5378750000000001e-01,	 2.8078490000000000e-01,	 5.0581585746831456e-02,	 1.5433058360983614e+03,	 9.3766405299704132e+01,	 6.0823910118455319e+02,	 8.8510891210173486e+03,	 4.9495549986824386e+02,	 3.1238195928198476e+00 
9.5456799999999997e-01,	 2.8088049999999998e-01,	 5.1850702981292233e-02,	 1.5405849906595990e+03,	 8.3331871173098847e+01,	 6.1429316042247422e+02,	 9.1634764106991079e+03,	 4.9741265073094996e+02,	 3.1017246883061658e+00 
9.5533279999999998e-01,	 2.8097420000000001e-01,	 5.3109081423108911e-02,	 1.5373730929677124e+03,	 7.3631554379156995e+01,	 6.2009956960044610e+02,	 9.4745841477583526e+03,	 4.9975793855907824e+02,	 3.0797616877567862e+00 
9.5609770000000005e-01,	 2.8106789999999998e-01,	 5.4141333978130285e-02,	 1.5347591619794168e+03,	 6.5784000609028141e+01,	 6.2474374222617303e+02,	 9.7310746511813741e+03,	 5.0162589073665026e+02,	 3.0623785275678972e+00 
9.5684749999999996e-01,	 2.8115970000000001e-01,	 5.4969419096008137e-02,	 1.5326575284153678e+03,	 5.9509884611197855e+01,	 6.2839318105795235e+02,	 9.9376237226199664e+03,	 5.0308888045753031e+02,	 3.0487901343607131e+00 
9.5759729999999998e-01,	 2.8125139999999998e-01,	 5.5636149619846018e-02,	 1.5309700300130132e+03,	 5.4438554527515365e+01,	 6.3128334178932607e+02,	 1.0104418684050323e+04,	 5.0424447838118618e+02,	 3.0380850137888049e+00 
9.5833250000000003e-01,	 2.8134139999999996e-01,	 5.6166531317000785e-02,	 1.5296274116882703e+03,	 5.0382456072302304e+01,	 6.3354634860863644e+02,	 1.0237311864846301e+04,	 5.0514747058214306e+02,	 3.0297230369009820e+00 
9.5906769999999997e-01,	 2.8143140000000000e-01,	 5.6591222669750252e-02,	 1.5285542576865400e+03,	 4.7093732317477659e+01,	 6.3533935716940823e+02,	 1.0343910968102899e+04,	 5.0586177807828193e+02,	 3.0231174108253094e+00 
9.5978889999999994e-01,	 2.8151949999999998e-01,	 5.6930277334261543e-02,	 1.5277028527163593e+03,	 4.4447631951739112e+01,	 6.3674846295376699e+02,	 1.0428963373850942e+04,	 5.0642243747559291e+02,	 3.0179336299708264e+00 
9.6050999999999997e-01,	 2.8160770000000002e-01,	 5.7205435099846394e-02,	 1.5270251021129686e+03,	 4.2278821765855568e+01,	 6.3787343933149214e+02,	 1.0497883512239456e+04,	 5.0686960138647800e+02,	 3.0138131656673428e+00 
9.6121760000000001e-01,	 2.8169420000000001e-01,	 5.7426917809599368e-02,	 1.5264806888170201e+03,	 4.0507974957603707e+01,	 6.3876984016126494e+02,	 1.0553337995030894e+04,	 5.0722562719690461e+02,	 3.0105302042923556e+00 
9.6192509999999998e-01,	 2.8178070000000000e-01,	 5.7610954997659190e-02,	 1.5260382998581822e+03,	 3.9035544296870263e+01,	 6.3949750411549689e+02,	 1.0599219003218219e+04,	 5.0751445169103215e+02,	 3.0078699653763032e+00 
9.6261960000000002e-01,	 2.8186559999999999e-01,	 5.7763371825287950e-02,	 1.5256762186947319e+03,	 3.7812126542117738e+01,	 6.4008956873648458e+02,	 1.0637099547573654e+04,	 5.0774933285415307e+02,	 3.0057050063893698e+00 
9.6331409999999995e-01,	 2.8195039999999999e-01,	 5.7892714660560965e-02,	 1.5253736775731143e+03,	 3.6774613257668250e+01,	 6.4058343691091125e+02,	 1.0669143522849250e+04,	 5.0794517488750222e+02,	 3.0039007765153407e+00 
9.6399599999999996e-01,	 2.8203370000000000e-01,	 5.8003723062216461e-02,	 1.5251182866290851e+03,	 3.5895115505079744e+01,	 6.4099800508334988e+02,	 1.0696519462845505e+04,	 5.0810951245203182e+02,	 3.0023855166549556e+00 
9.6467780000000003e-01,	 2.8211690000000000e-01,	 5.8101728102743985e-02,	 1.5248984656935820e+03,	 3.5132943134702721e+01,	 6.4135568467666872e+02,	 1.0720571449684292e+04,	 5.0825125630804001e+02,	 3.0010808951427346e+00 
9.6534750000000003e-01,	 2.8219869999999997e-01,	 5.8188764976354890e-02,	 1.5247069081189838e+03,	 3.4471293611493444e+01,	 6.4166720646782983e+02,	 1.0741845993561856e+04,	 5.0837467621671607e+02,	 2.9999459086495275e+00 
9.6601729999999997e-01,	 2.8228039999999999e-01,	 5.8267860170440319e-02,	 1.5245413729113216e+03,	 3.3884792869540021e+01,	 6.4195022906219072e+02,	 1.0761191625297781e+04,	 5.0848677923228695e+02,	 2.9989332154505592e+00 
9.6667530000000002e-01,	 2.8236069999999996e-01,	 5.8341240025619676e-02,	 1.5243929726007555e+03,	 3.3364932324158623e+01,	 6.4221074717124588e+02,	 1.0779116411468978e+04,	 5.0858994655826751e+02,	 2.9980106258144792e+00 
9.6733340000000001e-01,	 2.8244100000000000e-01,	 5.8409953333813158e-02,	 1.5242374070622154e+03,	 3.2893546527503744e+01,	 6.4244367247737284e+02,	 1.0795725983233189e+04,	 5.0868216918923275e+02,	 2.9971412109373934e+00 
9.6798019999999996e-01,	 2.8251979999999999e-01,	 5.8474673720848171e-02,	 1.5240864786658040e+03,	 3.2467506948780809e+01,	 6.4264098953327004e+02,	 1.0811007467878428e+04,	 5.0876028028797737e+02,	 2.9963665109308795e+00 
9.6862700000000002e-01,	 2.8259869999999998e-01,	 5.8537191410615093e-02,	 1.5239584137013114e+03,	 3.2074568174856239e+01,	 6.4283855320884152e+02,	 1.0825893086115073e+04,	 5.0883847700182997e+02,	 2.9956380659094051e+00 
9.6926299999999999e-01,	 2.8267619999999999e-01,	 5.8597205746570444e-02,	 1.5238401367899553e+03,	 3.1710711252518145e+01,	 6.4304388677068755e+02,	 1.0840453682462374e+04,	 5.0891973634322807e+02,	 2.9949124351060443e+00 
9.6989899999999996e-01,	 2.8275370000000000e-01,	 5.8655376735873781e-02,	 1.5237224114124745e+03,	 3.1368118351617873e+01,	 6.4323811719397656e+02,	 1.0854492879310772e+04,	 5.0899658975461392e+02,	 2.9942150651746764e+00 
9.7052470000000002e-01,	 2.8282999999999997e-01,	 5.8712661424912542e-02,	 1.5236076164582512e+03,	 3.1047743369356812e+01,	 6.4342391023720734e+02,	 1.0868231995187796e+04,	 5.0907009379231050e+02,	 2.9935443945253426e+00 
9.7115039999999997e-01,	 2.8290620000000000e-01,	 5.8769155109701682e-02,	 1.5234957832776906e+03,	 3.0742632552996429e+01,	 6.4360535083353057e+02,	 1.0881757181817999e+04,	 5.0914186565935825e+02,	 2.9928906507006205e+00 
9.7176620000000002e-01,	 2.8298119999999999e-01,	 5.8823095974772359e-02,	 1.5233843548249379e+03,	 3.0453281617128809e+01,	 6.4378304894530436e+02,	 1.0894752116193707e+04,	 5.0921214731876904e+02,	 2.9922473791587678e+00 
9.7238190000000002e-01,	 2.8305619999999998e-01,	 5.8877588913193495e-02,	 1.5232753040368877e+03,	 3.0177290293700462e+01,	 6.4395771474254025e+02,	 1.0907803481225781e+04,	 5.0928122021055503e+02,	 2.9916166790820728e+00 
9.7298819999999997e-01,	 2.8312999999999999e-01,	 5.8930638297816619e-02,	 1.5231682628248896e+03,	 2.9913828651461579e+01,	 6.4412904786185686e+02,	 1.0920536311959992e+04,	 5.0934896606940714e+02,	 2.9909984667595770e+00 
9.7359450000000003e-01,	 2.8320370000000000e-01,	 5.8983344086688712e-02,	 1.5230625217472020e+03,	 2.9659690398948094e+01,	 6.4429852029750327e+02,	 1.0933179109040871e+04,	 5.0941596734275385e+02,	 2.9903877857344674e+00 
9.7419169999999999e-01,	 2.8327639999999998e-01,	 5.9035032392264430e-02,	 1.5229581902343061e+03,	 2.9415621853765817e+01,	 6.4446517765420458e+02,	 1.0945590583536547e+04,	 5.0948184707597397e+02,	 2.9897870764328114e+00 
9.7478889999999996e-01,	 2.8334909999999996e-01,	 5.9086172628011635e-02,	 1.5228544718008798e+03,	 2.9178864423175416e+01,	 6.4463064453462107e+02,	 1.0957885134972348e+04,	 5.0954724778675615e+02,	 2.9891908858395717e+00 
9.7537739999999995e-01,	 2.8342059999999997e-01,	 5.9136572869712294e-02,	 1.5227518505776954e+03,	 2.8950786648438818e+01,	 6.4479364901585927e+02,	 1.0970005390481652e+04,	 5.0961166702862380e+02,	 2.9886031513815441e+00 
9.7596590000000005e-01,	 2.8349219999999997e-01,	 5.9186782627251938e-02,	 1.5226503079229610e+03,	 2.8728550434162532e+01,	 6.4495547875980651e+02,	 1.0982075025752381e+04,	 5.0967561396093339e+02,	 2.9880207322918491e+00 
9.7654620000000003e-01,	 2.8356270000000000e-01,	 5.9236136148370158e-02,	 1.5225498743478659e+03,	 2.8513352633579132e+01,	 6.4511508758732566e+02,	 1.0993952573710092e+04,	 5.0973867544158219e+02,	 2.9874461451353489e+00 
9.7712639999999995e-01,	 2.8363329999999998e-01,	 5.9284707736480355e-02,	 1.5224494381071058e+03,	 2.8302923617889764e+01,	 6.4527403870527496e+02,	 1.1005678277311168e+04,	 5.0980146930860838e+02,	 2.9868734952678699e+00 
9.7769879999999998e-01,	 2.8370279999999998e-01,	 5.9333812844364835e-02,	 1.5223516002627498e+03,	 2.8099452143387445e+01,	 6.4543017522925481e+02,	 1.1017459445813305e+04,	 5.0986314373686616e+02,	 2.9863129462812408e+00 
9.7827120000000001e-01,	 2.8377239999999998e-01,	 5.9380513519355360e-02,	 1.5222523107839361e+03,	 2.7898639330579510e+01,	 6.4558671883797820e+02,	 1.1028805402673514e+04,	 5.0992497147630519e+02,	 2.9857489368235246e+00 
9.7883620000000005e-01,	 2.8384100000000001e-01,	 5.9427794102852927e-02,	 1.5221539580942772e+03,	 2.7704928353123481e+01,	 6.4574095334609410e+02,	 1.1040223820485618e+04,	 5.0998587989344537e+02,	 2.9851925862981812e+00 
9.7940110000000002e-01,	 2.8390959999999998e-01,	 5.9475460204084930e-02,	 1.5220580747515235e+03,	 2.7514347420075815e+01,	 6.4589399901150796e+02,	 1.1051697729088337e+04,	 5.1004631163763105e+02,	 2.9846441569510973e+00 
9.7995900000000002e-01,	 2.8397739999999999e-01,	 5.9520922011645543e-02,	 1.5219613228247476e+03,	 2.7326878329701884e+01,	 6.4604634868110975e+02,	 1.1062754219403298e+04,	 5.1010646144978801e+02,	 2.9840959597787342e+00 
9.8051679999999997e-01,	 2.8404509999999999e-01,	 5.9566763438336896e-02,	 1.5218646169453139e+03,	 2.7143096120013304e+01,	 6.4619823269231017e+02,	 1.1073877288826074e+04,	 5.1016642035407608e+02,	 2.9835492718542507e+00 
9.8106800000000005e-01,	 2.8411199999999998e-01,	 5.9612208519644209e-02,	 1.5217689533531834e+03,	 2.6962968137230305e+01,	 6.4634883022970826e+02,	 1.1084908600654548e+04,	 5.1022586444327021e+02,	 2.9830079342594606e+00 
9.8161909999999997e-01,	 2.8417890000000001e-01,	 5.9657164594553329e-02,	 1.5216731315380982e+03,	 2.6784580299533292e+01,	 6.4649957204234340e+02,	 1.1095855374497663e+04,	 5.1028535854629905e+02,	 2.9824662214473028e+00 
9.8216400000000004e-01,	 2.8424499999999997e-01,	 5.9701508860014144e-02,	 1.5215771639335853e+03,	 2.6609229709999486e+01,	 6.4664966621957001e+02,	 1.1106681104766323e+04,	 5.1034459015251514e+02,	 2.9819260273139707e+00 
9.8270880000000005e-01,	 2.8431109999999998e-01,	 5.9746166442479341e-02,	 1.5214815484483725e+03,	 2.6435360670498355e+01,	 6.4679974469520812e+02,	 1.1117568696856331e+04,	 5.1040380868975797e+02,	 2.9813868139212003e+00 
9.8324769999999995e-01,	 2.8437649999999998e-01,	 5.9790195331906285e-02,	 1.5213859132708378e+03,	 2.6262893374626049e+01,	 6.4694961479430503e+02,	 1.1128339546567597e+04,	 5.1046293814938031e+02,	 2.9808482927941276e+00 
9.8378659999999996e-01,	 2.8444179999999997e-01,	 5.9834025199437736e-02,	 1.5212894806689781e+03,	 2.6090563195227610e+01,	 6.4710092713653808e+02,	 1.1139101968436365e+04,	 5.1052262968119334e+02,	 2.9803050955765853e+00 
9.8431990000000003e-01,	 2.8450650000000000e-01,	 5.9877520326497811e-02,	 1.5211926627523367e+03,	 2.5919131774606665e+01,	 6.4725267468885647e+02,	 1.1149813371265365e+04,	 5.1058248589137492e+02,	 2.9797603772308645e+00 
9.8485319999999998e-01,	 2.8457119999999997e-01,	 5.9921408728924347e-02,	 1.5210958567053622e+03,	 2.5747090406045118e+01,	 6.4740520770138460e+02,	 1.1160615361461581e+04,	 5.1064264485241057e+02,	 2.9792140603810808e+00 
9.8538139999999996e-01,	 2.8463519999999998e-01,	 5.9964631500520074e-02,	 1.5209981556384896e+03,	 2.5574329938764190e+01,	 6.4755842189635405e+02,	 1.1171308949154096e+04,	 5.1070306533748953e+02,	 2.9786646083179966e+00 
9.8590949999999999e-01,	 2.8469919999999999e-01,	 6.0008995528866363e-02,	 1.5209003134155846e+03,	 2.5399642731379622e+01,	 6.4771276976989429e+02,	 1.1182238583799812e+04,	 5.1076392566524441e+02,	 2.9781124200142104e+00 
9.8643270000000005e-01,	 2.8476259999999998e-01,	 6.0052159197322985e-02,	 1.5208000632083213e+03,	 2.5222217958028313e+01,	 6.4786916706430452e+02,	 1.1192983833839877e+04,	 5.1082558669638837e+02,	 2.9775509324522980e+00 