TITLE = "Final State"
VARIABLES = "X", "Y", "rho", "u", "v", "T", "p", "c", "M"
ZONE I=82, J=27, DATAPACKING=POINT, STRANDID=76000, SOLUTIONTIME=0.001834
8.4940000000000004e-01,	 2.2769999999999999e-01,	 2.7660310925929459e-02,	 1.5859499759626824e+03,	 4.2284241930977458e+02,	 4.5904191246355845e+02,	 3.6529130544255750e+03,	 4.2998683283377528e+02,	 3.8172121891685609e+00 
8.5143709999999995e-01,	 2.2824580000000000e-01,	 2.7672340588183759e-02,	 1.5858099048044360e+03,	 4.2321151775006001e+02,	 4.5913392506476833e+02,	 3.6552342579677716e+03,	 4.3002992500410755e+02,	 3.8167361718953203e+00 
8.5347430000000002e-01,	 2.2879159999999998e-01,	 2.7679565750038122e-02,	 1.5856897928528192e+03,	 4.2349484159402937e+02,	 4.5919764421498650e+02,	 3.6566960384273152e+03,	 4.3005976400017062e+02,	 3.8163714442464931e+00 
8.5545939999999998e-01,	 2.2932349999999999e-01,	 2.7684940052602629e-02,	 1.5856162564017636e+03,	 4.2366248006724908e+02,	 4.5922774237899216e+02,	 3.6576457526720983e+03,	 4.3007385792832440e+02,	 3.8161817829038145e+00 
8.5744460000000000e-01,	 2.2985539999999999e-01,	 2.7688388170297951e-02,	 1.5855742729670553e+03,	 4.2376975903677953e+02,	 4.5923510062153264e+02,	 3.6581599210034788e+03,	 4.3007730346829118e+02,	 3.8161212987676385e+00 
8.5937909999999995e-01,	 2.3037369999999999e-01,	 2.7689081087711301e-02,	 1.5855531374356547e+03,	 4.2383885110815237e+02,	 4.5923148489071025e+02,	 3.6582226657123347e+03,	 4.3007561038470402e+02,	 3.8161303286683408e+00 
8.6131360000000001e-01,	 2.3089199999999999e-01,	 2.7687694072434377e-02,	 1.5855450946736983e+03,	 4.2388030810210330e+02,	 4.5922258264887620e+02,	 3.6579685047870412e+03,	 4.3007144183815251e+02,	 3.8161741455591112e+00 
8.6319889999999999e-01,	 2.3139709999999999e-01,	 2.7685727227129919e-02,	 1.5855437655684261e+03,	 4.2390302558274095e+02,	 4.5921190298660730e+02,	 3.6576235908661529e+03,	 4.3006644094683321e+02,	 3.8162291781291562e+00 
8.6508419999999997e-01,	 2.3190220000000000e-01,	 2.7684228379680594e-02,	 1.5855428088926744e+03,	 4.2392149256279208e+02,	 4.5920425323035840e+02,	 3.6573646477411012e+03,	 4.3006285881282929e+02,	 3.8162699066953407e+00 
8.6692159999999996e-01,	 2.3239449999999998e-01,	 2.7683315383660818e-02,	 1.5855401929985219e+03,	 4.2394045504811663e+02,	 4.5919977762747408e+02,	 3.6572083867170331e+03,	 4.3006076301858548e+02,	 3.8162940172334237e+00 
8.6875899999999995e-01,	 2.3288679999999998e-01,	 2.7682152203321698e-02,	 1.5855404720991498e+03,	 4.2395251657012290e+02,	 4.5919430323793836e+02,	 3.6570111225166675e+03,	 4.3005819950780830e+02,	 3.8163246371237505e+00 
8.7054980000000004e-01,	 2.3336659999999998e-01,	 2.7680888571876758e-02,	 1.5855416286593556e+03,	 4.2395974855090356e+02,	 4.5918864108569869e+02,	 3.6567990965569866e+03,	 4.3005554805668311e+02,	 3.8163551081363387e+00 
8.7234060000000002e-01,	 2.3384639999999998e-01,	 2.7680202553226167e-02,	 1.5855398317576701e+03,	 4.2397088893228351e+02,	 4.5918665433918284e+02,	 3.6566926484020478e+03,	 4.3005461770670331e+02,	 3.8163660193254247e+00 
8.7408609999999998e-01,	 2.3431410000000000e-01,	 2.7680213897000209e-02,	 1.5855354102104106e+03,	 4.2398606284195273e+02,	 4.5918762569761918e+02,	 3.6567018823019921e+03,	 4.3005507257288480e+02,	 3.8163611651326250e+00 
8.7583160000000004e-01,	 2.3478179999999998e-01,	 2.7679208119767658e-02,	 1.5855369882908326e+03,	 4.2398825835766684e+02,	 4.5918354079903224e+02,	 3.6565364852751754e+03,	 4.3005315969983803e+02,	 3.8163830040640523e+00 
8.7753300000000001e-01,	 2.3523759999999999e-01,	 2.7678403914850762e-02,	 1.5855373987893031e+03,	 4.2398742273457435e+02,	 4.5918144739348378e+02,	 3.6564135769515706e+03,	 4.3005217939826281e+02,	 3.8163921236599077e+00 
8.7923439999999997e-01,	 2.3569350000000000e-01,	 2.7679152097638559e-02,	 1.5855310192030483e+03,	 4.2400426050245409e+02,	 4.5918648229547745e+02,	 3.6565525079830313e+03,	 4.3005453714230083e+02,	 3.8163669843466681e+00 
8.8089300000000004e-01,	 2.3613789999999998e-01,	 2.7678411910467701e-02,	 1.5855325425682763e+03,	 4.2400079202634350e+02,	 4.5918391945375544e+02,	 3.6564343179620832e+03,	 4.3005333701632708e+02,	 3.8163789729088147e+00 
8.8255150000000004e-01,	 2.3658219999999999e-01,	 2.7677328640379206e-02,	 1.5855355449543629e+03,	 4.2399375063261391e+02,	 4.5918113490677229e+02,	 3.6562690412459242e+03,	 4.3005203306655130e+02,	 3.8163930590462147e+00 
8.8416839999999997e-01,	 2.3701539999999999e-01,	 2.7677971169439250e-02,	 1.5855298386780241e+03,	 4.2400348223056903e+02,	 4.5918690889915979e+02,	 3.6563998984906152e+03,	 4.3005473691169044e+02,	 3.8163620921686263e+00 
8.8578520000000005e-01,	 2.3744859999999998e-01,	 2.7679532404990929e-02,	 1.5855182690135434e+03,	 4.2402229075811738e+02,	 4.5919827092002640e+02,	 3.6566966238648351e+03,	 4.3006005746915179e+02,	 3.8163001870807745e+00 
8.8736150000000003e-01,	 2.3787100000000000e-01,	 2.7680600487415684e-02,	 1.5855104605274596e+03,	 4.2403320419542445e+02,	 4.5920671872171732e+02,	 3.6569050007384017e+03,	 4.3006401332613308e+02,	 3.8162540996730230e+00 
8.8893780000000000e-01,	 2.3829329999999999e-01,	 2.7680331799946042e-02,	 1.5855084972725022e+03,	 4.2402806376710959e+02,	 4.5920959028425119e+02,	 3.6568923717773646e+03,	 4.3006535798609428e+02,	 3.8162346694855045e+00 
8.9047469999999995e-01,	 2.3870509999999998e-01,	 2.7681740623208412e-02,	 1.5855002853868455e+03,	 4.2403806620051068e+02,	 4.5921923105610438e+02,	 3.6571552713517071e+03,	 4.3006987241733100e+02,	 3.8161821735016921e+00 
8.9201160000000002e-01,	 2.3911689999999999e-01,	 2.7682555503556590e-02,	 1.5854945227764269e+03,	 4.2404170185935891e+02,	 4.5922672081217638e+02,	 3.6573225778278497e+03,	 4.3007337957152515e+02,	 3.8161402933230342e+00 
8.9351020000000003e-01,	 2.3951839999999999e-01,	 2.7683032646074281e-02,	 1.5854905581755932e+03,	 4.2404093344424422e+02,	 4.5923263791189243e+02,	 3.6574327413536357e+03,	 4.3007615029321829e+02,	 3.8161063412309133e+00 
8.9500869999999999e-01,	 2.3991989999999999e-01,	 2.7684033809186874e-02,	 1.5854853315147448e+03,	 4.2404219199550232e+02,	 4.5924028466317986e+02,	 3.6576259158944099e+03,	 4.3007973090944034e+02,	 3.8160635862897845e+00 
8.9646999999999999e-01,	 2.4031139999999998e-01,	 2.7684455067368368e-02,	 1.5854822003194454e+03,	 4.2403911409073237e+02,	 4.5924595269654799e+02,	 3.6577267165193412e+03,	 4.3008238496530777e+02,	 3.8160311549108612e+00 
8.9793129999999999e-01,	 2.4070290000000000e-01,	 2.7685497738622292e-02,	 1.5854760805861715e+03,	 4.2404165285983811e+02,	 4.5925469118783735e+02,	 3.6579340778949372e+03,	 4.3008647673059693e+02,	 3.8159826290872703e+00 
8.9935630000000000e-01,	 2.4108469999999999e-01,	 2.7686848268743902e-02,	 1.5854682126295595e+03,	 4.2404739196350590e+02,	 4.5926523803565078e+02,	 3.6581965251490806e+03,	 4.3009141520010115e+02,	 3.8159245877693460e+00 
9.0078139999999995e-01,	 2.4146650000000000e-01,	 2.7688201718466414e-02,	 1.5854586242743944e+03,	 4.2405435851187792e+02,	 4.5927724490789342e+02,	 3.6584709965040811e+03,	 4.3009703724428817e+02,	 3.8158573563144409e+00 
9.0217119999999995e-01,	 2.4183890000000000e-01,	 2.7690733105317555e-02,	 1.5854438460658496e+03,	 4.2407267902347104e+02,	 4.5929432717644511e+02,	 3.6589415561905453e+03,	 4.3010503564270675e+02,	 3.8157642086276873e+00 
9.0356099999999995e-01,	 2.4221129999999999e-01,	 2.7692361185147910e-02,	 1.5854336949144790e+03,	 4.2408017390845055e+02,	 4.5930696325357701e+02,	 3.6592573545716468e+03,	 4.3011095211358764e+02,	 3.8156934231754605e+00 
9.0491659999999996e-01,	 2.4257450000000000e-01,	 2.7693200406721845e-02,	 1.5854281360051082e+03,	 4.2407764460815338e+02,	 4.5931534742930592e+02,	 3.6594350469692558e+03,	 4.3011487771197562e+02,	 3.8156445930358767e+00 
9.0627219999999997e-01,	 2.4293769999999998e-01,	 2.7694723515282058e-02,	 1.5854206344802017e+03,	 4.2408008753121237e+02,	 4.5932578994339133e+02,	 3.6597195152588961e+03,	 4.3011976700553600e+02,	 3.8155858389203039e+00 
9.0759449999999997e-01,	 2.4329199999999998e-01,	 2.7695449514161360e-02,	 1.5854172011705882e+03,	 4.2407364883354376e+02,	 4.5933297181553178e+02,	 3.6598726760998684e+03,	 4.3012312960041362e+02,	 3.8155444304441022e+00 
9.0891679999999997e-01,	 2.4364619999999998e-01,	 2.7696114426682322e-02,	 1.5854115910467262e+03,	 4.2407454304423550e+02,	 4.5934157530790503e+02,	 3.6600290948869124e+03,	 4.3012715777165766e+02,	 3.8154966348237314e+00 
9.1020679999999998e-01,	 2.4399189999999998e-01,	 2.7699264280840533e-02,	 1.5853964350834403e+03,	 4.2409365482501062e+02,	 4.5936024067556639e+02,	 3.6605940890785992e+03,	 4.3013589680205979e+02,	 3.8153965587381657e+00 
9.1149680000000000e-01,	 2.4433749999999999e-01,	 2.7699879023648295e-02,	 1.5853906206433489e+03,	 4.2409035364966547e+02,	 4.5936917961811332e+02,	 3.6607465654523944e+03,	 4.3014008190671547e+02,	 3.8153443946812620e+00 
9.1275530000000005e-01,	 2.4467469999999999e-01,	 2.7701595741249384e-02,	 1.5853825237706037e+03,	 4.2409334265035602e+02,	 4.5938075195488597e+02,	 3.6610656690595251e+03,	 4.3014549987417939e+02,	 3.8152799493595100e+00 
9.1401390000000005e-01,	 2.4501189999999998e-01,	 2.7702605005298385e-02,	 1.5853772411678369e+03,	 4.2409053692544734e+02,	 4.5938963822289168e+02,	 3.6612698765142663e+03,	 4.3014966022449028e+02,	 3.8152294992035118e+00 
9.1524190000000005e-01,	 2.4534090000000000e-01,	 2.7703521526998870e-02,	 1.5853731461061848e+03,	 4.2408588089239817e+02,	 4.5939752069036518e+02,	 3.6614538313384783e+03,	 4.3015335058434914e+02,	 3.8151847739328022e+00 
9.1647000000000001e-01,	 2.4566990000000000e-01,	 2.7704714647820237e-02,	 1.5853660316675305e+03,	 4.2408690935541904e+02,	 4.5940821365974080e+02,	 3.6616967488533855e+03,	 4.3015835669521448e+02,	 3.8151250139413233e+00 
9.1766840000000005e-01,	 2.4599099999999999e-01,	 2.7707322516202202e-02,	 1.5853516987532998e+03,	 4.2410352231163210e+02,	 4.5942577006556627e+02,	 3.6621813733636955e+03,	 4.3016657592411099e+02,	 3.8150299105222496e+00 
9.1886679999999998e-01,	 2.4631209999999998e-01,	 2.7709568471061367e-02,	 1.5853382592895191e+03,	 4.2411743746300482e+02,	 4.5944213433898699e+02,	 3.6626086834005355e+03,	 4.3017423690140146e+02,	 3.8149401476810172e+00 
9.2003639999999998e-01,	 2.4662550000000000e-01,	 2.7711088769509742e-02,	 1.5853303962865607e+03,	 4.2411639342900258e+02,	 4.5945320075604809e+02,	 3.6628978589160779e+03,	 4.3017941759608851e+02,	 3.8148759192728869e+00 
9.2120590000000002e-01,	 2.4693879999999999e-01,	 2.7711483553281450e-02,	 1.5853268927435588e+03,	 4.2411041948764705e+02,	 4.5945995754286309e+02,	 3.6630039099782280e+03,	 4.3018258072557143e+02,	 3.8148364119810165e+00 
9.2234760000000005e-01,	 2.4724469999999998e-01,	 2.7713845415020574e-02,	 1.5853142955082401e+03,	 4.2412343502001602e+02,	 4.5947573836288666e+02,	 3.6634419313031949e+03,	 4.3018996828512030e+02,	 3.8147504316243031e+00 
9.2348920000000001e-01,	 2.4755059999999998e-01,	 2.7716257890930546e-02,	 1.5853005771317253e+03,	 4.2413808180767330e+02,	 4.5949246771184119e+02,	 3.6638942282633334e+03,	 4.3019779974605314e+02,	 3.8146589808605316e+00 
9.2460359999999997e-01,	 2.4784919999999999e-01,	 2.7717653752429801e-02,	 1.5852928814896104e+03,	 4.2413953787727701e+02,	 4.5950326999164872e+02,	 3.6641648907261629e+03,	 4.3020285650978690e+02,	 3.8145977361019652e+00 
9.2571809999999999e-01,	 2.4814780000000000e-01,	 2.7718186972883436e-02,	 1.5852910255760196e+03,	 4.2412943183904565e+02,	 4.5950871957555358e+02,	 3.6642788372102791e+03,	 4.3020540754670515e+02,	 3.8145648774367049e+00 
9.2680620000000002e-01,	 2.4843930000000000e-01,	 2.7718516804817503e-02,	 1.5852902497258187e+03,	 4.2411737742055357e+02,	 4.5951342782454640e+02,	 3.6643599858385810e+03,	 4.3020761154077758e+02,	 3.8145363512087025e+00 
9.2789429999999995e-01,	 2.4873080000000000e-01,	 2.7720065171616994e-02,	 1.5852819212763980e+03,	 4.2412213609024553e+02,	 4.5952553313776650e+02,	 3.6646612167954045e+03,	 4.3021327814731637e+02,	 3.8144702651155238e+00 
9.2895680000000003e-01,	 2.4901550000000000e-01,	 2.7723008332251102e-02,	 1.5852661499533897e+03,	 4.2414204278941213e+02,	 4.5954465559538494e+02,	 3.6652028254209449e+03,	 4.3022222939050204e+02,	 3.8143674467698365e+00 
9.3001929999999999e-01,	 2.4930020000000000e-01,	 2.7724938305918205e-02,	 1.5852553729397314e+03,	 4.2414897162573715e+02,	 4.5955872522654471e+02,	 3.6655702066860290e+03,	 4.3022881528120968e+02,	 3.8142890211318150e+00 
9.3105689999999997e-01,	 2.4957820000000000e-01,	 2.7725695360708548e-02,	 1.5852511145266672e+03,	 4.2414222468841604e+02,	 4.5956651523970174e+02,	 3.6657324354741781e+03,	 4.3023246168562429e+02,	 3.8142430785145045e+00 
9.3209460000000000e-01,	 2.4985620000000000e-01,	 2.7727384967375139e-02,	 1.5852423546420450e+03,	 4.2414742162990285e+02,	 4.5957876068866233e+02,	 3.6660535073572310e+03,	 4.3023819355944624e+02,	 3.8141757164020840e+00 
9.3310810000000000e-01,	 2.5012780000000001e-01,	 2.7729804445122325e-02,	 1.5852314870764703e+03,	 4.2415167503533587e+02,	 4.5959398458970372e+02,	 3.6664948568009618e+03,	 4.3024531948649235e+02,	 3.8140906987748391e+00 
9.3412160000000000e-01,	 2.5039929999999999e-01,	 2.7729886717932611e-02,	 1.5852301038048324e+03,	 4.2413834938525258e+02,	 4.5959963473645098e+02,	 3.6665508103004704e+03,	 4.3024796414874055e+02,	 3.8140561430932012e+00 
9.3511180000000005e-01,	 2.5066460000000002e-01,	 2.7731949966725990e-02,	 1.5852212306061779e+03,	 4.2414136085157520e+02,	 4.5961304612269737e+02,	 3.6669306209411629e+03,	 4.3025424154660908e+02,	 3.8139823828110782e+00 
9.3610199999999999e-01,	 2.5092989999999998e-01,	 2.7733990018793217e-02,	 1.5852110605625403e+03,	 4.2414580644022192e+02,	 4.5962790658904441e+02,	 3.6673189422110622e+03,	 4.3026119710090649e+02,	 3.8139005632826026e+00 
9.3706940000000005e-01,	 2.5118910000000000e-01,	 2.7735863430560347e-02,	 1.5852016795562854e+03,	 4.2414648849995046e+02,	 4.5964209265046236e+02,	 3.6676798636801104e+03,	 4.3026783688994504e+02,	 3.8138210559997532e+00 
9.3803689999999995e-01,	 2.5144830000000001e-01,	 2.7738376567802016e-02,	 1.5851877505379971e+03,	 4.2415818782776034e+02,	 4.5966082676285248e+02,	 3.6681616919172789e+03,	 4.3027660523819935e+02,	 3.8137190923837756e+00 
9.3898239999999999e-01,	 2.5170169999999997e-01,	 2.7742052303193966e-02,	 1.5851707120219453e+03,	 4.2416892606875433e+02,	 4.5968305834352361e+02,	 3.6688252111300894e+03,	 4.3028701031607852e+02,	 3.8135950686401503e+00 
9.3992790000000004e-01,	 2.5195499999999998e-01,	 2.7742822975308272e-02,	 1.5851662017189847e+03,	 4.2415586940493665e+02,	 4.5969315176050247e+02,	 3.6690076906955564e+03,	 4.3029173426913337e+02,	 3.8135352319043174e+00 
9.4085200000000002e-01,	 2.5220260000000000e-01,	 2.7745050721192002e-02,	 1.5851576626105589e+03,	 4.2415084126543377e+02,	 4.5970787297160990e+02,	 3.6694198173608543e+03,	 4.3029862404410738e+02,	 3.8134519804082290e+00 
9.4177619999999995e-01,	 2.5245020000000001e-01,	 2.7747371717178691e-02,	 1.5851476428203678e+03,	 4.2414833548249754e+02,	 4.5972450460985874e+02,	 3.6698595465133817e+03,	 4.3030640779847306e+02,	 3.8133590002648927e+00 
9.4267970000000001e-01,	 2.5269229999999998e-01,	 2.7749709521420425e-02,	 1.5851395887112308e+03,	 4.2413974163346307e+02,	 4.5973998531447944e+02,	 3.6702923326385862e+03,	 4.3031365277916314e+02,	 3.8132715536734136e+00 
9.4358319999999996e-01,	 2.5293430000000000e-01,	 2.7750570656385212e-02,	 1.5851364259832271e+03,	 4.2412125403641807e+02,	 4.5975100791437887e+02,	 3.6704942305949694e+03,	 4.3031881128935089e+02,	 3.8132076368191568e+00 
9.4446660000000004e-01,	 2.5317099999999998e-01,	 2.7754542186688155e-02,	 1.5851202670058512e+03,	 4.2412882495808424e+02,	 4.5977532496783522e+02,	 3.6712137011452205e+03,	 4.3033019130483194e+02,	 3.8130750703461946e+00 
9.4535009999999997e-01,	 2.5340770000000001e-01,	 2.7757611672555499e-02,	 1.5851058303457935e+03,	 4.2413017108595977e+02,	 4.5979821070960190e+02,	 3.6718024736220664e+03,	 4.3034090121307105e+02,	 3.8129485757412716e+00 
9.4621409999999995e-01,	 2.5363920000000001e-01,	 2.7761184810587390e-02,	 1.5850903560387524e+03,	 4.2413011512958292e+02,	 4.5982237221464106e+02,	 3.6724681025590617e+03,	 4.3035220785478919e+02,	 3.8128136291971644e+00 
9.4707819999999998e-01,	 2.5387070000000000e-01,	 2.7764476554612470e-02,	 1.5850745870650740e+03,	 4.2413028846064663e+02,	 4.5984716529016043e+02,	 3.6731015989684242e+03,	 4.3036380973805188e+02,	 3.8126755504530974e+00 
9.4792350000000003e-01,	 2.5409719999999997e-01,	 2.7769481798551390e-02,	 1.5850508744180588e+03,	 4.2414644039887378e+02,	 4.5988002442192806e+02,	 3.6740262825489372e+03,	 4.3037918563855186e+02,	 3.8124958137324136e+00 
9.4876870000000002e-01,	 2.5432369999999999e-01,	 2.7774094978863875e-02,	 1.5850299148660927e+03,	 4.2415158107012985e+02,	 4.5991065037090755e+02,	 3.6748813412110931e+03,	 4.3039351606262278e+02,	 3.8123249166810420e+00 
9.4959579999999999e-01,	 2.5454529999999997e-01,	 2.7776958452058485e-02,	 1.5850178547650335e+03,	 4.2413728722422104e+02,	 4.5993293763900590e+02,	 3.6754383198083679e+03,	 4.3040394437023502e+02,	 3.8121968945107532e+00 
9.5042289999999996e-01,	 2.5476689999999996e-01,	 2.7780772831784435e-02,	 1.5850025038312970e+03,	 4.2412986211997725e+02,	 4.5995929595656878e+02,	 3.6761537021082595e+03,	 4.3041627721311653e+02,	 3.8120487500778899e+00 
9.5123239999999998e-01,	 2.5498379999999998e-01,	 2.7785296397505634e-02,	 1.5849835009009396e+03,	 4.2412990707480014e+02,	 4.5998968443132242e+02,	 3.6769952079335735e+03,	 4.3043049529530259e+02,	 3.8118802084282484e+00 
9.5204190000000000e-01,	 2.5520070000000000e-01,	 2.7789515770680902e-02,	 1.5849666950970450e+03,	 4.2412387090413779e+02,	 4.6001848175425448e+02,	 3.6777838135297602e+03,	 4.3044396848002776e+02,	 3.8117195531214847e+00 
9.5283430000000002e-01,	 2.5541300000000000e-01,	 2.7792900074857199e-02,	 1.5849549827030060e+03,	 4.2410585820810923e+02,	 4.6004269894708506e+02,	 3.6784253435418650e+03,	 4.3045529846763964e+02,	 3.8115821237270922e+00 
9.5362680000000000e-01,	 2.5562530000000000e-01,	 2.7795131103072187e-02,	 1.5849443701096652e+03,	 4.2408051759034981e+02,	 4.6006299969501185e+02,	 3.6788829573905482e+03,	 4.3046479592094806e+02,	 3.8114589955377420e+00 
9.5440280000000000e-01,	 2.5583319999999998e-01,	 2.7834651181683462e-02,	 1.5848526907883620e+03,	 4.2447617112733803e+02,	 4.6008619101542695e+02,	 3.6842994329280691e+03,	 4.3047564543635195e+02,	 3.8113948818668493e+00 
8.4940000000000004e-01,	 2.2918680000000000e-01,	 2.7661308695605936e-02,	 1.5864709562581002e+03,	 4.2140829939473542e+02,	 4.5870908769027704e+02,	 3.6503962114457909e+03,	 4.2983092526202512e+02,	 3.8189100093166850e+00 
8.5143610000000003e-01,	 2.2972170000000000e-01,	 2.7667985224582671e-02,	 1.5864016034160236e+03,	 4.2158916427305229e+02,	 4.5875069083537824e+02,	 3.6516084536449198e+03,	 4.2985041682365596e+02,	 3.8186889524536349e+00 
8.5347220000000001e-01,	 2.3025659999999998e-01,	 2.7678104927019307e-02,	 1.5863070944797469e+03,	 4.2181860399343680e+02,	 4.5881776375222898e+02,	 3.6534781363109523e+03,	 4.2988183941121611e+02,	 3.8183344722107933e+00 
8.5545640000000001e-01,	 2.3077779999999998e-01,	 2.7684662681016770e-02,	 1.5862327304548755e+03,	 4.2200494350835260e+02,	 4.5887289235331957e+02,	 3.6547828348425373e+03,	 4.2990766455845591e+02,	 3.8180493466475642e+00 
8.5744060000000000e-01,	 2.3129909999999998e-01,	 2.7688341333512254e-02,	 1.5861773837146725e+03,	 4.2214429078385513e+02,	 4.5891210811199971e+02,	 3.6555808541782612e+03,	 4.2992603434595492e+02,	 3.8178451483101483e+00 
8.5937419999999998e-01,	 2.3180699999999999e-01,	 2.7690816593074194e-02,	 1.5861373247948536e+03,	 4.2224590859936893e+02,	 4.5893735033133515e+02,	 3.6561087440675192e+03,	 4.2993785811115760e+02,	 3.8177109094894495e+00 
8.6130779999999996e-01,	 2.3231499999999999e-01,	 2.7692532665963221e-02,	 1.5861100664387966e+03,	 4.2231747897547069e+02,	 4.5895230021074440e+02,	 3.6564544278478784e+03,	 4.2994486066475707e+02,	 3.8176302912705671e+00 
8.6319219999999997e-01,	 2.3280999999999999e-01,	 2.7693516914411971e-02,	 1.5860926405445257e+03,	 4.2236642500487130e+02,	 4.5895946570820496e+02,	 3.6566414748686111e+03,	 4.2994821695775437e+02,	 3.8175906170017857e+00 
8.6507659999999997e-01,	 2.3330499999999998e-01,	 2.7693709085751823e-02,	 1.5860804570821467e+03,	 4.2240322196542525e+02,	 4.5896266855796529e+02,	 3.6566923671580744e+03,	 4.2994971715248187e+02,	 3.8175719379952513e+00 
8.6691320000000005e-01,	 2.3378739999999998e-01,	 2.7693522538156885e-02,	 1.5860702138848637e+03,	 4.2243504990876210e+02,	 4.5896493795814968e+02,	 3.6566858161782998e+03,	 4.2995078012211764e+02,	 3.8175585296498484e+00 
8.6874980000000002e-01,	 2.3426989999999998e-01,	 2.7693130782295787e-02,	 1.5860627501748609e+03,	 4.2246154648138975e+02,	 4.5896601956867619e+02,	 3.6566427055996301e+03,	 4.2995128673926547e+02,	 3.8175531180895144e+00 
8.7053990000000003e-01,	 2.3474009999999998e-01,	 2.7692514358782137e-02,	 1.5860575041146499e+03,	 4.2248178292547823e+02,	 4.5896579834411978e+02,	 3.6565595496243686e+03,	 4.2995118311961818e+02,	 3.8175543622864008e+00 
8.7232989999999999e-01,	 2.3521029999999998e-01,	 2.7691916703039866e-02,	 1.5860522024346378e+03,	 4.2249956049006602e+02,	 4.5896606255588188e+02,	 3.6564827392154948e+03,	 4.2995130687409375e+02,	 3.8175519911218987e+00 
8.7407469999999998e-01,	 2.3566859999999998e-01,	 2.7691699533408297e-02,	 1.5860451349472760e+03,	 4.2251965156806023e+02,	 4.5896843363585702e+02,	 3.6564729535375322e+03,	 4.2995241746559554e+02,	 3.8175382748777809e+00 
8.7581949999999997e-01,	 2.3612690000000000e-01,	 2.7691454586611777e-02,	 1.5860406576978953e+03,	 4.2253655210093160e+02,	 4.5896979524173059e+02,	 3.6564514576600686e+03,	 4.2995305522765051e+02,	 3.8175326686652777e+00 
8.7752030000000003e-01,	 2.3657370000000000e-01,	 2.7690820263474827e-02,	 1.5860374557521866e+03,	 4.2254584834399770e+02,	 4.5896995167054359e+02,	 3.6563689461734598e+03,	 4.2995312849722188e+02,	 3.8175303880208054e+00 
8.7922100000000003e-01,	 2.3702039999999999e-01,	 2.7690815275389996e-02,	 1.5860303494974901e+03,	 4.2256278114100661e+02,	 4.5897372808533527e+02,	 3.6563983722117505e+03,	 4.2995489732545161e+02,	 3.8175088507070574e+00 
8.8087899999999997e-01,	 2.3745590000000000e-01,	 2.7690845172200048e-02,	 1.5860258297106452e+03,	 4.2257531755730651e+02,	 4.5897666120208561e+02,	 3.6564256864965278e+03,	 4.2995627115778592e+02,	 3.8174940014465024e+00 
8.8253689999999996e-01,	 2.3789140000000000e-01,	 2.7690326415628849e-02,	 1.5860239980716515e+03,	 4.2258007609419070e+02,	 4.5897771810470192e+02,	 3.6563656071388104e+03,	 4.2995676619564370e+02,	 3.8174883390594356e+00 
8.8415319999999997e-01,	 2.3831590000000000e-01,	 2.7690295460354921e-02,	 1.5860191340962456e+03,	 4.2258721410469690e+02,	 4.5898125196060528e+02,	 3.6563896714662997e+03,	 4.2995842139836037e+02,	 3.8174669859094772e+00 
8.8576949999999999e-01,	 2.3874049999999999e-01,	 2.7690913509910133e-02,	 1.5860095096581890e+03,	 4.2260165170421897e+02,	 4.5898922185189969e+02,	 3.6565347744583682e+03,	 4.2996215434713497e+02,	 3.8174208582181035e+00 
8.8734519999999995e-01,	 2.3915429999999999e-01,	 2.7692062461717685e-02,	 1.5859989983798976e+03,	 4.2262065894493611e+02,	 4.5899948973064170e+02,	 3.6567682938412358e+03,	 4.2996696358269446e+02,	 3.8173659195894891e+00 
8.8892099999999996e-01,	 2.3956819999999998e-01,	 2.7692522105465675e-02,	 1.5859920266757333e+03,	 4.2263046019640808e+02,	 4.5900669893886646e+02,	 3.6568864257687810e+03,	 4.2997034017598958e+02,	 3.8173261433267913e+00 
8.9045739999999995e-01,	 2.3997179999999999e-01,	 2.7693319079345292e-02,	 1.5859828460529829e+03,	 4.2264283820829939e+02,	 4.5901558179266590e+02,	 3.6570624400744882e+03,	 4.2997450062201409e+02,	 3.8172759879335056e+00 
8.9199379999999995e-01,	 2.4037529999999999e-01,	 2.7694308223562503e-02,	 1.5859737385820063e+03,	 4.2265601693968807e+02,	 4.5902512484835245e+02,	 3.6572690962846509e+03,	 4.2997897024073643e+02,	 3.8172237329895355e+00 
8.9349190000000001e-01,	 2.4076879999999998e-01,	 2.7695006487419377e-02,	 1.5859659099852900e+03,	 4.2266562665715821e+02,	 4.5903357741876147e+02,	 3.6574286552721628e+03,	 4.2998292907718405e+02,	 3.8171767503744927e+00 
8.9498999999999995e-01,	 2.4116230000000000e-01,	 2.7695908536701432e-02,	 1.5859576914960571e+03,	 4.2267518955521155e+02,	 4.5904263927998556e+02,	 3.6576199850335747e+03,	 4.2998717323991400e+02,	 3.8171263316638293e+00 
8.9645090000000005e-01,	 2.4154599999999998e-01,	 2.7696629266511220e-02,	 1.5859507712857055e+03,	 4.2268249394436225e+02,	 4.5905077160196652e+02,	 3.6577799666354445e+03,	 4.2999098201316752e+02,	 3.8170813439520019e+00 
8.9791169999999998e-01,	 2.4192959999999999e-01,	 2.7697385257738023e-02,	 1.5859430398268942e+03,	 4.2268955193633360e+02,	 4.5905947609917769e+02,	 3.6579491678183863e+03,	 4.2999505872732692e+02,	 3.8170320080741384e+00 
8.9933640000000004e-01,	 2.4230379999999999e-01,	 2.7698498101180330e-02,	 1.5859340732576675e+03,	 4.2269931763168290e+02,	 4.5906964328078351e+02,	 3.6581771582377801e+03,	 4.2999982043454884e+02,	 3.8169754390155228e+00 
9.0076109999999998e-01,	 2.4267799999999998e-01,	 2.7699551601717685e-02,	 1.5859242133202019e+03,	 4.2270897101489953e+02,	 4.5908042586063743e+02,	 3.6584022215937580e+03,	 4.3000487030034122e+02,	 3.8169142388187329e+00 
9.0215049999999997e-01,	 2.4304289999999998e-01,	 2.7701194498634694e-02,	 1.5859106111970068e+03,	 4.2272556271825658e+02,	 4.5909453926007632e+02,	 3.6587316823046317e+03,	 4.3001148001784492e+02,	 3.8168349415382918e+00 
9.0354000000000001e-01,	 2.4340779999999998e-01,	 2.7703017779445574e-02,	 1.5858971607413341e+03,	 4.2274355479902806e+02,	 4.5910933762341205e+02,	 3.6590904410658559e+03,	 4.3001841041485119e+02,	 3.8167539805401889e+00 
9.0489529999999996e-01,	 2.4376380000000000e-01,	 2.7704416901087332e-02,	 1.5858865310255567e+03,	 4.2275578749374239e+02,	 4.5912175534570468e+02,	 3.6593742148312454e+03,	 4.3002422581943665e+02,	 3.8166858071955589e+00 
9.0625060000000002e-01,	 2.4411970000000000e-01,	 2.7705725216951811e-02,	 1.5858757809640374e+03,	 4.2276662002103114e+02,	 4.5913380328459914e+02,	 3.6596430566159797e+03,	 4.3002986797377537e+02,	 3.8166180645240466e+00 
9.0757259999999995e-01,	 2.4446689999999999e-01,	 2.7707115064315505e-02,	 1.5858671831388085e+03,	 4.2277522415391684e+02,	 4.5914493259946437e+02,	 3.6599153547359929e+03,	 4.3003507986273422e+02,	 3.8165576435479713e+00 
9.0889470000000006e-01,	 2.4481409999999998e-01,	 2.7707693543856916e-02,	 1.5858598885572401e+03,	 4.2277911287848809e+02,	 4.5915368233657284e+02,	 3.6600615147871554e+03,	 4.3003917734449124e+02,	 3.8165072179718171e+00 
9.1018440000000000e-01,	 2.4515279999999998e-01,	 2.7709589598414557e-02,	 1.5858467401143321e+03,	 4.2279346286937630e+02,	 4.5916819935065996e+02,	 3.6604277027558810e+03,	 4.3004597554266689e+02,	 3.8164259394599638e+00 
9.1147409999999995e-01,	 2.4549150000000000e-01,	 2.7710975215498809e-02,	 1.5858362947963089e+03,	 4.2280430356219591e+02,	 4.5918079057203386e+02,	 3.6607111228768404e+03,	 4.3005187182094380e+02,	 3.8163566389512287e+00 
9.1273249999999995e-01,	 2.4582199999999998e-01,	 2.7712466555509969e-02,	 1.5858256313349968e+03,	 4.2281490064888305e+02,	 4.5919342402938827e+02,	 3.6610088565008496e+03,	 4.3005778779644299e+02,	 3.8162865297472019e+00 
9.1399079999999999e-01,	 2.4615250000000000e-01,	 2.7713768738720206e-02,	 1.5858161960104840e+03,	 4.2282363968006797e+02,	 4.5920507517237206e+02,	 3.6612737792936714e+03,	 4.3006324370318202e+02,	 3.8162221514340198e+00 
9.1521870000000005e-01,	 2.4647490000000000e-01,	 2.7714972543523574e-02,	 1.5858081976846206e+03,	 4.2282996259130891e+02,	 4.5921552893664227e+02,	 3.6615161664896045e+03,	 4.3006813885180713e+02,	 3.8161645318901596e+00 
9.1644650000000005e-01,	 2.4679730000000000e-01,	 2.7715915840922842e-02,	 1.5858003065888308e+03,	 4.2283400117820190e+02,	 4.5922532277665510e+02,	 3.6617188816237181e+03,	 4.3007272492939336e+02,	 3.8161085286692069e+00 
9.1764469999999998e-01,	 2.4711200000000000e-01,	 2.7717485833472662e-02,	 1.5857885240139474e+03,	 4.2284516814821984e+02,	 4.5923837768447919e+02,	 3.6620304045686403e+03,	 4.3007883796323631e+02,	 3.8160345056318961e+00 
9.1884299999999997e-01,	 2.4742670000000000e-01,	 2.7719305706554349e-02,	 1.5857746504451998e+03,	 4.2286138604980522e+02,	 4.5925357713684059e+02,	 3.6623920564445157e+03,	 4.3008595508262266e+02,	 3.8159499044045693e+00 
9.2001239999999995e-01,	 2.4773379999999998e-01,	 2.7721290801070369e-02,	 1.5857620368813791e+03,	 4.2287610563909965e+02,	 4.5926842517417936e+02,	 3.6627727520975500e+03,	 4.3009290753876354e+02,	 3.8158687004824654e+00 
9.2118180000000005e-01,	 2.4804089999999998e-01,	 2.7722429645088406e-02,	 1.5857535291088761e+03,	 4.2288395236949401e+02,	 4.5927926691741322e+02,	 3.6630096948386072e+03,	 4.3009798401375713e+02,	 3.8158092493905347e+00 
9.2232329999999996e-01,	 2.4834059999999999e-01,	 2.7723827693353881e-02,	 1.5857424142182722e+03,	 4.2289333254132669e+02,	 4.5929167082456632e+02,	 3.6632933543326167e+03,	 4.3010379187383802e+02,	 3.8157383730011869e+00 
9.2346479999999997e-01,	 2.4864039999999998e-01,	 2.7725732330058123e-02,	 1.5857286824239791e+03,	 4.2290874112068911e+02,	 4.5930677547027040e+02,	 3.6636655062445539e+03,	 4.3011086419018181e+02,	 3.8156540142434108e+00 
9.2457920000000005e-01,	 2.4893299999999999e-01,	 2.7727584522303436e-02,	 1.5857161039273074e+03,	 4.2292363049832176e+02,	 4.5932147397687390e+02,	 3.6640275047057753e+03,	 4.3011774623192133e+02,	 3.8155736263807332e+00 
9.2569360000000001e-01,	 2.4922559999999999e-01,	 2.7729024615890892e-02,	 1.5857070710131763e+03,	 4.2293235203904146e+02,	 4.5933340167401514e+02,	 3.6643129568030708e+03,	 4.3012333086185606e+02,	 3.8155090197586783e+00 