TITLE = "Final State"
VARIABLES = "X", "Y", "rho", "u", "v", "T", "p", "c", "M"
ZONE I=77, J=25, DATAPACKING=POINT, STRANDID=19000, SOLUTIONTIME=0.000458
2.1589400000000000e-01,	 1.8936299999999998e-01,	 1.1581773064021514e-02,	 1.7359372285610305e+03,	 4.0140237127959871e-01,	 3.0010309764690652e+02,	 9.9994351156841230e+02,	 3.4766760486939222e+02,	 4.9930946992357477e+00 
2.2017450000000000e-01,	 1.8988320000000000e-01,	 1.1585802250097310e-02,	 1.7359045677736513e+03,	 5.2107450197994920e-01,	 3.0016853036299318e+02,	 1.0005094798350416e+03,	 3.4770550450453402e+02,	 4.9924566148410952e+00 
2.2445490000000001e-01,	 1.9040340000000000e-01,	 1.1591636445531531e-02,	 1.7358532183028547e+03,	 6.9401852889144244e-01,	 3.0025783083791811e+02,	 1.0013111031887404e+03,	 3.4775722204737548e+02,	 4.9915666648773591e+00 
2.2873540000000001e-01,	 1.9092370000000000e-01,	 1.1597127688735323e-02,	 1.7358071227274547e+03,	 8.6231495301089278e-01,	 3.0033734799767694e+02,	 1.0020507513137155e+03,	 3.4780326720119700e+02,	 4.9907735223024678e+00 
2.3301580000000000e-01,	 1.9144390000000000e-01,	 1.1602256298565400e-02,	 1.7357672890423369e+03,	 1.0195147769393773e+00,	 3.0040557186473757e+02,	 1.0027216132175427e+03,	 3.4784276801028801e+02,	 4.9900925017951154e+00 
2.3729629999999999e-01,	 1.9196410000000000e-01,	 1.1606996215389069e-02,	 1.7357343869728466e+03,	 1.1614630933018897e+00,	 3.0046173662055867e+02,	 1.0033188076712355e+03,	 3.4787528337100883e+02,	 4.9895317619244661e+00 
2.4157670000000001e-01,	 1.9248430000000000e-01,	 1.1611294856648580e-02,	 1.7357081857144315e+03,	 1.2864876283001010e+00,	 3.0050619692439670e+02,	 1.0038389052878299e+03,	 3.4790102053949221e+02,	 4.9890875852791767e+00 
2.4585720000000000e-01,	 1.9300460000000000e-01,	 1.1615140539799165e-02,	 1.7356880934784340e+03,	 1.3952348644111150e+00,	 3.0054025028310696e+02,	 1.0042851713495145e+03,	 3.4792073205086416e+02,	 4.9887474196426096e+00 
2.5013760000000002e-01,	 1.9352480000000000e-01,	 1.1618437634948860e-02,	 1.7356735196087461e+03,	 1.4873661798630962e+00,	 3.0056472378998819e+02,	 1.0046520534592717e+03,	 3.4793489765278355e+02,	 4.9885026440541136e+00 
2.5441799999999998e-01,	 1.9404500000000000e-01,	 1.1621290422158067e-02,	 1.7356639947596821e+03,	 1.5633434558630550e+00,	 3.0058055644069486e+02,	 1.0049516697726003e+03,	 3.4794406150123967e+02,	 4.9883440784604245e+00 
2.5869850000000000e-01,	 1.9456530000000000e-01,	 1.1623692509521734e-02,	 1.7356588942365247e+03,	 1.6243630559854290e+00,	 3.0058890975330468e+02,	 1.0051873243752309e+03,	 3.4794889625395604e+02,	 4.9882602675982790e+00 
2.6297890000000002e-01,	 1.9508550000000000e-01,	 1.1625593855243725e-02,	 1.7356577744755887e+03,	 1.6714891519334072e+00,	 3.0059092889444986e+02,	 1.0053585011442672e+03,	 3.4795006488781155e+02,	 4.9882404243306340e+00 
2.6725939999999998e-01,	 1.9560569999999999e-01,	 1.1627095142752487e-02,	 1.7356591164405027e+03,	 1.7059470096323972e+00,	 3.0058763327191849e+02,	 1.0054773055512119e+03,	 3.4794815745297814e+02,	 4.9882717227684266e+00 
2.7153980000000000e-01,	 1.9612589999999999e-01,	 1.1628229721918626e-02,	 1.7356634071353014e+03,	 1.7289183558818453e+00,	 3.0057989391655383e+02,	 1.0055495296807987e+03,	 3.4794367804086181e+02,	 4.9883483384658982e+00 
2.7582030000000002e-01,	 1.9664619999999999e-01,	 1.1629029656134281e-02,	 1.7356698942322391e+03,	 1.7416427492979851e+00,	 3.0056851538013530e+02,	 1.0055806359007330e+03,	 3.4793709222564075e+02,	 4.9884614398182592e+00 
2.8010069999999998e-01,	 1.9716639999999999e-01,	 1.1629442715977073e-02,	 1.7356780184878144e+03,	 1.7450627130759420e+00,	 3.0055426214001511e+02,	 1.0055686665723281e+03,	 3.4792884237666675e+02,	 4.9886030829764518e+00 
2.8438120000000000e-01,	 1.9768659999999999e-01,	 1.1629613896229830e-02,	 1.7356874927534186e+03,	 1.7402277145086151e+00,	 3.0053772237810244e+02,	 1.0055281299672604e+03,	 3.4791926883186380e+02,	 4.9887675694728424e+00 
2.8866160000000002e-01,	 1.9820689999999999e-01,	 1.1629555701348916e-02,	 1.7356980954793662e+03,	 1.7282206826874322e+00,	 3.0051940160239212e+02,	 1.0054618016039626e+03,	 3.4790866409315726e+02,	 4.9889500751327578e+00 
2.9294209999999998e-01,	 1.9872709999999999e-01,	 1.1629202431696276e-02,	 1.7357093552622573e+03,	 1.7097214192484880e+00,	 3.0049980725909654e+02,	 1.0053657030901417e+03,	 3.4789732180895277e+02,	 4.9891450393990366e+00 
2.9722250000000000e-01,	 1.9924729999999999e-01,	 1.1628682699477495e-02,	 1.7357212231443702e+03,	 1.6856288745312589e+00,	 3.0047931105282208e+02,	 1.0052522013273536e+03,	 3.4788545708110456e+02,	 4.9893492421288697e+00 
3.0150290000000002e-01,	 1.9976749999999999e-01,	 1.1628000469791126e-02,	 1.7357333896487107e+03,	 1.6566473915886306e+00,	 3.0045824162895769e+02,	 1.0051227418242270e+03,	 3.4787326011050504e+02,	 4.9895590701037831e+00 
3.0578339999999998e-01,	 2.0028779999999999e-01,	 1.1627195535146437e-02,	 1.7357458102404812e+03,	 1.6235582832038853e+00,	 3.0043685518159066e+02,	 1.0049816242710006e+03,	 3.4786087917942820e+02,	 4.9897722723109954e+00 
3.1006380000000000e-01,	 2.0080799999999999e-01,	 1.1626197263655396e-02,	 1.7357581935526923e+03,	 1.5868043341038995e+00,	 3.0041544110626739e+02,	 1.0048237145824513e+03,	 3.4784848181259099e+02,	 4.9899856104709821e+00 
3.1434430000000002e-01,	 2.0132819999999998e-01,	 1.1625144948829349e-02,	 1.7357705093363668e+03,	 1.5469953027894781e+00,	 3.0039416372386506e+02,	 1.0046616038604665e+03,	 3.4783616314449063e+02,	 4.9901976350585660e+00 
3.1862469999999998e-01,	 2.0184849999999999e-01,	 1.1624037753623490e-02,	 1.7357816886093265e+03,	 1.5050419743247929e+00,	 3.0037530864730991e+02,	 1.0045028640934266e+03,	 3.4782524652027604e+02,	 4.9903862886945838e+00 
3.2290520000000000e-01,	 2.0236869999999998e-01,	 1.1622796754542957e-02,	 1.7357936706452840e+03,	 1.4610266048532701e+00,	 3.0035458193285746e+02,	 1.0043263158813435e+03,	 3.4781324586854868e+02,	 4.9905928142197888e+00 
3.2718560000000002e-01,	 2.0288889999999998e-01,	 1.1621535184864746e-02,	 1.7358064522256602e+03,	 1.4147893522543131e+00,	 3.0033228411755397e+02,	 1.0041427522055081e+03,	 3.4780033509587082e+02,	 4.9908147107373999e+00 
3.3146609999999999e-01,	 2.0340909999999998e-01,	 1.1620267432867374e-02,	 1.7358175924506263e+03,	 1.3704947266939773e+00,	 3.0031295261738148e+02,	 1.0039685871929331e+03,	 3.4778914147668644e+02,	 4.9910072698346140e+00 
3.3574650000000000e-01,	 2.0392939999999998e-01,	 1.1619031041771317e-02,	 1.7358283609539144e+03,	 1.3222016054219732e+00,	 3.0029455523719321e+02,	 1.0038002681288356e+03,	 3.4777848841127405e+02,	 4.9911910091162044e+00 
3.4002700000000002e-01,	 2.0444959999999998e-01,	 1.1617649291132456e-02,	 1.7358387626968533e+03,	 1.2700450501026388e+00,	 3.0027656200138881e+02,	 1.0036207556889987e+03,	 3.4776806905138068e+02,	 4.9913703464862182e+00 
3.4430739999999999e-01,	 2.0496979999999998e-01,	 1.1616315915199113e-02,	 1.7358487813070919e+03,	 1.2205651369364072e+00,	 3.0025929827055450e+02,	 1.0034478742386466e+03,	 3.4775807183316164e+02,	 4.9915425435792207e+00 
3.4858790000000001e-01,	 2.0549009999999998e-01,	 1.1615018512001734e-02,	 1.7358583957111919e+03,	 1.1712403500094322e+00,	 3.0024280558835756e+02,	 1.0032806897826117e+03,	 3.4774852085146864e+02,	 4.9917071871302925e+00 
3.5286830000000002e-01,	 2.0601029999999998e-01,	 1.1613681874708615e-02,	 1.7358674523300581e+03,	 1.1218963203310954e+00,	 3.0022714195241304e+02,	 1.0031128988592981e+03,	 3.4773944973107245e+02,	 4.9918633511812978e+00 
3.5714869999999999e-01,	 2.0653049999999998e-01,	 1.1612384646049297e-02,	 1.7358760913659221e+03,	 1.0727896542431610e+00,	 3.0021230337096790e+02,	 1.0029512800093579e+03,	 3.4773085619773684e+02,	 4.9920114707232717e+00 
3.6142920000000001e-01,	 2.0705069999999998e-01,	 1.1611130785663292e-02,	 1.7358841964425033e+03,	 1.0240548783414993e+00,	 3.0019827959790882e+02,	 1.0027961395523206e+03,	 3.4772273435278197e+02,	 4.9921512947240130e+00 
3.6570960000000002e-01,	 2.0757099999999998e-01,	 1.1609942486921689e-02,	 1.7358919332465675e+03,	 9.7598087366050601e-01,	 3.0018503318646214e+02,	 1.0026492676531191e+03,	 3.4771506254129235e+02,	 4.9922836098196814e+00 
3.6999009999999999e-01,	 2.0809119999999998e-01,	 1.1608706019685396e-02,	 1.7358990758799300e+03,	 9.2843133093364172e-01,	 3.0017262827696777e+02,	 1.0025010555073535e+03,	 3.4770787794185134e+02,	 4.9924072311417156e+00 
3.7427050000000001e-01,	 2.0861140000000000e-01,	 1.1607575432508423e-02,	 1.7359057836370805e+03,	 8.8161565841907252e-01,	 3.0016101334543362e+02,	 1.0023646334373574e+03,	 3.4770115074242659e+02,	 4.9925230440102322e+00 
3.7855100000000003e-01,	 2.0913169999999998e-01,	 1.1606508235833691e-02,	 1.7359120843784351e+03,	 8.3568814157838567e-01,	 3.0015015932260013e+02,	 1.0022362335194738e+03,	 3.4769486413260819e+02,	 4.9926313690711428e+00 
3.8283139999999999e-01,	 2.0965190000000000e-01,	 1.1605428561211925e-02,	 1.7359178231925364e+03,	 7.9049163407997480e-01,	 3.0014011267905084e+02,	 1.0021094585018268e+03,	 3.4768904505257990e+02,	 4.9927313726972065e+00 
3.8711190000000001e-01,	 2.1017210000000000e-01,	 1.1604420623962063e-02,	 1.7359231288903684e+03,	 7.4611137208157685e-01,	 3.0013085882307473e+02,	 1.0019915306545114e+03,	 3.4768368507400339e+02,	 4.9928235455244447e+00 
3.9139230000000003e-01,	 2.1069230000000000e-01,	 1.1603492562093403e-02,	 1.7359279244547945e+03,	 7.0253933155674253e-01,	 3.0012237947294972e+02,	 1.0018830903480678e+03,	 3.4767877362882052e+02,	 4.9929078168826297e+00 
3.9567279999999999e-01,	 2.1121260000000000e-01,	 1.1602644019681571e-02,	 1.7359323085936012e+03,	 6.5985167710630210e-01,	 3.0011465202869607e+02,	 1.0017840302078613e+03,	 3.4767429764532312e+02,	 4.9929846576517107e+00 
3.9995320000000001e-01,	 2.1173280000000000e-01,	 1.1601786266786485e-02,	 1.7359361030736568e+03,	 6.1778345192493900e-01,	 3.0010774566462737e+02,	 1.0016869191851869e+03,	 3.4767029720903162e+02,	 4.9930529784604225e+00 
4.0423360000000003e-01,	 2.1225300000000000e-01,	 1.1601048390912061e-02,	 1.7359394116404510e+03,	 5.7636678033190369e-01,	 3.0010162781461679e+02,	 1.0016027930994539e+03,	 3.4766675347248650e+02,	 4.9931133477233827e+00 
4.0851409999999999e-01,	 2.1277330000000000e-01,	 1.1600403351405622e-02,	 1.7359422757823445e+03,	 5.3563073285567142e-01,	 3.0009628234658521e+02,	 1.0015292624024283e+03,	 3.4766365710508984e+02,	 4.9931660181924880e+00 
4.1279450000000001e-01,	 2.1329350000000000e-01,	 1.1599766707458371e-02,	 1.7359445114696307e+03,	 4.9527834716374453e-01,	 3.0009177789782586e+02,	 1.0014592651430097e+03,	 3.4766104787748918e+02,	 4.9932098885426939e+00 
4.1707499999999997e-01,	 2.1381370000000000e-01,	 1.1599225569428818e-02,	 1.7359462420579223e+03,	 4.5529625923335065e-01,	 3.0008811434346029e+02,	 1.0014003209411952e+03,	 3.4765892572831541e+02,	 4.9932453140036683e+00 
4.2135539999999999e-01,	 2.1433389999999999e-01,	 1.1598787470458984e-02,	 1.7359473813814311e+03,	 4.1558952788838655e-01,	 3.0008528312102169e+02,	 1.0013530508856900e+03,	 3.4765728570655835e+02,	 4.9932721173954535e+00 
4.2563590000000001e-01,	 2.1485420000000000e-01,	 1.1598452526353104e-02,	 1.7359479986157094e+03,	 3.7618106483754060e-01,	 3.0008326754359740e+02,	 1.0013174087267379e+03,	 3.4765611815287855e+02,	 4.9932906361558205e+00 
4.2991629999999997e-01,	 2.1537439999999999e-01,	 1.1598120920175207e-02,	 1.7359479844738812e+03,	 3.3676301402036579e-01,	 3.0008214410751287e+02,	 1.0012850319350479e+03,	 3.4765546738384887e+02,	 4.9932999190320917e+00 
4.3419679999999999e-01,	 2.1589459999999999e-01,	 1.1597928774973749e-02,	 1.7359473950918068e+03,	 2.9736131127894527e-01,	 3.0008187111713090e+02,	 1.0012675328480710e+03,	 3.4765530924944755e+02,	 4.9933004742771860e+00 
4.3847720000000001e-01,	 2.1641489999999999e-01,	 1.1597852545802444e-02,	 1.7359463183808512e+03,	 2.5809060883597973e-01,	 3.0008240727065584e+02,	 1.0012627408069116e+03,	 3.4765561982558393e+02,	 4.9932928984075744e+00 
4.4275769999999998e-01,	 2.1693509999999999e-01,	 1.1597777467522916e-02,	 1.7359445163475182e+03,	 2.1865264805938170e-01,	 3.0008381078278109e+02,	 1.0012609421333588e+03,	 3.4765643283277041e+02,	 4.9932760224599368e+00 
4.4703809999999999e-01,	 2.1745529999999999e-01,	 1.1597821495439805e-02,	 1.7359422304723789e+03,	 1.7921817058999645e-01,	 3.0008602635724799e+02,	 1.0012721356810424e+03,	 3.4765771623638369e+02,	 4.9932510013477502e+00 
4.5131850000000001e-01,	 2.1797549999999999e-01,	 1.1597954210911924e-02,	 1.7359393564486293e+03,	 1.3978495619366621e-01,	 3.0008901107185346e+02,	 1.0012935523397280e+03,	 3.4765944516807667e+02,	 4.9932178924044903e+00 
4.5559899999999998e-01,	 2.1849579999999999e-01,	 1.1598188085492846e-02,	 1.7359360792578277e+03,	 1.0053799509048217e-01,	 3.0009268549227443e+02,	 1.0013260041037195e+03,	 3.4766157360831835e+02,	 4.9931778889228902e+00 
4.5987939999999999e-01,	 2.1901599999999999e-01,	 1.1598406354622538e-02,	 1.7359322560933383e+03,	 6.1338337849562122e-02,	 3.0009705614633322e+02,	 1.0013594322359760e+03,	 3.4766410533103038e+02,	 4.9931305261558157e+00 
4.6415990000000001e-01,	 2.1953619999999999e-01,	 1.1598745026513899e-02,	 1.7359280081105412e+03,	 2.2546138419541450e-02,	 3.0010205436189131e+02,	 1.0014053502544615e+03,	 3.4766700054920938e+02,	 4.9930767243215799e+00 
4.6844029999999998e-01,	 2.2005649999999999e-01,	 1.1599171527282756e-02,	 1.7359235111377573e+03,	 -1.5428620142011767e-02,	 3.0010756718030171e+02,	 1.0014605695216005e+03,	 3.4767019382331654e+02,	 4.9930179291944263e+00 
4.7272080000000000e-01,	 2.2057669999999999e-01,	 1.1599552530315730e-02,	 1.7359186597676098e+03,	 -5.3003374930983324e-02,	 3.0011341444651816e+02,	 1.0015129779323954e+03,	 3.4767358079268837e+02,	 4.9929553364938943e+00 
4.7700120000000001e-01,	 2.2109689999999999e-01,	 1.1599995441467541e-02,	 1.7359137679302012e+03,	 -8.9787216424267347e-02,	 3.0011945591390179e+02,	 1.0015713810131784e+03,	 3.4767708021645058e+02,	 4.9928910159149211e+00 
4.8128169999999998e-01,	 2.2161709999999998e-01,	 1.1600469130871278e-02,	 1.7359087139046039e+03,	 -1.2542891741065201e-01,	 3.0012565386235792e+02,	 1.0016329653916604e+03,	 3.4768067024277968e+02,	 4.9928249310607651e+00 
4.8556210000000000e-01,	 2.2213739999999998e-01,	 1.1600988055660419e-02,	 1.7359037803990288e+03,	 -1.5943406475484739e-01,	 3.0013185728521483e+02,	 1.0016984756231928e+03,	 3.4768426340291785e+02,	 4.9927591508763998e+00 
4.8984260000000002e-01,	 2.2265759999999998e-01,	 1.1601402235000901e-02,	 1.7358987810071521e+03,	 -1.9187613932873832e-01,	 3.0013804285905655e+02,	 1.0017548835997609e+03,	 3.4768784618753722e+02,	 4.9926933329595640e+00 
4.9412299999999998e-01,	 2.2317779999999998e-01,	 1.1601875537624226e-02,	 1.7358940001172398e+03,	 -2.2229253778183194e-01,	 3.0014401420785561e+02,	 1.0018156832808286e+03,	 3.4769130485451694e+02,	 4.9926299280811373e+00 
4.9840350000000000e-01,	 2.2369809999999998e-01,	 1.1602337935598271e-02,	 1.7358895573811396e+03,	 -2.5030377582843066e-01,	 3.0014962129033358e+02,	 1.0018743270682729e+03,	 3.4769455250335557e+02,	 4.9925705275766719e+00 
5.0268389999999996e-01,	 2.2421829999999998e-01,	 1.1602691856078078e-02,	 1.7358853420157000e+03,	 -2.7589308742847563e-01,	 3.0015481466474967e+02,	 1.0019222240595154e+03,	 3.4769756050345734e+02,	 4.9925152233646024e+00 
5.0696430000000003e-01,	 2.2473849999999998e-01,	 1.1603016739235795e-02,	 1.7358816060062793e+03,	 -2.9872903547440699e-01,	 3.0015946853037474e+02,	 1.0019658136770902e+03,	 3.4770025599820451e+02,	 4.9924657855859724e+00 
5.1124480000000005e-01,	 2.2525869999999998e-01,	 1.1603300206050070e-02,	 1.7358782806920394e+03,	 -3.1866721201626136e-01,	 3.0016346503307221e+02,	 1.0020036332417144e+03,	 3.4770257073508822e+02,	 4.9924229961030857e+00 
5.1552520000000002e-01,	 2.2577899999999998e-01,	 1.1603553983694732e-02,	 1.7358756285205948e+03,	 -3.3533007616184152e-01,	 3.0016666772508086e+02,	 1.0020362396627679e+03,	 3.4770442569314270e+02,	 4.9923887435400705e+00 
5.1980570000000004e-01,	 2.2629919999999998e-01,	 1.1603628245660805e-02,	 1.7358734140181605e+03,	 -3.4897013547377476e-01,	 3.0016911815466807e+02,	 1.0020508328660003e+03,	 3.4770584494378750e+02,	 4.9923620046602339e+00 
5.2408610000000000e-01,	 2.2681939999999998e-01,	 1.1603707885227374e-02,	 1.7358718543285854e+03,	 -3.5929393115829633e-01,	 3.0017068245518840e+02,	 1.0020629323955212e+03,	 3.4770675095925117e+02,	 4.9923445165310429e+00 
5.2836660000000002e-01,	 2.2733969999999998e-01,	 1.1603706895035818e-02,	 1.7358710237959658e+03,	 -3.6616680878629471e-01,	 3.0017129744650708e+02,	 1.0020648999172022e+03,	 3.4770710715080531e+02,	 4.9923370178997732e+00 
5.3264699999999998e-01,	 2.2785989999999998e-01,	 1.1603555634595586e-02,	 1.7358706897868074e+03,	 -3.6990521419786193e-01,	 3.0017102924260212e+02,	 1.0020509421364945e+03,	 3.4770695181212778e+02,	 4.9923382899091076e+00 
5.3692750000000000e-01,	 2.2838010000000000e-01,	 1.1614393500906046e-02,	 1.7358276634576177e+03,	 -3.5718246227045225e-01,	 3.0020526934043323e+02,	 1.0031012796056758e+03,	 3.4772678247430798e+02,	 4.9919298359904491e+00 
5.4120789999999996e-01,	 2.2890030000000000e-01,	 1.1635440394171699e-02,	 1.7358358757560618e+03,	 -5.2664481042955658e-01,	 3.0026680934129320e+02,	 1.0051250398113104e+03,	 3.4776242143891500e+02,	 4.9914419978577174e+00 
2.1455240000000000e-01,	 1.9405780000000000e-01,	 1.1582098766731899e-02,	 1.7359866122854799e+03,	 1.9227531339921330e-01,	 3.0000986627779048e+02,	 9.9966097633259847e+02,	 3.4761359668874144e+02,	 4.9940124306701783e+00 
2.1884200000000001e-01,	 1.9455639999999999e-01,	 1.1584066341044311e-02,	 1.7359686116570319e+03,	 2.6298506380249370e-01,	 3.0004485168142094e+02,	 9.9994739382145769e+02,	 3.4763386443461786e+02,	 4.9936695160593967e+00 
2.2313150000000001e-01,	 1.9505499999999998e-01,	 1.1587104630907770e-02,	 1.7359390507134149e+03,	 3.7202348770067284e-01,	 3.0009543942151839e+02,	 1.0003782977744746e+03,	 3.4766316883743303e+02,	 4.9931636312867917e+00 
2.2742100000000001e-01,	 1.9555349999999999e-01,	 1.1590316515465066e-02,	 1.7359107494830725e+03,	 4.8533752984593131e-01,	 3.0014453468506736e+02,	 1.0008193034729520e+03,	 3.4769160631867061e+02,	 4.9926739264997044e+00 
2.3171050000000001e-01,	 1.9605209999999998e-01,	 1.1593527328845990e-02,	 1.7358842634121297e+03,	 5.9889852681321099e-01,	 3.0019081518626274e+02,	 1.0012509190858832e+03,	 3.4771841127377212e+02,	 4.9922129816662988e+00 
2.3599999999999999e-01,	 1.9655059999999999e-01,	 1.1596670846985289e-02,	 1.7358601344600875e+03,	 7.0934502295860213e-01,	 3.0023321778048899e+02,	 1.0016638696837547e+03,	 3.4774296839099225e+02,	 4.9917911710075069e+00 
2.4028949999999999e-01,	 1.9704919999999998e-01,	 1.1599686463616444e-02,	 1.7358386039051002e+03,	 8.1427024106301671e-01,	 3.0027110146038922e+02,	 1.0020507675971867e+03,	 3.4776490694905044e+02,	 4.9914144877871571e+00 
2.4457899999999999e-01,	 1.9754769999999999e-01,	 1.1602558686615626e-02,	 1.7358197652724627e+03,	 9.1266999968892792e-01,	 3.0030443922927390e+02,	 1.0024101683167042e+03,	 3.4778421181098372e+02,	 4.9910833967082642e+00 
2.4886849999999999e-01,	 1.9804629999999998e-01,	 1.1605223538967086e-02,	 1.7358035744893775e+03,	 1.0035187518522881e+00,	 3.0033323214960495e+02,	 1.0027365321311613e+03,	 3.4780088403053793e+02,	 4.9907977359215021e+00 
2.5315799999999999e-01,	 1.9854479999999999e-01,	 1.1607678126177171e-02,	 1.7357898887053846e+03,	 1.0861928582032083e+00,	 3.0035754468157137e+02,	 1.0030298085802344e+03,	 3.4781496130884432e+02,	 4.9905565362199162e+00 
2.5744760000000000e-01,	 1.9904339999999998e-01,	 1.1609930834540882e-02,	 1.7357786987339837e+03,	 1.1604855603749402e+00,	 3.0037758951106287e+02,	 1.0032914188674374e+03,	 3.4782656710234170e+02,	 4.9903579853772229e+00 
2.6173710000000000e-01,	 1.9954189999999999e-01,	 1.1611941337476187e-02,	 1.7357699377784418e+03,	 1.2262870713960250e+00,	 3.0039367643333173e+02,	 1.0035189010577205e+03,	 3.4783588101960493e+02,	 4.9901993027979632e+00 
2.6602660000000000e-01,	 2.0004049999999998e-01,	 1.1613727530376988e-02,	 1.7357628923791135e+03,	 1.2837274406925889e+00,	 3.0040613220190801e+02,	 1.0037148832723905e+03,	 3.4784309242028530e+02,	 4.9900757120350576e+00 
2.7031610000000000e-01,	 2.0053900000000000e-01,	 1.1615291975524553e-02,	 1.7357578686315883e+03,	 1.3330475605928658e+00,	 3.0041526881987915e+02,	 1.0038806215564579e+03,	 3.4784838206810554e+02,	 4.9899854936693915e+00 
2.7460560000000001e-01,	 2.0103759999999998e-01,	 1.1616658673516318e-02,	 1.7357546061212229e+03,	 1.3745687896424617e+00,	 3.0042139736777318e+02,	 1.0040192236738211e+03,	 3.4785193014774461e+02,	 4.9899253100427012e+00 
2.7889510000000001e-01,	 2.0153610000000000e-01,	 1.1617799022791753e-02,	 1.7357528946226932e+03,	 1.4085185803874278e+00,	 3.0042484224304724e+02,	 1.0041292972473780e+03,	 3.4785392451813323e+02,	 4.9898918591051151e+00 
2.8318460000000001e-01,	 2.0203469999999998e-01,	 1.1618737880619887e-02,	 1.7357524483976645e+03,	 1.4353073079944418e+00,	 3.0042589125285878e+02,	 1.0042139494224466e+03,	 3.4785453182786591e+02,	 4.9898819276844284e+00 
2.8747410000000001e-01,	 2.0253320000000000e-01,	 1.1619513329595660e-02,	 1.7357532865831913e+03,	 1.4554048015527425e+00,	 3.0042480380018765e+02,	 1.0042773367074431e+03,	 3.4785390226215083e+02,	 4.9898934163551303e+00 
2.9176360000000001e-01,	 2.0303179999999998e-01,	 1.1620088058277196e-02,	 1.7357551758112352e+03,	 1.4690684338809830e+00,	 3.0042184946999907e+02,	 1.0043171342522739e+03,	 3.4785219188771072e+02,	 4.9899234156603178e+00 
2.9605310000000001e-01,	 2.0353030000000000e-01,	 1.1620502467614971e-02,	 1.7357579898310883e+03,	 1.4767612095919955e+00,	 3.0041726118819065e+02,	 1.0043376121205972e+03,	 3.4784953553967722e+02,	 4.9899696296647180e+00 
3.0034270000000002e-01,	 2.0402889999999999e-01,	 1.1620759670414421e-02,	 1.7357615496941896e+03,	 1.4788914301198413e+00,	 3.0041125956728536e+02,	 1.0043397769464219e+03,	 3.4784606091997188e+02,	 4.9900297134909648e+00 
3.0463220000000002e-01,	 2.0452740000000000e-01,	 1.1620892587313088e-02,	 1.7357658520589305e+03,	 1.4759157632376274e+00,	 3.0040403575219091e+02,	 1.0043271134164987e+03,	 3.4784187866872230e+02,	 4.9901020721975442e+00 
3.0892170000000002e-01,	 2.0502599999999999e-01,	 1.1620875417341888e-02,	 1.7357707614700939e+03,	 1.4680963474167776e+00,	 3.0039578791982592e+02,	 1.0042980549532600e+03,	 3.4783710349785929e+02,	 4.9901846722650189e+00 
3.1321120000000002e-01,	 2.0552460000000000e-01,	 1.1620735072776011e-02,	 1.7357760984702168e+03,	 1.4558815489522121e+00,	 3.0038668455109303e+02,	 1.0042554916451509e+03,	 3.4783183292894716e+02,	 4.9902756007519677e+00 
3.1750070000000002e-01,	 2.0602309999999999e-01,	 1.1620512395392756e-02,	 1.7357825484468717e+03,	 1.4397772419679902e+00,	 3.0037560231563879e+02,	 1.0041991985070397e+03,	 3.4782541654962097e+02,	 4.9903861620882966e+00 
3.2179020000000003e-01,	 2.0652170000000000e-01,	 1.1620169348765020e-02,	 1.7357886503971308e+03,	 1.4201212300494703e+00,	 3.0036496253927999e+02,	 1.0041339844948893e+03,	 3.4781925623335701e+02,	 4.9904920449911163e+00 
3.2607969999999997e-01,	 2.0702019999999999e-01,	 1.1619744966892144e-02,	 1.7357943821503627e+03,	 1.3968241772814347e+00,	 3.0035532858622651e+02,	 1.0040651067983634e+03,	 3.4781367818386207e+02,	 4.9905885048521483e+00 
3.3036919999999997e-01,	 2.0751879999999998e-01,	 1.1619239887933669e-02,	 1.7358007401719356e+03,	 1.3687340448865333e+00,	 3.0034431821729760e+02,	 1.0039846575683584e+03,	 3.4780730308136299e+02,	 4.9906981953479539e+00 
3.3465869999999998e-01,	 2.0801729999999999e-01,	 1.1618690113629763e-02,	 1.7358073470176121e+03,	 1.3396203857055682e+00,	 3.0033301514336159e+02,	 1.0038993712833387e+03,	 3.4780075837848074e+02,	 4.9908110380222217e+00 
3.3894829999999998e-01,	 2.0851589999999998e-01,	 1.1618052944570179e-02,	 1.7358140752650852e+03,	 1.3103955592458494e+00,	 3.0032149535560217e+02,	 1.0038058132636882e+03,	 3.4779408806729663e+02,	 4.9909260376763118e+00 
3.4323779999999998e-01,	 2.0901439999999999e-01,	 1.1617368783391684e-02,	 1.7358207555913730e+03,	 1.2775107179511003e+00,	 3.0030990208980393e+02,	 1.0037079538983613e+03,	 3.4778737508091126e+02,	 4.9910415100369505e+00 
3.4752729999999998e-01,	 2.0951299999999998e-01,	 1.1616658596176811e-02,	 1.7358274965362359e+03,	 1.2427906090187970e+00,	 3.0029830258850006e+02,	 1.0036078297680612e+03,	 3.4778065835422598e+02,	 4.9911572128461152e+00 
3.5181679999999999e-01,	 2.1001149999999999e-01,	 1.1615893553370600e-02,	 1.7358341815604222e+03,	 1.2064878319823074e+00,	 3.0028677681615835e+02,	 1.0035032177638064e+03,	 3.4777398419203246e+02,	 4.9912721472727455e+00 
3.5610629999999999e-01,	 2.1051009999999998e-01,	 1.1615103341369649e-02,	 1.7358407970074331e+03,	 1.1688951885065835e+00,	 3.0027537891428665e+02,	 1.0033968638270326e+03,	 3.4776738394908767e+02,	 4.9913858247896714e+00 
3.6039579999999999e-01,	 2.1100859999999999e-01,	 1.1614286112154849e-02,	 1.7358472169593238e+03,	 1.1302463656474182e+00,	 3.0026416551121730e+02,	 1.0032887976941165e+03,	 3.4776089042259161e+02,	 4.9914974131030760e+00 
3.6468529999999999e-01,	 2.1150719999999998e-01,	 1.1613480308361374e-02,	 1.7358535790752017e+03,	 1.0908211023040886e+00,	 3.0025316911726458e+02,	 1.0031824488249572e+03,	 3.4775452244531624e+02,	 4.9916070382304927e+00 
3.6897479999999999e-01,	 2.1200569999999999e-01,	 1.1612639340952252e-02,	 1.7358597795917271e+03,	 1.0506111960347917e+00,	 3.0024245404395265e+02,	 1.0030740075605498e+03,	 3.4774831726776847e+02,	 4.9917138669886354e+00 
3.7326429999999999e-01,	 2.1250429999999998e-01,	 1.1611799579708908e-02,	 1.7358656950663719e+03,	 1.0098682128639098e+00,	 3.0023205980514081e+02,	 1.0029667474552239e+03,	 3.4774229778203011e+02,	 4.9918172160582968e+00 
3.7755379999999999e-01,	 2.1300279999999999e-01,	 1.1610985458354012e-02,	 1.7358714582419154e+03,	 9.6877163782991094e-01,	 3.0022201517090241e+02,	 1.0028628747561457e+03,	 3.4773648065942103e+02,	 4.9919172278984352e+00 
3.8184340000000000e-01,	 2.1350139999999998e-01,	 1.1610162713026458e-02,	 1.7358769754850011e+03,	 9.2728233966472262e-01,	 3.0021237840960669e+02,	 1.0027596242822807e+03,	 3.4773089965573007e+02,	 4.9920131483124326e+00 
3.8613290000000000e-01,	 2.1399989999999999e-01,	 1.1609357141990476e-02,	 1.7358822002640834e+03,	 8.8551006106441288e-01,	 3.0020318812315571e+02,	 1.0026593528486774e+03,	 3.4772557713863313e+02,	 4.9921045222125295e+00 
3.9042240000000000e-01,	 2.1449849999999998e-01,	 1.1608574917782858e-02,	 1.7358870480888902e+03,	 8.4354506164024723e-01,	 3.0019448771055312e+02,	 1.0025627380335746e+03,	 3.4772053825491435e+02,	 4.9921907453577301e+00 
3.9471190000000000e-01,	 2.1499699999999999e-01,	 1.1607841814282701e-02,	 1.7358916253290618e+03,	 8.0146474040807081e-01,	 3.0018630624086836e+02,	 1.0024721022809948e+03,	 3.4771579985274064e+02,	 4.9922718814709359e+00 
3.9900140000000001e-01,	 2.1549559999999998e-01,	 1.1607122818710276e-02,	 1.7358958489532001e+03,	 7.5912752224454483e-01,	 3.0017870487794130e+02,	 1.0023846254762816e+03,	 3.4771139736890353e+02,	 4.9923471823938002e+00 
4.0329090000000001e-01,	 2.1599420000000000e-01,	 1.1606444590113892e-02,	 1.7358995821845178e+03,	 7.1660971144269991e-01,	 3.0017172094604450e+02,	 1.0023027340029191e+03,	 3.4770735243366266e+02,	 4.9924159438941027e+00 
4.0758040000000001e-01,	 2.1649269999999998e-01,	 1.1605836626074091e-02,	 1.7359029559559790e+03,	 6.7396660310403644e-01,	 3.0016538181292776e+02,	 1.0022290659137988e+03,	 3.4770368091053751e+02,	 4.9924783144209020e+00 
4.1186990000000001e-01,	 2.1699130000000000e-01,	 1.1605261547318987e-02,	 1.7359058738561951e+03,	 6.3102430061160397e-01,	 3.0015974445192131e+02,	 1.0021605828578059e+03,	 3.4770041580987197e+02,	 4.9925335421461527e+00 
4.1615940000000001e-01,	 2.1748979999999998e-01,	 1.1604744470542404e-02,	 1.7359082947128504e+03,	 5.8779034283391596e-01,	 3.0015484171723995e+02,	 1.0020995629049280e+03,	 3.4769757617217931e+02,	 4.9925812349296628e+00 
4.2044900000000002e-01,	 2.1798840000000000e-01,	 1.1604290373523956e-02,	 1.7359101389583509e+03,	 5.4428429258335576e-01,	 3.0015070624577544e+02,	 1.0020465442775475e+03,	 3.4769518091120483e+02,	 4.9926208920629804e+00 
4.2473850000000002e-01,	 2.1848689999999998e-01,	 1.1603923683542851e-02,	 1.7359115085444939e+03,	 5.0054365299024761e-01,	 3.0014734905150829e+02,	 1.0020036725246550e+03,	 3.4769323641547680e+02,	 4.9926527148060913e+00 
4.2902800000000002e-01,	 2.1898550000000000e-01,	 1.1603603892834250e-02,	 1.7359123756847353e+03,	 4.5638967147716247e-01,	 3.0014480604924273e+02,	 1.0019675692079537e+03,	 3.4769176349465386e+02,	 4.9926763240862755e+00 
4.3331750000000002e-01,	 2.1948399999999998e-01,	 1.1603351712087866e-02,	 1.7359125691528341e+03,	 4.1192389411675645e-01,	 3.0014308502481134e+02,	 1.0019400483417980e+03,	 3.4769076666434847e+02,	 4.9926911625537631e+00 
4.3760700000000002e-01,	 2.1998260000000000e-01,	 1.1603201623968062e-02,	 1.7359122930948326e+03,	 3.6728714968218035e-01,	 3.0014216403310633e+02,	 1.0019240139317667e+03,	 3.4769023321784636e+02,	 4.9926979998394083e+00 
4.4189650000000003e-01,	 2.2048109999999999e-01,	 1.1603095097127706e-02,	 1.7359114478904962e+03,	 3.2234408452297508e-01,	 3.0014204798354973e+02,	 1.0019144280643781e+03,	 3.4769016600086366e+02,	 4.9926965084611279e+00 
4.4618600000000003e-01,	 2.2097970000000000e-01,	 1.1603064805381990e-02,	 1.7359100656587691e+03,	 2.7727692288209038e-01,	 3.0014265862889624e+02,	 1.0019138508164187e+03,	 3.4769051969218305e+02,	 4.9926874317433931e+00 
4.5047549999999997e-01,	 2.2147819999999999e-01,	 1.1603097514140452e-02,	 1.7359081048983880e+03,	 2.3221550211605690e-01,	 3.0014411531780581e+02,	 1.0019215378113266e+03,	 3.4769136341814954e+02,	 4.9926696578385954e+00 