TITLE = "Final State"
VARIABLES = "X", "Y", "rho", "u", "v", "T", "p", "c", "M"
ZONE I=73, J=25, DATAPACKING=POINT, STRANDID=21000, SOLUTIONTIME=0.000507
5.4120789999999996e-01,	 2.2890030000000000e-01,	 1.1637478444378360e-02,	 1.7357335261570597e+03,	 2.3335111545231602e-02,	 3.0045246950422541e+02,	 1.0059226914041730e+03,	 3.4786991858543757e+02,	 4.9896051184075523e+00 
5.4548839999999998e-01,	 2.2942060000000000e-01,	 1.1642331390690860e-02,	 1.7356580985200176e+03,	 4.3577979958713309e-01,	 3.0058910222051941e+02,	 1.0067998120021890e+03,	 3.4794900764985596e+02,	 4.9882543564350703e+00 
5.4976879999999995e-01,	 2.2994080000000000e-01,	 1.1650270002321869e-02,	 1.7355510891527235e+03,	 9.5392505894893431e-01,	 3.0076404580367694e+02,	 1.0080726828295370e+03,	 3.4805024650290989e+02,	 4.9864965439551483e+00 
5.5404920000000002e-01,	 2.3046100000000000e-01,	 1.1658489082057953e-02,	 1.7354658926729553e+03,	 1.3717930804212832e+00,	 3.0090324301405593e+02,	 1.0092507393141605e+03,	 3.4813077810205243e+02,	 4.9850991179202886e+00 
5.5832970000000004e-01,	 2.3098130000000000e-01,	 1.1665992044629685e-02,	 1.7354031651746450e+03,	 1.6990740002253657e+00,	 3.0100512237802832e+02,	 1.0102421854111270e+03,	 3.4818970790999566e+02,	 4.9840760869810419e+00 
5.6261010000000000e-01,	 2.3150150000000000e-01,	 1.1672257289807378e-02,	 1.7353604044065441e+03,	 1.9489337610083841e+00,	 3.0107368069468316e+02,	 1.0110149590676812e+03,	 3.4822935830025756e+02,	 4.9833865452144099e+00 
5.6689060000000002e-01,	 2.3202170000000000e-01,	 1.1677148710672892e-02,	 1.7353355917042200e+03,	 2.1306669669391640e+00,	 3.0111236367490108e+02,	 1.0115685919794747e+03,	 3.4825172843352448e+02,	 4.9829957988704905e+00 
5.7117099999999998e-01,	 2.3254190000000000e-01,	 1.1680612559362424e-02,	 1.7353263688757788e+03,	 2.2539969362632606e+00,	 3.0112614458980124e+02,	 1.0119149683027616e+03,	 3.4825969750604094e+02,	 4.9828557399794047e+00 
5.7545150000000000e-01,	 2.3306220000000000e-01,	 1.1682727318925884e-02,	 1.7353280077201766e+03,	 2.3294540311658949e+00,	 3.0111923934138792e+02,	 1.0120749653361395e+03,	 3.4825570443942507e+02,	 4.9829178649307853e+00 
5.7973189999999997e-01,	 2.3358240000000000e-01,	 1.1683501354808147e-02,	 1.7353391545103734e+03,	 2.3659047542009977e+00,	 3.0109777142296980e+02,	 1.0120698606887428e+03,	 3.4824328999137043e+02,	 4.9831276500726842e+00 
5.8401239999999999e-01,	 2.3410259999999999e-01,	 1.1683285418314281e-02,	 1.7353567001915887e+03,	 2.3722600018047961e+00,	 3.0106573418144342e+02,	 1.0119434717211182e+03,	 3.4822476270183222e+02,	 4.9834431882007424e+00 
5.8829279999999995e-01,	 2.3462290000000000e-01,	 1.1682267042118295e-02,	 1.7353782142078196e+03,	 2.3574815314184088e+00,	 3.0102739585133713e+02,	 1.0117264137096205e+03,	 3.4820259016701613e+02,	 4.9838222474847464e+00 
5.9257329999999997e-01,	 2.3514309999999999e-01,	 1.1680570496635009e-02,	 1.7354006981344223e+03,	 2.3306485893877213e+00,	 3.0098742565972157e+02,	 1.0114451699938230e+03,	 3.4817947236035008e+02,	 4.9842176260518949e+00 
5.9685370000000004e-01,	 2.3566329999999999e-01,	 1.1678713894767954e-02,	 1.7354208769356624e+03,	 2.3050046812993461e+00,	 3.0095185825743243e+02,	 1.0111649004016217e+03,	 3.4815889973143811e+02,	 4.9845700024892725e+00 
6.0113410000000000e-01,	 2.3618349999999999e-01,	 1.1677216795219126e-02,	 1.7354332814297900e+03,	 2.3003804837127650e+00,	 3.0092928879365019e+02,	 1.0109594575445700e+03,	 3.4814584464174800e+02,	 4.9847925309414380e+00 
6.0541460000000002e-01,	 2.3670379999999999e-01,	 1.1677000717881043e-02,	 1.7354291926359024e+03,	 2.3498815618124791e+00,	 3.0093672422229508e+02,	 1.0109657291191135e+03,	 3.4815014564815124e+02,	 4.9847193955610916e+00 
6.0969499999999999e-01,	 2.3722399999999999e-01,	 1.1679510166636188e-02,	 1.7353926297768892e+03,	 2.5123340630381108e+00,	 3.0099978703947579e+02,	 1.0113948894869579e+03,	 3.4818662205187206e+02,	 4.9840928353498501e+00 
6.1397550000000001e-01,	 2.3774419999999999e-01,	 1.1687768709927996e-02,	 1.7352947694960540e+03,	 2.8952507206518914e+00,	 3.0116895796516542e+02,	 1.0126788797520874e+03,	 3.4828445398017334e+02,	 4.9824135557947047e+00 
6.1825589999999997e-01,	 2.3826449999999999e-01,	 1.1706888937312490e-02,	 1.7350827605751265e+03,	 3.6942132551205598e+00,	 3.0153529705987307e+02,	 1.0155693672605510e+03,	 3.4849621457484017e+02,	 4.9787820376007605e+00 
6.2253639999999999e-01,	 2.3878469999999999e-01,	 1.1745909745098978e-02,	 1.7346606134724636e+03,	 5.2577502791357205e+00,	 3.0226201192953602e+02,	 1.0214101416666660e+03,	 3.4891590834956435e+02,	 4.9715949890930879e+00 
6.2681679999999995e-01,	 2.3930489999999999e-01,	 1.1820798923585868e-02,	 1.7338618113127532e+03,	 8.1842253121923836e+00,	 3.0362899763756786e+02,	 1.0325712129886474e+03,	 3.4970400772787559e+02,	 4.9581391365249212e+00 
6.3109729999999997e-01,	 2.3982509999999999e-01,	 1.1957119979179868e-02,	 1.7324139240256686e+03,	 1.3422955367988610e+01,	 3.0608048286339755e+02,	 1.0529122108264430e+03,	 3.5111291584952340e+02,	 4.9342130306001621e+00 
6.3537770000000005e-01,	 2.4034539999999999e-01,	 1.2192371381843640e-02,	 1.7299231802539152e+03,	 2.2289207474429368e+01,	 3.1022650397559028e+02,	 1.0881706777079460e+03,	 3.5348292165154731e+02,	 4.8943432936944129e+00 
6.3965819999999995e-01,	 2.4086559999999999e-01,	 1.2573472919576358e-02,	 1.7259274050475342e+03,	 3.6208878886550252e+01,	 3.1670717451606663e+02,	 1.1456266029968647e+03,	 3.5715598935273181e+02,	 4.8334823846108623e+00 
6.4393860000000003e-01,	 2.4138579999999998e-01,	 1.3147452952978729e-02,	 1.7200651332639331e+03,	 5.6088998493487928e+01,	 3.2587091004831302e+02,	 1.2325857891859594e+03,	 3.6228619320061017e+02,	 4.7503311354297129e+00 
6.4821910000000005e-01,	 2.4190609999999999e-01,	 1.3944246749592468e-02,	 1.7122951384589865e+03,	 8.1606605139475192e+01,	 3.3744428557729930e+02,	 1.3537144809986164e+03,	 3.6866340129750409e+02,	 4.6498748774513725e+00 
6.5249950000000001e-01,	 2.4242629999999998e-01,	 1.4960680763983446e-02,	 1.7029975902820133e+03,	 1.1102670871221744e+02,	 3.5051870319306829e+02,	 1.5086638693994996e+03,	 3.7573753744414955e+02,	 4.5420347147461513e+00 
6.5677989999999997e-01,	 2.4294649999999998e-01,	 1.6154306486103005e-02,	 1.6928432141398389e+03,	 1.4183693478222369e+02,	 3.6394149102767994e+02,	 1.6914136290084430e+03,	 3.8286421089367406e+02,	 4.4370164779228984e+00 
6.6106039999999999e-01,	 2.4346669999999998e-01,	 1.7449658580025729e-02,	 1.6825270076497829e+03,	 1.7170534573265689e+02,	 3.7678095868051889e+02,	 1.8914977030759767e+03,	 3.8955919522972516e+02,	 4.3414859067702265e+00 
6.6534079999999995e-01,	 2.4398699999999998e-01,	 1.8755365423337854e-02,	 1.6725746814384929e+03,	 1.9905635190417939e+02,	 3.8852661989256558e+02,	 2.0964101200794703e+03,	 3.9558460018327963e+02,	 4.2579465258116818e+00 
6.6962129999999997e-01,	 2.4450719999999998e-01,	 1.9988857535881210e-02,	 1.6633638422768868e+03,	 2.2301297709880083e+02,	 3.9894898041987278e+02,	 2.2942211000705120e+03,	 4.0085533343883668e+02,	 4.1866658063804634e+00 
6.7390170000000005e-01,	 2.4502739999999998e-01,	 2.1096716415706398e-02,	 1.6552006578663081e+03,	 2.4318187046313778e+02,	 4.0791292811061578e+02,	 2.4757812658226130e+03,	 4.0533370781579356e+02,	 4.1273878182029646e+00 
6.7818219999999996e-01,	 2.4554769999999998e-01,	 2.2053819181743029e-02,	 1.6482557332529350e+03,	 2.5965017056583264e+02,	 4.1538380888773338e+02,	 2.6355017641907184e+03,	 4.0902868761002867e+02,	 4.0793759351263406e+00 
6.8246260000000003e-01,	 2.4606789999999998e-01,	 2.2855075141326949e-02,	 1.6425185796935875e+03,	 2.7286992322628498e+02,	 4.2146154075796267e+02,	 2.7712170441214275e+03,	 4.1201019427958806e+02,	 4.0412352336210624e+00 
6.8674310000000005e-01,	 2.4658809999999998e-01,	 2.3510486970171742e-02,	 1.6378714932412963e+03,	 2.8339596313968934e+02,	 4.2632478995301943e+02,	 2.8835809578830767e+03,	 4.1438047123266176e+02,	 4.0113093536024955e+00 
6.9102350000000001e-01,	 2.4710829999999998e-01,	 2.4038152091226846e-02,	 1.6341554054070109e+03,	 2.9176026934331418e+02,	 4.3017285204884490e+02,	 2.9749112565470355e+03,	 4.1624639574632960e+02,	 3.9880137956043309e+00 
6.9530400000000003e-01,	 2.4762859999999998e-01,	 2.4458965772064800e-02,	 1.6312052260247410e+03,	 2.9843111090984138e+02,	 4.3319690836937082e+02,	 3.0482696022380192e+03,	 4.1770691105452954e+02,	 3.9699599704409096e+00 
6.9958440000000000e-01,	 2.4814880000000000e-01,	 2.4793072717239219e-02,	 1.6288667901148706e+03,	 3.0379857736492374e+02,	 4.3556767394345439e+02,	 3.1068188562563901e+03,	 4.1884834806855662e+02,	 3.9559788786797432e+00 
7.0386479999999996e-01,	 2.4866900000000000e-01,	 2.5059093263194734e-02,	 1.6270076023113752e+03,	 3.0817366683134060e+02,	 4.3742958788794556e+02,	 3.1535770431612159e+03,	 4.1974261546926766e+02,	 3.9451229243756818e+00 
7.0814529999999998e-01,	 2.4918930000000000e-01,	 2.5272323766293736e-02,	 1.6255173174483461e+03,	 3.1180145229773575e+02,	 4.3890123627291928e+02,	 3.1911110538378371e+03,	 4.2044809457554379e+02,	 3.9366370876556931e+00 
7.1242570000000005e-01,	 2.4970950000000000e-01,	 2.5444999306139734e-02,	 1.6243065136817950e+03,	 3.1487133772775508e+02,	 4.4007769461325341e+02,	 3.2215267190246273e+03,	 4.2101121516442231e+02,	 3.9299283924369308e+00 
7.1670619999999996e-01,	 2.5022970000000000e-01,	 2.5587226525373000e-02,	 1.6233064224741261e+03,	 3.1752569992210329e+02,	 4.4103237106601614e+02,	 3.2465613835946679e+03,	 4.2146762519662155e+02,	 3.9245472776263814e+00 
7.2098660000000003e-01,	 2.5074989999999997e-01,	 2.5706588966899140e-02,	 1.6224637262082863e+03,	 3.1987153675619084e+02,	 4.4182163322230588e+02,	 3.2675434228009185e+03,	 4.2184458137529896e+02,	 3.9201517053062740e+00 
7.2526710000000005e-01,	 2.5127020000000000e-01,	 2.5808811901663169e-02,	 1.6217384103503905e+03,	 3.2198883724696759e+02,	 4.4248795744421210e+02,	 3.2854843704744058e+03,	 4.2216255965309267e+02,	 3.9164869850622939e+00 
7.2954750000000002e-01,	 2.5179039999999997e-01,	 2.5897864998516876e-02,	 1.6210995509280042e+03,	 3.2393763632786334e+02,	 4.4306358385224894e+02,	 3.3011096960432751e+03,	 4.2243706309854844e+02,	 3.9133600194075169e+00 
7.3382800000000004e-01,	 2.5231060000000000e-01,	 2.5977324826480415e-02,	 1.6205257370632048e+03,	 3.2575955580900398e+02,	 4.4357138669624169e+02,	 3.3150332280127668e+03,	 4.2267907499063131e+02,	 3.9106353287629210e+00 
7.3810840000000000e-01,	 2.5283089999999997e-01,	 2.6049380723643281e-02,	 1.6200010022946158e+03,	 3.2748614943071857e+02,	 4.4402830622206545e+02,	 3.3276527289241703e+03,	 4.2289671821378573e+02,	 3.9082131854392310e+00 
7.4238890000000002e-01,	 2.5335110000000000e-01,	 2.6115333046582312e-02,	 1.6195124256879890e+03,	 3.2914150244590439e+02,	 4.4444730424488625e+02,	 3.3392257640583084e+03,	 4.2309619998659912e+02,	 3.9060160145615641e+00 
7.4666929999999998e-01,	 2.5387129999999997e-01,	 2.6176768182150860e-02,	 1.6190524117331788e+03,	 3.3074120246190881e+02,	 4.4483688545341931e+02,	 3.3500150320273301e+03,	 4.2328159229584799e+02,	 3.9039948806304596e+00 
7.5094970000000005e-01,	 2.5439149999999999e-01,	 2.6234418298255464e-02,	 1.6186145221335544e+03,	 3.3229709330564282e+02,	 4.4520347159601170e+02,	 3.3601596984015873e+03,	 4.2345596768602417e+02,	 3.9021113406934105e+00 
7.5523019999999996e-01,	 2.5491179999999997e-01,	 2.6288940914721351e-02,	 1.6181947176035351e+03,	 3.3381802212054265e+02,	 4.4555154149685706e+02,	 3.3697755770348849e+03,	 4.2362146895534141e+02,	 3.9003399032001651e+00 
7.5951060000000004e-01,	 2.5543199999999999e-01,	 2.6340420837528730e-02,	 1.6177888121862493e+03,	 3.3531175543684333e+02,	 4.4588498299574121e+02,	 3.3789011976409834e+03,	 4.2377995405369938e+02,	 3.8986570252223118e+00 
7.6379109999999995e-01,	 2.5595219999999996e-01,	 2.6389642100812644e-02,	 1.6173953447346894e+03,	 3.3678148806442107e+02,	 4.4620569892444666e+02,	 3.3876501275359633e+03,	 4.2393233477478606e+02,	 3.8970521097823876e+00 
7.6807150000000002e-01,	 2.5647249999999999e-01,	 2.6436732632042902e-02,	 1.6170128605694747e+03,	 3.3823107096033118e+02,	 4.4651539787104360e+02,	 3.3960506293140961e+03,	 4.2407942906818215e+02,	 3.8955158228319511e+00 
7.7235200000000004e-01,	 2.5699269999999996e-01,	 2.6481508997407126e-02,	 1.6166388650657589e+03,	 3.3966473695557113e+02,	 4.4681609327841079e+02,	 3.4040934456202308e+03,	 4.2422219824913498e+02,	 3.8940353678226978e+00 
7.7663240000000000e-01,	 2.5751289999999999e-01,	 2.6524537299719264e-02,	 1.6162734354651891e+03,	 3.4108367694180822e+02,	 4.4710841105211205e+02,	 3.4118552219578223e+03,	 4.2436094371381836e+02,	 3.8926085267391772e+00 
7.8091290000000002e-01,	 2.5803310000000002e-01,	 2.6565836914264205e-02,	 1.6159155342957783e+03,	 3.4248929335918956e+02,	 4.4739322521486031e+02,	 3.4193443800062519e+03,	 4.2449608405341189e+02,	 3.8912295625093898e+00 
7.8519329999999998e-01,	 2.5855339999999999e-01,	 2.6605605073546985e-02,	 1.6155651743717340e+03,	 3.4388309883352827e+02,	 4.4767109990458448e+02,	 3.4265899473587156e+03,	 4.2462789025993982e+02,	 3.8898965928293103e+00 
7.8947380000000000e-01,	 2.5907360000000001e-01,	 2.6643506101987850e-02,	 1.6152205180700939e+03,	 3.4526809954257442e+02,	 4.4794343986084260e+02,	 3.4335588275956552e+03,	 4.2475703145154728e+02,	 3.8886005862089532e+00 
7.9375419999999997e-01,	 2.5959379999999999e-01,	 2.6680242463601407e-02,	 1.6148825473227191e+03,	 3.4664321060961481e+02,	 4.4821011983125788e+02,	 3.4403400201182171e+03,	 4.2488345069142372e+02,	 3.8873436696801336e+00 
7.9803469999999999e-01,	 2.6011410000000001e-01,	 2.6715681543315814e-02,	 1.6145509422924135e+03,	 3.4800980278914716e+02,	 4.4847174724724209e+02,	 3.4469206357862181e+03,	 4.2500743823373620e+02,	 3.8861230074097262e+00 
8.0231509999999995e-01,	 2.6063429999999999e-01,	 2.6749651371508820e-02,	 1.6142244993913009e+03,	 3.4937003682247405e+02,	 4.4872941152200394e+02,	 3.4532864102982471e+03,	 4.2512951226539241e+02,	 3.8849320616253240e+00 
8.0659550000000002e-01,	 2.6115450000000001e-01,	 2.6782572602454938e-02,	 1.6139039142177676e+03,	 3.5072380215399903e+02,	 4.4898327720994001e+02,	 3.4594925043383660e+03,	 4.2524975236227812e+02,	 3.8837715636502717e+00 
8.1087600000000004e-01,	 2.6167469999999998e-01,	 2.6814498597595264e-02,	 1.6135888946346165e+03,	 3.5207131348778807e+02,	 4.4923383128347177e+02,	 3.4655492334100813e+03,	 4.2536839063073097e+02,	 3.8826387458623093e+00 
8.1515640000000000e-01,	 2.6219500000000001e-01,	 2.6845578237757531e-02,	 1.6132799635971742e+03,	 3.5341319587528471e+02,	 4.4948143219039787e+02,	 3.4714783116326475e+03,	 4.2548559806662485e+02,	 3.8815334843652591e+00 
8.1943690000000002e-01,	 2.6271519999999998e-01,	 2.6875430276579314e-02,	 1.6129755163886953e+03,	 3.5475223291363449e+02,	 4.4972743477645770e+02,	 3.4772406275466869e+03,	 4.2560201693540097e+02,	 3.8804475718947291e+00 
8.2371729999999999e-01,	 2.6323540000000001e-01,	 2.6904779371738859e-02,	 1.6126770796125454e+03,	 3.5608642297079103e+02,	 4.4997154860594219e+02,	 3.4829274410514026e+03,	 4.2571751049359040e+02,	 3.8793846986101785e+00 
8.2799780000000001e-01,	 2.6375569999999998e-01,	 2.6933454063529962e-02,	 1.6123845646754162e+03,	 3.5741695434150211e+02,	 4.5021439641228517e+02,	 3.4885212155680738e+03,	 4.2583237399837378e+02,	 3.8783425153985682e+00 
8.3227819999999997e-01,	 2.6427590000000001e-01,	 2.6961219462428972e-02,	 1.6120968890096869e+03,	 3.5874595913344410e+02,	 4.5045713897774760e+02,	 3.4940003420046373e+03,	 4.2594715677108155e+02,	 3.8773145787670886e+00 
8.3655869999999999e-01,	 2.6479609999999998e-01,	 2.6988500935413447e-02,	 1.6118151300957732e+03,	 3.6007265641361818e+02,	 4.5069979225523184e+02,	 3.4994199057140936e+03,	 4.2606186641737338e+02,	 3.8763028611423027e+00 
8.4083909999999995e-01,	 2.6531630000000000e-01,	 2.7015840881719311e-02,	 1.6115384233052853e+03,	 3.6140541580725147e+02,	 4.5094519370272457e+02,	 3.5048722239253275e+03,	 4.2617784380627359e+02,	 3.8752974534340656e+00 
8.4511959999999997e-01,	 2.6583659999999998e-01,	 2.7123001684472854e-02,	 1.6111924502685447e+03,	 3.6364486908637997e+02,	 4.5111033184600194e+02,	 3.5200632110071551e+03,	 4.2625587077805415e+02,	 3.8749493808853566e+00 
8.4940000000000004e-01,	 2.6635680000000000e-01,	 2.7246242585768455e-02,	 1.6111410176504776e+03,	 3.6520131058596411e+02,	 4.5113310121317625e+02,	 3.5362360763280162e+03,	 4.2626662807319894e+02,	 3.8755394381854584e+00 
5.4055520000000001e-01,	 2.3194779999999998e-01,	 1.1618310629055089e-02,	 1.7358135710773101e+03,	 -1.9653508335780717e-01,	 3.0026483567627309e+02,	 1.0036386917025857e+03,	 3.4776127850930533e+02,	 4.9913940667694821e+00 
5.4484480000000002e-01,	 2.3244640000000000e-01,	 1.1621673938794220e-02,	 1.7357702239321848e+03,	 3.6244037043652644e-02,	 3.0034551806060699e+02,	 1.0041989884609648e+03,	 3.4780799780708850e+02,	 4.9905989375015132e+00 
5.4913429999999996e-01,	 2.3294489999999998e-01,	 1.1627656763987070e-02,	 1.7357025811043081e+03,	 3.6114660378836960e-01,	 3.0046275465591049e+02,	 1.0051081289219688e+03,	 3.4787587271233480e+02,	 4.9894308712561184e+00 
5.5342380000000002e-01,	 2.3344350000000000e-01,	 1.1634082186125941e-02,	 1.7356401085102311e+03,	 6.6413828336459901e-01,	 3.0057177527164311e+02,	 1.0060284471979835e+03,	 3.4793897904019178e+02,	 4.9883466358483233e+00 
5.5771329999999997e-01,	 2.3394199999999998e-01,	 1.1640439394385808e-02,	 1.7355859811196406e+03,	 9.3776724723122773e-01,	 3.0066675792618059e+02,	 1.0068962563509307e+03,	 3.4799395019869354e+02,	 4.9874034691540530e+00 
5.6200280000000002e-01,	 2.3444060000000000e-01,	 1.1646334727919413e-02,	 1.7355410513615459e+03,	 1.1795749609139696e+00,	 3.0074586469350055e+02,	 1.0076712548872107e+03,	 3.4803972656942659e+02,	 4.9866188245877705e+00 
5.6629229999999997e-01,	 2.3493909999999998e-01,	 1.1651564114584428e-02,	 1.7355056079219221e+03,	 1.3884196868672596e+00,	 3.0080847516022300e+02,	 1.0083335902526969e+03,	 3.4807595282930907e+02,	 4.9859984557647765e+00 
5.7058180000000003e-01,	 2.3543770000000000e-01,	 1.1655994366535343e-02,	 1.7354795320942462e+03,	 1.5642506132431713e+00,	 3.0085516686223832e+02,	 1.0088735607628607e+03,	 3.4810296607758403e+02,	 4.9855370570591342e+00 
5.7487129999999997e-01,	 2.3593619999999998e-01,	 1.1659606367395466e-02,	 1.7354613446735266e+03,	 1.7086886429144892e+00,	 3.0088673658328003e+02,	 1.0092920913015556e+03,	 3.4812122939240618e+02,	 4.9852236500106404e+00 
5.7916080000000003e-01,	 2.3643480000000000e-01,	 1.1662349851217115e-02,	 1.7354508603737418e+03,	 1.8238098835809953e+00,	 3.0090552019440941e+02,	 1.0095925982869294e+03,	 3.4813209539438293e+02,	 4.9850382704337539e+00 
5.8345040000000004e-01,	 2.3693339999999999e-01,	 1.1664292584810495e-02,	 1.7354464422109804e+03,	 1.9127952876928913e+00,	 3.0091326277785720e+02,	 1.0097867599967325e+03,	 3.4813657424950475e+02,	 4.9849617210881645e+00 
5.8773989999999998e-01,	 2.3743190000000000e-01,	 1.1665557905612087e-02,	 1.7354470953414618e+03,	 1.9793523329654654e+00,	 3.0091209922188284e+02,	 1.0098923947742798e+03,	 3.4813590117052723e+02,	 4.9849734493754898e+00 
5.9202940000000004e-01,	 2.3793049999999999e-01,	 1.1666192715722692e-02,	 1.7354512174862618e+03,	 2.0276147731561460e+00,	 3.0090451506595844e+02,	 1.0099218959566667e+03,	 3.4813151395312894e+02,	 4.9850482717332296e+00 
5.9631889999999999e-01,	 2.3842900000000000e-01,	 1.1666421060355481e-02,	 1.7354568444819126e+03,	 2.0640590157504608e+00,	 3.0089369862951571e+02,	 1.0099053595770849e+03,	 3.4812525685819372e+02,	 4.9851541585469787e+00 
6.0060840000000004e-01,	 2.3892759999999999e-01,	 1.1666519325397076e-02,	 1.7354609412361540e+03,	 2.0986106766373895e+00,	 3.0088409266133760e+02,	 1.0098816246158484e+03,	 3.4811969990096128e+02,	 4.9852456227115090e+00 
6.0489789999999999e-01,	 2.3942610000000000e-01,	 1.1666999335984590e-02,	 1.7354587973300120e+03,	 2.1477752642727035e+00,	 3.0088412173353896e+02,	 1.0099232730538826e+03,	 3.4811971671907503e+02,	 4.9852393961231805e+00 
6.0918740000000005e-01,	 2.3992469999999999e-01,	 1.1668649203611683e-02,	 1.7354419227618725e+03,	 2.2402509908018384e+00,	 3.0090599466859919e+02,	 1.0101395168328170e+03,	 3.4813236986530103e+02,	 4.9850100678162947e+00 
6.1347689999999999e-01,	 2.4042319999999998e-01,	 1.1673013986530022e-02,	 1.7353947782661623e+03,	 2.4285356736129051e+00,	 3.0097367961982712e+02,	 1.0107446732583529e+03,	 3.4817152162361549e+02,	 4.9843148268878457e+00 
6.1776640000000005e-01,	 2.4092179999999999e-01,	 1.1682905519365457e-02,	 1.7352896432127427e+03,	 2.8083342152708486e+00,	 3.0113024113552876e+02,	 1.0121273809212474e+03,	 3.4826206637528304e+02,	 4.9827187144694642e+00 
6.2205589999999999e-01,	 2.4142029999999998e-01,	 1.1703256060721359e-02,	 1.7350756146656504e+03,	 3.5524178465998530e+00,	 3.0145396365944134e+02,	 1.0149803707457036e+03,	 3.4844921129853651e+02,	 4.9794322817681724e+00 
6.2634550000000000e-01,	 2.4191889999999999e-01,	 1.1742960163565469e-02,	 1.7346628913603879e+03,	 4.9664934572381325e+00,	 3.0208361831648665e+02,	 1.0205509695496411e+03,	 3.4881292889154713e+02,	 4.9730668143910153e+00 
6.3063499999999995e-01,	 2.4241739999999998e-01,	 1.1816965034008767e-02,	 1.7338996257830099e+03,	 7.5642842620548052e+00,	 3.0325421285433151e+02,	 1.0309621727944868e+03,	 3.4948811232361300e+02,	 4.9613021572961928e+00 
6.3492450000000000e-01,	 2.4291599999999999e-01,	 1.1948860417019487e-02,	 1.7325497579738894e+03,	 1.2138798544610015e+01,	 3.0533121899597722e+02,	 1.0496092198279307e+03,	 3.5068290245202098e+02,	 4.9406237643548438e+00 
6.3921399999999995e-01,	 2.4341449999999998e-01,	 1.2171791625285798e-02,	 1.7302897033250681e+03,	 1.9756013210109668e+01,	 3.0880808043208856e+02,	 1.0813669751088507e+03,	 3.5267389514939799e+02,	 4.9065227340251640e+00 
6.4350350000000001e-01,	 2.4391309999999999e-01,	 1.2526046887414620e-02,	 1.7267538406603919e+03,	 3.1571019791898816e+01,	 3.1421456266230513e+02,	 1.1323228714082650e+03,	 3.5574773290978203e+02,	 4.8546828844708836e+00 
6.4779299999999995e-01,	 2.4441159999999998e-01,	 1.3051187096103452e-02,	 1.7216350885590321e+03,	 4.8450080670708807e+01,	 3.2192983022040431e+02,	 1.2087630437657267e+03,	 3.6008878616947175e+02,	 4.7830334029347448e+00 
6.5208250000000001e-01,	 2.4491019999999999e-01,	 1.3774436557038873e-02,	 1.7148061592954182e+03,	 7.0544557075055167e+01,	 3.3197829100347246e+02,	 1.3155684977747969e+03,	 3.6566536679270683e+02,	 4.6935169432324590e+00 
6.5637199999999996e-01,	 2.4540869999999998e-01,	 1.4699772214617404e-02,	 1.7064084828510420e+03,	 9.7044309486740332e+01,	 3.4392592908020612e+02,	 1.4544723234904995e+03,	 3.7218721118317825e+02,	 4.5922204827300259e+00 
6.6066150000000001e-01,	 2.4590730000000000e-01,	 1.5801229988066233e-02,	 1.6968567062235611e+03,	 1.2626395200649992e+02,	 3.5695634307223821e+02,	 1.6226914038412447e+03,	 3.7917224368630701e+02,	 4.4875328602669429e+00 
6.6495099999999996e-01,	 2.4640579999999998e-01,	 1.7023806869543537e-02,	 1.6867356722113752e+03,	 1.5609168545971349e+02,	 3.7012744188625919e+02,	 1.8127499707416912e+03,	 3.8610429204247492e+02,	 4.3872671877507212e+00 
6.6924059999999996e-01,	 2.4690440000000000e-01,	 1.8292762587865288e-02,	 1.6766555913105256e+03,	 1.8455378702816313e+02,	 3.8263523817727253e+02,	 2.0136973502288381e+03,	 3.9257394131558675e+02,	 4.2967247376440305e+00 
6.7353010000000002e-01,	 2.4740299999999998e-01,	 1.9530833005630559e-02,	 1.6671405119400411e+03,	 2.1022493830067577e+02,	 3.9393877205195372e+02,	 2.2134995141709915e+03,	 3.9833030607104337e+02,	 4.2184659311561727e+00 
6.7781959999999997e-01,	 2.4790150000000000e-01,	 2.0674181038452959e-02,	 1.6585550931047087e+03,	 2.3237361100471844e+02,	 4.0377072274580547e+02,	 2.4015579884692120e+03,	 4.0327044937653147e+02,	 4.1529312643717411e+00 
6.8210910000000002e-01,	 2.4840009999999998e-01,	 2.1683196363402844e-02,	 1.6511057260917553e+03,	 2.5083426229400982e+02,	 4.1206009833050143e+02,	 2.5704774726035025e+03,	 4.0738897106043328e+02,	 4.0993998391550814e+00 
6.8639859999999997e-01,	 2.4889860000000000e-01,	 2.2543059937413595e-02,	 1.6448607298879065e+03,	 2.6582870017274422e+02,	 4.1886158526553243e+02,	 2.7165226800184528e+03,	 4.1073740278607335e+02,	 4.0566132352304445e+00 
6.9068810000000003e-01,	 2.4939719999999999e-01,	 2.3255833631581548e-02,	 1.6397555317405768e+03,	 2.7782832245884435e+02,	 4.2432942157375044e+02,	 2.8389973993957433e+03,	 4.1340960176183040e+02,	 4.0229486656869495e+00 
6.9497759999999997e-01,	 2.4989570000000000e-01,	 2.3834820873321182e-02,	 1.6356513154620125e+03,	 2.8737044885634896e+02,	 4.2866486678596300e+02,	 2.9394069739136789e+03,	 4.1551617242575816e+02,	 3.9967247411331930e+00 
6.9926710000000003e-01,	 2.5039430000000001e-01,	 2.4298737904786115e-02,	 1.6323854286156625e+03,	 2.9495670624670896e+02,	 4.3207252841139859e+02,	 3.0204406631310349e+03,	 4.1716447132061586e+02,	 3.9764156995867852e+00 
7.0355659999999998e-01,	 2.5089279999999997e-01,	 2.4667854033410951e-02,	 1.6297984077562901e+03,	 3.0102120638272879e+02,	 4.3473917114580036e+02,	 3.0852480068590357e+03,	 4.1844980815933656e+02,	 3.9607243834745418e+00 
7.0784619999999998e-01,	 2.5139139999999999e-01,	 2.4961199042947566e-02,	 1.6277479463555296e+03,	 3.0592027434344334e+02,	 4.3682582605758546e+02,	 3.1369217665825486e+03,	 4.1945284074382528e+02,	 3.9485867594219939e+00 
7.1213570000000004e-01,	 2.5188990000000000e-01,	 2.5195199864885179e-02,	 1.6261126371459129e+03,	 3.0993852866207374e+02,	 4.3846637823507933e+02,	 3.1782206303191565e+03,	 4.2023975551371126e+02,	 3.9391475901469746e+00 
7.1642519999999998e-01,	 2.5238850000000002e-01,	 2.5383654613489091e-02,	 1.6247939836237215e+03,	 3.1329715745723865e+02,	 4.3976798332272836e+02,	 3.2114982914257585e+03,	 4.2086304260561502e+02,	 3.9317392003392184e+00 
7.2071470000000004e-01,	 2.5288699999999997e-01,	 2.5537543117474960e-02,	 1.6237140278296611e+03,	 3.1616542597847774e+02,	 4.4081457184430946e+02,	 3.2386572805518381e+03,	 4.2136354365680245e+02,	 3.9258477562660219e+00 
7.2500419999999999e-01,	 2.5338559999999999e-01,	 2.5665467958150039e-02,	 1.6228129959673261e+03,	 3.1867066093653511e+02,	 4.4167059274269911e+02,	 3.2612013144935813e+03,	 4.2177246963442832e+02,	 3.9210847871918677e+00 
7.2929370000000004e-01,	 2.5388410000000000e-01,	 2.5773802198574339e-02,	 1.6220448547504543e+03,	 3.2090833982245715e+02,	 4.4238520123156360e+02,	 3.2802656720603609e+03,	 4.2211353872069094e+02,	 3.9171562967074700e+00 
7.3358319999999999e-01,	 2.5438269999999996e-01,	 2.5867507337043148e-02,	 1.6213751326193119e+03,	 3.2294886877005160e+02,	 4.4299471300853565e+02,	 3.2967275810437850e+03,	 4.2240422951811678e+02,	 3.9138460341868417e+00 
7.3787270000000005e-01,	 2.5488119999999997e-01,	 2.5950286169196070e-02,	 1.6207791548093803e+03,	 3.2484341385819857e+02,	 4.4352586566566981e+02,	 3.3112429078459159e+03,	 4.2265738594424732e+02,	 3.9109972902267676e+00 
7.4216219999999999e-01,	 2.5537979999999999e-01,	 2.6024569632304810e-02,	 1.6202378909993215e+03,	 3.2662966723101698e+02,	 4.4399868278662575e+02,	 3.3242614667127709e+03,	 4.2288261115979020e+02,	 3.9084918830916879e+00 
7.4645170000000005e-01,	 2.5587830000000000e-01,	 2.6092398933139270e-02,	 1.6197379162551454e+03,	 3.2833484401544524e+02,	 4.4442740415995871e+02,	 3.3361439213538683e+03,	 4.2308672783491636e+02,	 3.9062465248673788e+00 
7.5074129999999994e-01,	 2.5637689999999996e-01,	 2.6155103377015675e-02,	 1.6192693357658995e+03,	 3.2997850011050423e+02,	 4.4482237456322775e+02,	 3.3471332535107354e+03,	 4.2327468836881513e+02,	 3.9042004776412087e+00 
7.5503080000000000e-01,	 2.5687539999999998e-01,	 2.6213740309868460e-02,	 1.6188255175653237e+03,	 3.3157448962145338e+02,	 4.4519098469611885e+02,	 3.3574170477658658e+03,	 4.2345002917735127e+02,	 3.9023113880745677e+00 
7.5932029999999995e-01,	 2.5737399999999999e-01,	 2.6268847842007496e-02,	 1.6184010842428679e+03,	 3.3313310769452880e+02,	 4.4553899299821285e+02,	 3.3671051680722248e+03,	 4.2361550348292928e+02,	 3.9005456425386607e+00 
7.6360980000000001e-01,	 2.5787260000000001e-01,	 2.6321020675302668e-02,	 1.6179920527176914e+03,	 3.3466196650567963e+02,	 4.4587023560266425e+02,	 3.3763009072418704e+03,	 4.2377294585486374e+02,	 3.8988802493320884e+00 
7.6789929999999995e-01,	 2.5837109999999996e-01,	 2.6370728172681407e-02,	 1.6175964647178157e+03,	 3.3616594780572660e+02,	 4.4618746334860316e+02,	 3.3850837905732569e+03,	 4.2392367203331082e+02,	 3.8973005084282581e+00 
7.7218880000000001e-01,	 2.5886969999999998e-01,	 2.6418030503377727e-02,	 1.6172118052563949e+03,	 3.3764931246049116e+02,	 4.4649327211215734e+02,	 3.3934800001207518e+03,	 4.2406892193283863e+02,	 3.8957909311300685e+00 
7.7647829999999995e-01,	 2.5936819999999999e-01,	 2.6463287150211737e-02,	 1.6168367726806082e+03,	 3.3911500554419155e+02,	 4.4678925991487336e+02,	 3.4015468082790476e+03,	 4.2420945980982219e+02,	 3.8943426464665190e+00 
7.8076780000000001e-01,	 2.5986680000000001e-01,	 2.6506613059997425e-02,	 1.6164700636177784e+03,	 3.4056531538810071e+02,	 4.4707673557198746e+02,	 3.4093080741173590e+03,	 4.2434591148182852e+02,	 3.8929477860233663e+00 
7.8505729999999996e-01,	 2.6036529999999997e-01,	 2.6548272118288668e-02,	 1.6161114381397092e+03,	 3.4200170131041011e+02,	 4.4735667033577704e+02,	 3.4168043808979260e+03,	 4.2447874168083001e+02,	 3.8916020492663912e+00 
7.8934689999999996e-01,	 2.6086389999999998e-01,	 2.6588168745745988e-02,	 1.6157597223285456e+03,	 3.4342592657866072e+02,	 4.4763046928665972e+02,	 3.4240334938632063e+03,	 4.2460862021429818e+02,	 3.8902972814118058e+00 
7.9363640000000002e-01,	 2.6136239999999999e-01,	 2.6626572797142825e-02,	 1.6154142983040106e+03,	 3.4483928380627890e+02,	 4.4789871233868479e+02,	 3.4310340003320189e+03,	 4.2473582475208622e+02,	 3.8890300045852126e+00 