TITLE = "Final State"
VARIABLES = "X", "Y", "rho", "u", "v", "T", "p", "c", "M"
ZONE I=82, J=27, DATAPACKING=POINT, STRANDID=80000, SOLUTIONTIME=0.001930
8.4940000000000004e-01,	 2.2769999999999999e-01,	 2.7660310925929302e-02,	 1.5859499759626829e+03,	 4.2284241930977470e+02,	 4.5904191246355595e+02,	 3.6529130544255345e+03,	 4.2998683283377414e+02,	 3.8172121891685720e+00 
8.5143709999999995e-01,	 2.2824580000000000e-01,	 2.7672340588183610e-02,	 1.5858099048044360e+03,	 4.2321151775006024e+02,	 4.5913392506476600e+02,	 3.6552342579677329e+03,	 4.3002992500410642e+02,	 3.8167361718953305e+00 
8.5347430000000002e-01,	 2.2879159999999998e-01,	 2.7679565750037945e-02,	 1.5856897928528215e+03,	 4.2349484159402959e+02,	 4.5919764421498326e+02,	 3.6566960384272661e+03,	 4.3005976400016908e+02,	 3.8163714442465126e+00 
8.5545939999999998e-01,	 2.2932349999999999e-01,	 2.7684940052602462e-02,	 1.5856162564017652e+03,	 4.2366248006724925e+02,	 4.5922774237898898e+02,	 3.6576457526720505e+03,	 4.3007385792832292e+02,	 3.8161817829038314e+00 
8.5744460000000000e-01,	 2.2985539999999999e-01,	 2.7688388170297791e-02,	 1.5855742729670565e+03,	 4.2376975903677987e+02,	 4.5923510062152980e+02,	 3.6581599210034346e+03,	 4.3007730346828987e+02,	 3.8161212987676532e+00 
8.5937909999999995e-01,	 2.3037369999999999e-01,	 2.7689081087711172e-02,	 1.5855531374356547e+03,	 4.2383885110815243e+02,	 4.5923148489070752e+02,	 3.6582226657122960e+03,	 4.3007561038470277e+02,	 3.8161303286683519e+00 
8.6131360000000001e-01,	 2.3089199999999999e-01,	 2.7687694072434245e-02,	 1.5855450946736992e+03,	 4.2388030810210341e+02,	 4.5922258264887409e+02,	 3.6579685047870071e+03,	 4.3007144183815154e+02,	 3.8161741455591214e+00 
8.6319889999999999e-01,	 2.3139709999999999e-01,	 2.7685727227129787e-02,	 1.5855437655684275e+03,	 4.2390302558274129e+02,	 4.5921190298660412e+02,	 3.6576235908661101e+03,	 4.3006644094683168e+02,	 3.8162291781291735e+00 
8.6508419999999997e-01,	 2.3190220000000000e-01,	 2.7684228379680452e-02,	 1.5855428088926758e+03,	 4.2392149256279242e+02,	 4.5920425323035533e+02,	 3.6573646477410580e+03,	 4.3006285881282787e+02,	 3.8162699066953572e+00 
8.6692159999999996e-01,	 2.3239449999999998e-01,	 2.7683315383660680e-02,	 1.5855401929985230e+03,	 4.2394045504811709e+02,	 4.5919977762747169e+02,	 3.6572083867169958e+03,	 4.3006076301858434e+02,	 3.8162940172334365e+00 
8.6875899999999995e-01,	 2.3288679999999998e-01,	 2.7682152203321542e-02,	 1.5855404720991514e+03,	 4.2395251657012346e+02,	 4.5919430323793677e+02,	 3.6570111225166343e+03,	 4.3005819950780756e+02,	 3.8163246371237611e+00 
8.7054980000000004e-01,	 2.3336659999999998e-01,	 2.7680888571876609e-02,	 1.5855416286593572e+03,	 4.2395974855090424e+02,	 4.5918864108569784e+02,	 3.6567990965569602e+03,	 4.3005554805668271e+02,	 3.8163551081363463e+00 
8.7234060000000002e-01,	 2.3384639999999998e-01,	 2.7680202553226004e-02,	 1.5855398317576723e+03,	 4.2397088893228403e+02,	 4.5918665433918079e+02,	 3.6566926484020096e+03,	 4.3005461770670235e+02,	 3.8163660193254390e+00 
8.7408609999999998e-01,	 2.3431410000000000e-01,	 2.7680213897000060e-02,	 1.5855354102104125e+03,	 4.2398606284195341e+02,	 4.5918762569761725e+02,	 3.6567018823019571e+03,	 4.3005507257288389e+02,	 3.8163611651326379e+00 
8.7583160000000004e-01,	 2.3478179999999998e-01,	 2.7679208119767512e-02,	 1.5855369882908344e+03,	 4.2398825835766741e+02,	 4.5918354079903042e+02,	 3.6565364852751418e+03,	 4.3005315969983718e+02,	 3.8163830040640643e+00 
8.7753300000000001e-01,	 2.3523759999999999e-01,	 2.7678403914850616e-02,	 1.5855373987893051e+03,	 4.2398742273457481e+02,	 4.5918144739348224e+02,	 3.6564135769515392e+03,	 4.3005217939826207e+02,	 3.8163921236599188e+00 
8.7923439999999997e-01,	 2.3569350000000000e-01,	 2.7679152097638424e-02,	 1.5855310192030502e+03,	 4.2400426050245460e+02,	 4.5918648229547443e+02,	 3.6565525079829895e+03,	 4.3005453714229941e+02,	 3.8163669843466850e+00 
8.8089300000000004e-01,	 2.3613789999999998e-01,	 2.7678411910467569e-02,	 1.5855325425682784e+03,	 4.2400079202634413e+02,	 4.5918391945375305e+02,	 3.6564343179620469e+03,	 4.3005333701632594e+02,	 3.8163789729088293e+00 
8.8255150000000004e-01,	 2.3658219999999999e-01,	 2.7677328640379074e-02,	 1.5855355449543647e+03,	 4.2399375063261448e+02,	 4.5918113490676899e+02,	 3.6562690412458805e+03,	 4.3005203306654971e+02,	 3.8163930590462338e+00 
8.8416839999999997e-01,	 2.3701539999999999e-01,	 2.7677971169439111e-02,	 1.5855298386780260e+03,	 4.2400348223056949e+02,	 4.5918690889915553e+02,	 3.6563998984905629e+03,	 4.3005473691168839e+02,	 3.8163620921686490e+00 
8.8578520000000005e-01,	 2.3744859999999998e-01,	 2.7679532404990811e-02,	 1.5855182690135446e+03,	 4.2402229075811761e+02,	 4.5919827092002265e+02,	 3.6566966238647901e+03,	 4.3006005746915002e+02,	 3.8163001870807922e+00 
8.8736150000000003e-01,	 2.3787100000000000e-01,	 2.7680600487415555e-02,	 1.5855104605274605e+03,	 4.2403320419542501e+02,	 4.5920671872171368e+02,	 3.6569050007383557e+03,	 4.3006401332613137e+02,	 3.8162540996730407e+00 
8.8893780000000000e-01,	 2.3829329999999999e-01,	 2.7680331799945883e-02,	 1.5855084972725040e+03,	 4.2402806376711004e+02,	 4.5920959028424818e+02,	 3.6568923717773196e+03,	 4.3006535798609286e+02,	 3.8162346694855218e+00 
8.9047469999999995e-01,	 2.3870509999999998e-01,	 2.7681740623208245e-02,	 1.5855002853868477e+03,	 4.2403806620051120e+02,	 4.5921923105610040e+02,	 3.6571552713516535e+03,	 4.3006987241732912e+02,	 3.8161821735017134e+00 
8.9201160000000002e-01,	 2.3911689999999999e-01,	 2.7682555503556430e-02,	 1.5854945227764279e+03,	 4.2404170185935942e+02,	 4.5922672081217286e+02,	 3.6573225778278006e+03,	 4.3007337957152350e+02,	 3.8161402933230502e+00 
8.9351020000000003e-01,	 2.3951839999999999e-01,	 2.7683032646074100e-02,	 1.5854905581755936e+03,	 4.2404093344424462e+02,	 4.5923263791188890e+02,	 3.6574327413535843e+03,	 4.3007615029321664e+02,	 3.8161063412309288e+00 
8.9500869999999999e-01,	 2.3991989999999999e-01,	 2.7684033809186666e-02,	 1.5854853315147457e+03,	 4.2404219199550272e+02,	 4.5924028466317577e+02,	 3.6576259158943499e+03,	 4.3007973090943841e+02,	 3.8160635862898036e+00 
8.9646999999999999e-01,	 2.4031139999999998e-01,	 2.7684455067368136e-02,	 1.5854822003194479e+03,	 4.2403911409073294e+02,	 4.5924595269654372e+02,	 3.6577267165192766e+03,	 4.3008238496530578e+02,	 3.8160311549108847e+00 
8.9793129999999999e-01,	 2.4070290000000000e-01,	 2.7685497738622063e-02,	 1.5854760805861745e+03,	 4.2404165285983856e+02,	 4.5925469118783292e+02,	 3.6579340778948717e+03,	 4.3008647673059482e+02,	 3.8159826290872951e+00 
8.9935630000000000e-01,	 2.4108469999999999e-01,	 2.7686848268743704e-02,	 1.5854682126295620e+03,	 4.2404739196350613e+02,	 4.5926523803564811e+02,	 3.6581965251490328e+03,	 4.3009141520009990e+02,	 3.8159245877693633e+00 
9.0078139999999995e-01,	 2.4146650000000000e-01,	 2.7688201718466220e-02,	 1.5854586242743978e+03,	 4.2405435851187855e+02,	 4.5927724490789046e+02,	 3.6584709965040324e+03,	 4.3009703724428681e+02,	 3.8158573563144609e+00 
9.0217119999999995e-01,	 2.4183890000000000e-01,	 2.7690733105317382e-02,	 1.5854438460658519e+03,	 4.2407267902347121e+02,	 4.5929432717644272e+02,	 3.6589415561905030e+03,	 4.3010503564270562e+02,	 3.8157642086277028e+00 
9.0356099999999995e-01,	 2.4221129999999999e-01,	 2.7692361185147722e-02,	 1.5854336949144822e+03,	 4.2408017390845100e+02,	 4.5930696325357462e+02,	 3.6592573545716027e+03,	 4.3011095211358651e+02,	 3.8156934231754787e+00 
9.0491659999999996e-01,	 2.4257450000000000e-01,	 2.7693200406721658e-02,	 1.5854281360051111e+03,	 4.2407764460815406e+02,	 4.5931534742930342e+02,	 3.6594350469692113e+03,	 4.3011487771197443e+02,	 3.8156445930358940e+00 
9.0627219999999997e-01,	 2.4293769999999998e-01,	 2.7694723515281877e-02,	 1.5854206344802051e+03,	 4.2408008753121328e+02,	 4.5932578994338866e+02,	 3.6597195152588511e+03,	 4.3011976700553475e+02,	 3.8155858389203234e+00 
9.0759449999999997e-01,	 2.4329199999999998e-01,	 2.7695449514161183e-02,	 1.5854172011705905e+03,	 4.2407364883354467e+02,	 4.5933297181553075e+02,	 3.6598726760998370e+03,	 4.3012312960041317e+02,	 3.8155444304441115e+00 
9.0891679999999997e-01,	 2.4364619999999998e-01,	 2.7696114426682128e-02,	 1.5854115910467306e+03,	 4.2407454304423641e+02,	 4.5934157530790321e+02,	 3.6600290948868719e+03,	 4.3012715777165681e+02,	 3.8154966348237487e+00 
9.1020679999999998e-01,	 2.4399189999999998e-01,	 2.7699264280840338e-02,	 1.5853964350834451e+03,	 4.2409365482501164e+02,	 4.5936024067556571e+02,	 3.6605940890785678e+03,	 4.3013589680205945e+02,	 3.8153965587381804e+00 
9.1149680000000000e-01,	 2.4433749999999999e-01,	 2.7699879023648087e-02,	 1.5853906206433546e+03,	 4.2409035364966655e+02,	 4.5936917961811150e+02,	 3.6607465654523526e+03,	 4.3014008190671461e+02,	 3.8153443946812828e+00 
9.1275530000000005e-01,	 2.4467469999999999e-01,	 2.7701595741249203e-02,	 1.5853825237706089e+03,	 4.2409334265035739e+02,	 4.5938075195488409e+02,	 3.6610656690594860e+03,	 4.3014549987417848e+02,	 3.8152799493595309e+00 
9.1401390000000005e-01,	 2.4501189999999998e-01,	 2.7702605005298218e-02,	 1.5853772411678410e+03,	 4.2409053692544848e+02,	 4.5938963822288986e+02,	 3.6612698765142295e+03,	 4.3014966022448942e+02,	 3.8152294992035292e+00 
9.1524190000000005e-01,	 2.4534090000000000e-01,	 2.7703521526998703e-02,	 1.5853731461061877e+03,	 4.2408588089239925e+02,	 4.5939752069036354e+02,	 3.6614538313384428e+03,	 4.3015335058434835e+02,	 3.8151847739328160e+00 
9.1647000000000001e-01,	 2.4566990000000000e-01,	 2.7704714647820081e-02,	 1.5853660316675346e+03,	 4.2408690935542006e+02,	 4.5940821365973886e+02,	 3.6616967488533496e+03,	 4.3015835669521351e+02,	 3.8151250139413415e+00 
9.1766840000000005e-01,	 2.4599099999999999e-01,	 2.7707322516202049e-02,	 1.5853516987533037e+03,	 4.2410352231163318e+02,	 4.5942577006556451e+02,	 3.6621813733636609e+03,	 4.3016657592411013e+02,	 3.8150299105222665e+00 
9.1886679999999998e-01,	 2.4631209999999998e-01,	 2.7709568471061208e-02,	 1.5853382592895227e+03,	 4.2411743746300550e+02,	 4.5944213433898551e+02,	 3.6626086834005027e+03,	 4.3017423690140072e+02,	 3.8149401476810327e+00 
9.2003639999999998e-01,	 2.4662550000000000e-01,	 2.7711088769509593e-02,	 1.5853303962865643e+03,	 4.2411639342900321e+02,	 4.5945320075604548e+02,	 3.6628978589160374e+03,	 4.3017941759608732e+02,	 3.8148759192729056e+00 
9.2120590000000002e-01,	 2.4693879999999999e-01,	 2.7711483553281326e-02,	 1.5853268927435604e+03,	 4.2411041948764762e+02,	 4.5945995754286145e+02,	 3.6630039099781980e+03,	 4.3018258072557069e+02,	 3.8148364119810267e+00 
9.2234760000000005e-01,	 2.4724469999999998e-01,	 2.7713845415020456e-02,	 1.5853142955082421e+03,	 4.2412343502001630e+02,	 4.5947573836288370e+02,	 3.6634419313031563e+03,	 4.3018996828511894e+02,	 3.8147504316243199e+00 
9.2348920000000001e-01,	 2.4755059999999998e-01,	 2.7716257890930414e-02,	 1.5853005771317282e+03,	 4.2413808180767376e+02,	 4.5949246771183851e+02,	 3.6638942282632947e+03,	 4.3019779974605188e+02,	 3.8146589808605498e+00 
9.2460359999999997e-01,	 2.4784919999999999e-01,	 2.7717653752429655e-02,	 1.5852928814896136e+03,	 4.2413953787727758e+02,	 4.5950326999164537e+02,	 3.6641648907261169e+03,	 4.3020285650978531e+02,	 3.8145977361019869e+00 
9.2571809999999999e-01,	 2.4814780000000000e-01,	 2.7718186972883294e-02,	 1.5852910255760235e+03,	 4.2412943183904633e+02,	 4.5950871957554955e+02,	 3.6642788372102282e+03,	 4.3020540754670327e+02,	 3.8145648774367311e+00 
9.2680620000000002e-01,	 2.4843930000000000e-01,	 2.7718516804817343e-02,	 1.5852902497258219e+03,	 4.2411737742055442e+02,	 4.5951342782454458e+02,	 3.6643599858385455e+03,	 4.3020761154077672e+02,	 3.8145363512087171e+00 
9.2789429999999995e-01,	 2.4873080000000000e-01,	 2.7720065171616841e-02,	 1.5852819212764011e+03,	 4.2412213609024616e+02,	 4.5952553313776485e+02,	 3.6646612167953708e+03,	 4.3021327814731558e+02,	 3.8144702651155384e+00 
9.2895680000000003e-01,	 2.4901550000000000e-01,	 2.7723008332250956e-02,	 1.5852661499533929e+03,	 4.2414204278941270e+02,	 4.5954465559538272e+02,	 3.6652028254209076e+03,	 4.3022222939050101e+02,	 3.8143674467698525e+00 
9.3001929999999999e-01,	 2.4930020000000000e-01,	 2.7724938305918056e-02,	 1.5852553729397339e+03,	 4.2414897162573754e+02,	 4.5955872522654249e+02,	 3.6655702066859917e+03,	 4.3022881528120865e+02,	 3.8142890211318305e+00 
9.3105689999999997e-01,	 2.4957820000000000e-01,	 2.7725695360708409e-02,	 1.5852511145266694e+03,	 4.2414222468841649e+02,	 4.5956651523969975e+02,	 3.6657324354741440e+03,	 4.3023246168562338e+02,	 3.8142430785145178e+00 
9.3209460000000000e-01,	 2.4985620000000000e-01,	 2.7727384967374993e-02,	 1.5852423546420473e+03,	 4.2414742162990331e+02,	 4.5957876068865960e+02,	 3.6660535073571900e+03,	 4.3023819355944499e+02,	 3.8141757164021008e+00 
9.3310810000000000e-01,	 2.5012780000000001e-01,	 2.7729804445122186e-02,	 1.5852314870764733e+03,	 4.2415167503533632e+02,	 4.5959398458970054e+02,	 3.6664948568009181e+03,	 4.3024531948649087e+02,	 3.8140906987748591e+00 
9.3412160000000000e-01,	 2.5039929999999999e-01,	 2.7729886717932486e-02,	 1.5852301038048340e+03,	 4.2413834938525304e+02,	 4.5959963473644751e+02,	 3.6665508103004258e+03,	 4.3024796414873896e+02,	 3.8140561430932194e+00 
9.3511180000000005e-01,	 2.5066460000000002e-01,	 2.7731949966725858e-02,	 1.5852212306061804e+03,	 4.2414136085157571e+02,	 4.5961304612269316e+02,	 3.6669306209411116e+03,	 4.3025424154660709e+02,	 3.8139823828111017e+00 
9.3610199999999999e-01,	 2.5092989999999998e-01,	 2.7733990018793075e-02,	 1.5852110605625417e+03,	 4.2414580644022237e+02,	 4.5962790658904072e+02,	 3.6673189422110136e+03,	 4.3026119710090472e+02,	 3.8139005632826217e+00 
9.3706940000000005e-01,	 2.5118910000000000e-01,	 2.7735863430560205e-02,	 1.5852016795562872e+03,	 4.2414648849995109e+02,	 4.5964209265045986e+02,	 3.6676798636800718e+03,	 4.3026783688994385e+02,	 3.8138210559997683e+00 
9.3803689999999995e-01,	 2.5144830000000001e-01,	 2.7738376567801870e-02,	 1.5851877505379985e+03,	 4.2415818782776091e+02,	 4.5966082676284861e+02,	 3.6681616919172288e+03,	 4.3027660523819748e+02,	 3.8137190923837960e+00 
9.3898239999999999e-01,	 2.5170169999999997e-01,	 2.7742052303193827e-02,	 1.5851707120219453e+03,	 4.2416892606875467e+02,	 4.5968305834352020e+02,	 3.6688252111300435e+03,	 4.3028701031607693e+02,	 3.8135950686401645e+00 
9.3992790000000004e-01,	 2.5195499999999998e-01,	 2.7742822975308144e-02,	 1.5851662017189860e+03,	 4.2415586940493699e+02,	 4.5969315176050037e+02,	 3.6690076906955223e+03,	 4.3029173426913241e+02,	 3.8135352319043294e+00 
9.4085200000000002e-01,	 2.5220260000000000e-01,	 2.7745050721191891e-02,	 1.5851576626105586e+03,	 4.2415084126543383e+02,	 4.5970787297160769e+02,	 3.6694198173608220e+03,	 4.3029862404410636e+02,	 3.8134519804082379e+00 
9.4177619999999995e-01,	 2.5245020000000001e-01,	 2.7747371717178566e-02,	 1.5851476428203698e+03,	 4.2414833548249771e+02,	 4.5972450460985362e+02,	 3.6698595465133244e+03,	 4.3030640779847067e+02,	 3.8133590002649189e+00 
9.4267970000000001e-01,	 2.5269229999999998e-01,	 2.7749709521420328e-02,	 1.5851395887112303e+03,	 4.2413974163346336e+02,	 4.5973998531447660e+02,	 3.6702923326385503e+03,	 4.3031365277916183e+02,	 3.8132715536734247e+00 
9.4358319999999996e-01,	 2.5293430000000000e-01,	 2.7750570656385150e-02,	 1.5851364259832267e+03,	 4.2412125403641824e+02,	 4.5975100791437717e+02,	 3.6704942305949476e+03,	 4.3031881128935004e+02,	 3.8132076368191634e+00 
9.4446660000000004e-01,	 2.5317099999999998e-01,	 2.7754542186688116e-02,	 1.5851202670058515e+03,	 4.2412882495808435e+02,	 4.5977532496783277e+02,	 3.6712137011451955e+03,	 4.3033019130483081e+02,	 3.8130750703462057e+00 
9.4535009999999997e-01,	 2.5340770000000001e-01,	 2.7757611672555423e-02,	 1.5851058303457946e+03,	 4.2413017108596000e+02,	 4.5979821070959844e+02,	 3.6718024736220286e+03,	 4.3034090121306940e+02,	 3.8129485757412893e+00 
9.4621409999999995e-01,	 2.5363920000000001e-01,	 2.7761184810587348e-02,	 1.5850903560387533e+03,	 4.2413011512958303e+02,	 4.5982237221463799e+02,	 3.6724681025590316e+03,	 4.3035220785478776e+02,	 3.8128136291971790e+00 
9.4707819999999998e-01,	 2.5387070000000000e-01,	 2.7764476554612394e-02,	 1.5850745870650762e+03,	 4.2413028846064708e+02,	 4.5984716529015657e+02,	 3.6731015989683833e+03,	 4.3036380973805012e+02,	 3.8126755504531182e+00 
9.4792350000000003e-01,	 2.5409719999999997e-01,	 2.7769481798551317e-02,	 1.5850508744180611e+03,	 4.2414644039887418e+02,	 4.5988002442192447e+02,	 3.6740262825488990e+03,	 4.3037918563855015e+02,	 3.8124958137324341e+00 
9.4876870000000002e-01,	 2.5432369999999999e-01,	 2.7774094978863816e-02,	 1.5850299148660943e+03,	 4.2415158107013025e+02,	 4.5991065037090510e+02,	 3.6748813412110658e+03,	 4.3039351606262164e+02,	 3.8123249166810558e+00 
9.4959579999999999e-01,	 2.5454529999999997e-01,	 2.7776958452058405e-02,	 1.5850178547650348e+03,	 4.2413728722422150e+02,	 4.5993293763900306e+02,	 3.6754383198083347e+03,	 4.3040394437023366e+02,	 3.8121968945107687e+00 
9.5042289999999996e-01,	 2.5476689999999996e-01,	 2.7780772831784338e-02,	 1.5850025038312979e+03,	 4.2412986211997747e+02,	 4.5995929595656497e+02,	 3.6761537021082163e+03,	 4.3041627721311477e+02,	 3.8120487500779081e+00 
9.5123239999999998e-01,	 2.5498379999999998e-01,	 2.7785296397505529e-02,	 1.5849835009009410e+03,	 4.2412990707480043e+02,	 4.5998968443132037e+02,	 3.6769952079335435e+03,	 4.3043049529530163e+02,	 3.8118802084282595e+00 
9.5204190000000000e-01,	 2.5520070000000000e-01,	 2.7789515770680805e-02,	 1.5849666950970477e+03,	 4.2412387090413813e+02,	 4.6001848175425221e+02,	 3.6777838135297293e+03,	 4.3044396848002668e+02,	 3.8117195531215007e+00 
9.5283430000000002e-01,	 2.5541300000000000e-01,	 2.7792900074857151e-02,	 1.5849549827030071e+03,	 4.2410585820810968e+02,	 4.6004269894708295e+02,	 3.6784253435418423e+03,	 4.3045529846763861e+02,	 3.8115821237271041e+00 
9.5362680000000000e-01,	 2.5562530000000000e-01,	 2.7795131103072104e-02,	 1.5849443701096670e+03,	 4.2408051759035015e+02,	 4.6006299969501038e+02,	 3.6788829573905255e+03,	 4.3046479592094738e+02,	 3.8114589955377522e+00 
9.5440280000000000e-01,	 2.5583319999999998e-01,	 2.7834651181683379e-02,	 1.5848526907883636e+03,	 4.2447617112733855e+02,	 4.6008619101542422e+02,	 3.6842994329280355e+03,	 4.3047564543635070e+02,	 3.8113948818668639e+00 
8.4940000000000004e-01,	 2.2918680000000000e-01,	 2.7661308695605784e-02,	 1.5864709562581011e+03,	 4.2140829939473554e+02,	 4.5870908769027488e+02,	 3.6503962114457540e+03,	 4.2983092526202410e+02,	 3.8189100093166961e+00 
8.5143610000000003e-01,	 2.2972170000000000e-01,	 2.7667985224582511e-02,	 1.5864016034160245e+03,	 4.2158916427305257e+02,	 4.5875069083537630e+02,	 3.6516084536448834e+03,	 4.2985041682365511e+02,	 3.8186889524536447e+00 
8.5347220000000001e-01,	 2.3025659999999998e-01,	 2.7678104927019137e-02,	 1.5863070944797491e+03,	 4.2181860399343697e+02,	 4.5881776375222660e+02,	 3.6534781363109109e+03,	 4.2988183941121497e+02,	 3.8183344722108088e+00 
8.5545640000000001e-01,	 2.3077779999999998e-01,	 2.7684662681016617e-02,	 1.5862327304548769e+03,	 4.2200494350835288e+02,	 4.5887289235331781e+02,	 3.6547828348425037e+03,	 4.2990766455845505e+02,	 3.8180493466475749e+00 
8.5744060000000000e-01,	 2.3129909999999998e-01,	 2.7688341333512095e-02,	 1.5861773837146739e+03,	 4.2214429078385541e+02,	 4.5891210811199863e+02,	 3.6555808541782312e+03,	 4.2992603434595441e+02,	 3.8178451483101554e+00 
8.5937419999999998e-01,	 2.3180699999999999e-01,	 2.7690816593074041e-02,	 1.5861373247948543e+03,	 4.2224590859936899e+02,	 4.5893735033133350e+02,	 3.6561087440674864e+03,	 4.2993785811115686e+02,	 3.8177109094894575e+00 
8.6130779999999996e-01,	 2.3231499999999999e-01,	 2.7692532665963075e-02,	 1.5861100664387977e+03,	 4.2231747897547075e+02,	 4.5895230021074298e+02,	 3.6564544278478479e+03,	 4.2994486066475645e+02,	 3.8176302912705755e+00 
8.6319219999999997e-01,	 2.3280999999999999e-01,	 2.7693516914411818e-02,	 1.5860926405445273e+03,	 4.2236642500487142e+02,	 4.5895946570820280e+02,	 3.6566414748685738e+03,	 4.2994821695775335e+02,	 3.8175906170017981e+00 
8.6507659999999997e-01,	 2.3330499999999998e-01,	 2.7693709085751674e-02,	 1.5860804570821479e+03,	 4.2240322196542559e+02,	 4.5896266855796267e+02,	 3.6566923671580339e+03,	 4.2994971715248062e+02,	 3.8175719379952660e+00 
8.6691320000000005e-01,	 2.3378739999999998e-01,	 2.7693522538156740e-02,	 1.5860702138848651e+03,	 4.2243504990876249e+02,	 4.5896493795814740e+02,	 3.6566858161782620e+03,	 4.2995078012211656e+02,	 3.8175585296498613e+00 
8.6874980000000002e-01,	 2.3426989999999998e-01,	 2.7693130782295645e-02,	 1.5860627501748627e+03,	 4.2246154648139026e+02,	 4.5896601956867426e+02,	 3.6566427055995960e+03,	 4.2995128673926462e+02,	 3.8175531180895268e+00 
8.7053990000000003e-01,	 2.3474009999999998e-01,	 2.7692514358781999e-02,	 1.5860575041146508e+03,	 4.2248178292547863e+02,	 4.5896579834411841e+02,	 3.6565595496243391e+03,	 4.2995118311961755e+02,	 3.8175543622864083e+00 
8.7232989999999999e-01,	 2.3521029999999998e-01,	 2.7691916703039717e-02,	 1.5860522024346399e+03,	 4.2249956049006647e+02,	 4.5896606255587994e+02,	 3.6564827392154598e+03,	 4.2995130687409284e+02,	 3.8175519911219120e+00 
8.7407469999999998e-01,	 2.3566859999999998e-01,	 2.7691699533408162e-02,	 1.5860451349472778e+03,	 4.2251965156806045e+02,	 4.5896843363585464e+02,	 3.6564729535374954e+03,	 4.2995241746559441e+02,	 3.8175382748777951e+00 
8.7581949999999997e-01,	 2.3612690000000000e-01,	 2.7691454586611652e-02,	 1.5860406576978969e+03,	 4.2253655210093183e+02,	 4.5896979524172900e+02,	 3.6564514576600395e+03,	 4.2995305522764977e+02,	 3.8175326686652880e+00 
8.7752030000000003e-01,	 2.3657370000000000e-01,	 2.7690820263474691e-02,	 1.5860374557521884e+03,	 4.2254584834399805e+02,	 4.5896995167054149e+02,	 3.6563689461734252e+03,	 4.2995312849722086e+02,	 3.8175303880208187e+00 
8.7922100000000003e-01,	 2.3702039999999999e-01,	 2.7690815275389885e-02,	 1.5860303494974914e+03,	 4.2256278114100689e+02,	 4.5897372808533220e+02,	 3.6563983722117114e+03,	 4.2995489732545019e+02,	 3.8175088507070734e+00 
8.8087899999999997e-01,	 2.3745590000000000e-01,	 2.7690845172199940e-02,	 1.5860258297106463e+03,	 4.2257531755730690e+02,	 4.5897666120208282e+02,	 3.6564256864964914e+03,	 4.2995627115778461e+02,	 3.8174940014465166e+00 
8.8253689999999996e-01,	 2.3789140000000000e-01,	 2.7690326415628734e-02,	 1.5860239980716528e+03,	 4.2258007609419104e+02,	 4.5897771810469897e+02,	 3.6563656071387722e+03,	 4.2995676619564233e+02,	 3.8174883390594512e+00 
8.8415319999999997e-01,	 2.3831590000000000e-01,	 2.7690295460354800e-02,	 1.5860191340962469e+03,	 4.2258721410469707e+02,	 4.5898125196060181e+02,	 3.6563896714662565e+03,	 4.2995842139835878e+02,	 3.8174669859094945e+00 
8.8576949999999999e-01,	 2.3874049999999999e-01,	 2.7690913509910025e-02,	 1.5860095096581902e+03,	 4.2260165170421919e+02,	 4.5898922185189616e+02,	 3.6565347744583260e+03,	 4.2996215434713332e+02,	 3.8174208582181208e+00 
8.8734519999999995e-01,	 2.3915429999999999e-01,	 2.7692062461717577e-02,	 1.5859989983798987e+03,	 4.2262065894493651e+02,	 4.5899948973063721e+02,	 3.6567682938411858e+03,	 4.2996696358269236e+02,	 3.8173659195895104e+00 
8.8892099999999996e-01,	 2.3956819999999998e-01,	 2.7692522105465557e-02,	 1.5859920266757345e+03,	 4.2263046019640825e+02,	 4.5900669893886362e+02,	 3.6568864257687428e+03,	 4.2997034017598827e+02,	 3.8173261433268055e+00 
8.9045739999999995e-01,	 2.3997179999999999e-01,	 2.7693319079345167e-02,	 1.5859828460529843e+03,	 4.2264283820829962e+02,	 4.5901558179266209e+02,	 3.6570624400744414e+03,	 4.2997450062201233e+02,	 3.8172759879335247e+00 
8.9199379999999995e-01,	 2.4037529999999999e-01,	 2.7694308223562367e-02,	 1.5859737385820076e+03,	 4.2265601693968847e+02,	 4.5902512484834801e+02,	 3.6572690962845977e+03,	 4.2997897024073438e+02,	 3.8172237329895569e+00 
8.9349190000000001e-01,	 2.4076879999999998e-01,	 2.7695006487419235e-02,	 1.5859659099852909e+03,	 4.2266562665715867e+02,	 4.5903357741875755e+02,	 3.6574286552721123e+03,	 4.2998292907718223e+02,	 3.8171767503745118e+00 
8.9498999999999995e-01,	 2.4116230000000000e-01,	 2.7695908536701289e-02,	 1.5859576914960580e+03,	 4.2267518955521206e+02,	 4.5904263927998181e+02,	 3.6576199850335261e+03,	 4.2998717323991224e+02,	 3.8171263316638475e+00 
8.9645090000000005e-01,	 2.4154599999999998e-01,	 2.7696629266511057e-02,	 1.5859507712857069e+03,	 4.2268249394436259e+02,	 4.5905077160196282e+02,	 3.6577799666353935e+03,	 4.2999098201316582e+02,	 3.8170813439520201e+00 
8.9791169999999998e-01,	 2.4192959999999999e-01,	 2.7697385257737843e-02,	 1.5859430398268964e+03,	 4.2268955193633383e+02,	 4.5905947609917291e+02,	 3.6579491678183240e+03,	 4.2999505872732470e+02,	 3.8170320080741633e+00 
8.9933640000000004e-01,	 2.4230379999999999e-01,	 2.7698498101180150e-02,	 1.5859340732576698e+03,	 4.2269931763168324e+02,	 4.5906964328077993e+02,	 3.6581771582377273e+03,	 4.2999982043454719e+02,	 3.8169754390155419e+00 
9.0076109999999998e-01,	 2.4267799999999998e-01,	 2.7699551601717515e-02,	 1.5859242133202044e+03,	 4.2270897101489982e+02,	 4.5908042586063470e+02,	 3.6584022215937134e+03,	 4.3000487030033997e+02,	 3.8169142388187494e+00 
9.0215049999999997e-01,	 2.4304289999999998e-01,	 2.7701194498634535e-02,	 1.5859106111970091e+03,	 4.2272556271825687e+02,	 4.5909453926007279e+02,	 3.6587316823045821e+03,	 4.3001148001784327e+02,	 3.8168349415383123e+00 
9.0354000000000001e-01,	 2.4340779999999998e-01,	 2.7703017779445421e-02,	 1.5858971607413364e+03,	 4.2274355479902846e+02,	 4.5910933762340835e+02,	 3.6590904410658063e+03,	 4.3001841041484943e+02,	 3.8167539805402102e+00 
9.0489529999999996e-01,	 2.4376380000000000e-01,	 2.7704416901087180e-02,	 1.5858865310255592e+03,	 4.2275578749374301e+02,	 4.5912175534570031e+02,	 3.6593742148311903e+03,	 4.3002422581943455e+02,	 3.8166858071955834e+00 
9.0625060000000002e-01,	 2.4411970000000000e-01,	 2.7705725216951669e-02,	 1.5858757809640392e+03,	 4.2276662002103177e+02,	 4.5913380328459561e+02,	 3.6596430566159329e+03,	 4.3002986797377372e+02,	 3.8166180645240657e+00 
9.0757259999999995e-01,	 2.4446689999999999e-01,	 2.7707115064315356e-02,	 1.5858671831388110e+03,	 4.2277522415391752e+02,	 4.5914493259946164e+02,	 3.6599153547359515e+03,	 4.3003507986273291e+02,	 3.8165576435479887e+00 
9.0889470000000006e-01,	 2.4481409999999998e-01,	 2.7707693543856760e-02,	 1.5858598885572428e+03,	 4.2277911287848872e+02,	 4.5915368233657125e+02,	 3.6600615147871217e+03,	 4.3003917734449050e+02,	 3.8165072179718296e+00 
9.1018440000000000e-01,	 2.4515279999999998e-01,	 2.7709589598414394e-02,	 1.5858467401143353e+03,	 4.2279346286937687e+02,	 4.5916819935065826e+02,	 3.6604277027558460e+03,	 4.3004597554266604e+02,	 3.8164259394599784e+00 
9.1147409999999995e-01,	 2.4549150000000000e-01,	 2.7710975215498632e-02,	 1.5858362947963124e+03,	 4.2280430356219659e+02,	 4.5918079057203107e+02,	 3.6607111228767944e+03,	 4.3005187182094249e+02,	 3.8163566389512487e+00 
9.1273249999999995e-01,	 2.4582199999999998e-01,	 2.7712466555509799e-02,	 1.5858256313349998e+03,	 4.2281490064888385e+02,	 4.5919342402938474e+02,	 3.6610088565007991e+03,	 4.3005778779644140e+02,	 3.8162865297472233e+00 
9.1399079999999999e-01,	 2.4615250000000000e-01,	 2.7713768738720036e-02,	 1.5858161960104869e+03,	 4.2282363968006877e+02,	 4.5920507517236922e+02,	 3.6612737792936264e+03,	 4.3006324370318072e+02,	 3.8162221514340384e+00 
9.1521870000000005e-01,	 2.4647490000000000e-01,	 2.7714972543523418e-02,	 1.5858081976846233e+03,	 4.2282996259130960e+02,	 4.5921552893663943e+02,	 3.6615161664895613e+03,	 4.3006813885180583e+02,	 3.8161645318901778e+00 
9.1644650000000005e-01,	 2.4679730000000000e-01,	 2.7715915840922683e-02,	 1.5858003065888347e+03,	 4.2283400117820293e+02,	 4.5922532277665204e+02,	 3.6617188816236726e+03,	 4.3007272492939194e+02,	 3.8161085286692291e+00 
9.1764469999999998e-01,	 2.4711200000000000e-01,	 2.7717485833472513e-02,	 1.5857885240139503e+03,	 4.2284516814822075e+02,	 4.5923837768447731e+02,	 3.6620304045686057e+03,	 4.3007883796323540e+02,	 3.8160345056319116e+00 
9.1884299999999997e-01,	 2.4742670000000000e-01,	 2.7719305706554197e-02,	 1.5857746504452030e+03,	 4.2286138604980584e+02,	 4.5925357713683877e+02,	 3.6623920564444807e+03,	 4.3008595508262181e+02,	 3.8159499044045844e+00 
9.2001239999999995e-01,	 2.4773379999999998e-01,	 2.7721290801070220e-02,	 1.5857620368813828e+03,	 4.2287610563910033e+02,	 4.5926842517417617e+02,	 3.6627727520975045e+03,	 4.3009290753876206e+02,	 3.8158687004824872e+00 
9.2118180000000005e-01,	 2.4804089999999998e-01,	 2.7722429645088278e-02,	 1.5857535291088782e+03,	 4.2288395236949452e+02,	 4.5927926691741175e+02,	 3.6630096948385781e+03,	 4.3009798401375650e+02,	 3.8158092493905449e+00 
9.2232329999999996e-01,	 2.4834059999999999e-01,	 2.7723827693353739e-02,	 1.5857424142182754e+03,	 4.2289333254132725e+02,	 4.5929167082456428e+02,	 3.6632933543325812e+03,	 4.3010379187383705e+02,	 3.8157383730012033e+00 
9.2346479999999997e-01,	 2.4864039999999998e-01,	 2.7725732330057977e-02,	 1.5857286824239820e+03,	 4.2290874112068980e+02,	 4.5930677547026818e+02,	 3.6636655062445166e+03,	 4.3011086419018073e+02,	 3.8156540142434281e+00 
9.2457920000000005e-01,	 2.4893299999999999e-01,	 2.7727584522303290e-02,	 1.5857161039273108e+03,	 4.2292363049832261e+02,	 4.5932147397687083e+02,	 3.6640275047057316e+03,	 4.3011774623191991e+02,	 3.8155736263807536e+00 
9.2569360000000001e-01,	 2.4922559999999999e-01,	 2.7729024615890750e-02,	 1.5857070710131793e+03,	 4.2293235203904209e+02,	 4.5933340167401167e+02,	 3.6643129568030245e+03,	 4.3012333086185441e+02,	 3.8155090197587000e+00 