TITLE = "Final State"
VARIABLES = "X", "Y", "rho", "u", "v", "T", "p", "c", "M"
ZONE I=102, J=25, DATAPACKING=POINT, STRANDID=43000, SOLUTIONTIME=0.001037
1.0567210000000000e+00,	 2.8514950000000000e-01,	 5.2746271638149878e-02,	 1.5409580276241600e+03,	 -7.9004892309106282e+01,	 6.1386567469789782e+02,	 9.3152615697296769e+03,	 4.9723954623670954e+02,	 3.1030958818086005e+00 
1.0574120000000000e+00,	 2.8514249999999997e-01,	 5.2463794581758233e-02,	 1.5415837881156558e+03,	 -8.1945218103989220e+01,	 6.1254105482046020e+02,	 9.2453815403604858e+03,	 4.9670277645636082e+02,	 3.1080160730930215e+00 
1.0581080000000000e+00,	 2.8513539999999998e-01,	 5.2147098459060348e-02,	 1.5423896265432927e+03,	 -8.5181975536630716e+01,	 6.1106134413522796e+02,	 9.1673728938150125e+03,	 4.9610247317378099e+02,	 3.1137519029073104e+00 
1.0588070000000001e+00,	 2.8512830000000000e-01,	 5.1839336047728474e-02,	 1.5431709877578928e+03,	 -8.8367684756049300e+01,	 6.0961498118879717e+02,	 9.0916979554272748e+03,	 4.9551499587209616e+02,	 3.1193789497539899e+00 
1.0595110000000001e+00,	 2.8512119999999996e-01,	 5.1536482666750101e-02,	 1.5439318584757675e+03,	 -9.1531309637266716e+01,	 6.0818719374183979e+02,	 9.0174134699788756e+03,	 4.9493437953713726e+02,	 3.1249449199471391e+00 
1.0602190000000000e+00,	 2.8511399999999998e-01,	 5.1237120629299429e-02,	 1.5446715912581351e+03,	 -9.4672325931696605e+01,	 6.0677900761217279e+02,	 8.9442761738880672e+03,	 4.9436106622555064e+02,	 3.1304449171185844e+00 
1.0609310000000001e+00,	 2.8510679999999999e-01,	 5.0943816067491279e-02,	 1.5453951372068859e+03,	 -9.7788220726770902e+01,	 6.0538740129641553e+02,	 8.8726794107659407e+03,	 4.9379384910745796e+02,	 3.1358955358207470e+00 
1.0616479999999999e+00,	 2.8509950000000001e-01,	 5.0653744271320168e-02,	 1.5460994256632532e+03,	 -1.0087661356861619e+02,	 6.0401574533501480e+02,	 8.8021699751527831e+03,	 4.9323412539397179e+02,	 3.1412806668428859e+00 
1.0623680000000000e+00,	 2.8509219999999996e-01,	 5.0370327827643314e-02,	 1.5467873013299577e+03,	 -1.0393031067698513e+02,	 6.0266469308095952e+02,	 8.7333419297469009e+03,	 4.9268218768447332e+02,	 3.1466024205533794e+00 
1.0630940000000000e+00,	 2.8508489999999997e-01,	 5.0092530490933221e-02,	 1.5474578100373301e+03,	 -1.0694830287134349e+02,	 6.0133450371828837e+02,	 8.6660069388630436e+03,	 4.9213816823462014e+02,	 3.1518569922892250e+00 
1.0638230000000000e+00,	 2.8507749999999998e-01,	 4.9819324630566583e-02,	 1.5481043323411036e+03,	 -1.0991702332824806e+02,	 6.0003621135649155e+02,	 8.6001343048186282e+03,	 4.9160661344770710e+02,	 3.1569989014591582e+00 
1.0645570000000000e+00,	 2.8506999999999999e-01,	 4.9553148710119399e-02,	 1.5487286251303403e+03,	 -1.1283524535640375e+02,	 5.9876995512778899e+02,	 8.5361333998940790e+03,	 4.9108762085450866e+02,	 3.1620295857728586e+00 
1.0652960000000000e+00,	 2.8506250000000000e-01,	 4.9296093253151888e-02,	 1.5493303216770041e+03,	 -1.1569123535209995e+02,	 5.9753939137937664e+02,	 8.4744004122603565e+03,	 4.9058273126584083e+02,	 3.1669352645631563e+00 
1.0660390000000000e+00,	 2.8505500000000000e-01,	 4.9047421329544136e-02,	 1.5499043584465062e+03,	 -1.1847224254489306e+02,	 5.9635270982804104e+02,	 8.4149068675974377e+03,	 4.9009535352153961e+02,	 3.1716800989209606e+00 
1.0667869999999999e+00,	 2.8504740000000001e-01,	 4.8807664289790206e-02,	 1.5504468631901302e+03,	 -1.2116811686017100e+02,	 5.9521725451955535e+02,	 8.3578288711745663e+03,	 4.8962856054886606e+02,	 3.1762328682397678e+00 
1.0675390000000000e+00,	 2.8503980000000001e-01,	 4.8580581065416871e-02,	 1.5509563871859937e+03,	 -1.2375801895866357e+02,	 5.9414133994230860e+02,	 8.3039057994466439e+03,	 4.8918583415161635e+02,	 3.1805625952154766e+00 
1.0682959999999999e+00,	 2.8503210000000001e-01,	 4.8365555254710556e-02,	 1.5514264220440723e+03,	 -1.2622578939034372e+02,	 5.9313630127617580e+02,	 8.2531667552191611e+03,	 4.8877191010858701e+02,	 3.1846201791431525e+00 
1.0690580000000001e+00,	 2.8502440000000001e-01,	 4.8167135068506263e-02,	 1.5518541421867822e+03,	 -1.2854352753518640e+02,	 5.9221358885764653e+02,	 8.2065216883823869e+03,	 4.8839158315438544e+02,	 3.1883612828059515e+00 
1.0698250000000000e+00,	 2.8501660000000001e-01,	 4.7985590782937459e-02,	 1.5522304198983900e+03,	 -1.3068361472601788e+02,	 5.9139047747568509e+02,	 8.1642277401258962e+03,	 4.8805205999940523e+02,	 3.1917125583872785e+00 
1.0705970000000000e+00,	 2.8500880000000001e-01,	 4.7826349526364366e-02,	 1.5525502500498449e+03,	 -1.3261087810138793e+02,	 5.9068294097996045e+02,	 8.1273993421810437e+03,	 4.8776002114993878e+02,	 3.1946107936683372e+00 
1.0713729999999999e+00,	 2.8500090000000000e-01,	 4.7690830683251501e-02,	 1.5528011226028984e+03,	 -1.3428315688882185e+02,	 5.9011608996945506e+02,	 8.0965924787220492e+03,	 4.8752592464356223e+02,	 3.1969511755093398e+00 
1.0721550000000000e+00,	 2.8499300000000000e-01,	 4.7587830903951876e-02,	 1.5529724066291717e+03,	 -1.3563169904077475e+02,	 5.8972225160977086e+02,	 8.0737140214604360e+03,	 4.8736321220419887e+02,	 3.1986082205136892e+00 
1.0729420000000001e+00,	 2.8498499999999999e-01,	 4.7517682722613017e-02,	 1.5530411576393221e+03,	 -1.3662281867544999e+02,	 5.8952410340325662e+02,	 8.0591039461054797e+03,	 4.8728132767341026e+02,	 3.1994638837213940e+00 
1.0737340000000000e+00,	 2.8497689999999998e-01,	 4.7488229510178878e-02,	 1.5530253473290745e+03,	 -1.3719326470014315e+02,	 5.8954976037674874e+02,	 8.0544591431120589e+03,	 4.8729193116528609e+02,	 3.1994647432099699e+00 
1.0745309999999999e+00,	 2.8496889999999997e-01,	 4.7508306856066246e-02,	 1.5528818842423689e+03,	 -1.3727108626980711e+02,	 5.8983607208242483e+02,	 8.0617777125359171e+03,	 4.8741024217013495e+02,	 3.1984089840995731e+00 
1.0753330000000001e+00,	 2.8496070000000001e-01,	 4.7578320893843867e-02,	 1.5525964530747588e+03,	 -1.3679363215356511e+02,	 5.9042194036712488e+02,	 8.0816778794192351e+03,	 4.8765224782383621e+02,	 3.1961525968878219e+00 
1.0761410000000000e+00,	 2.8495250000000000e-01,	 4.7701216115925427e-02,	 1.5522037704159688e+03,	 -1.3621303356604835e+02,	 5.9116904006840105e+02,	 8.1128056175462571e+03,	 4.8796067951106551e+02,	 3.1932264919081694e+00 
1.0769530000000000e+00,	 2.8494429999999998e-01,	 4.7830973244644012e-02,	 1.5517103715281005e+03,	 -1.3486153410701897e+02,	 5.9207482959156778e+02,	 8.1473383776454493e+03,	 4.8833436323488149e+02,	 3.1895356440557769e+00 
1.0777720000000000e+00,	 2.8493599999999997e-01,	 4.8083919254609565e-02,	 1.5509072594634636e+03,	 -1.3216654054183695e+02,	 5.9371366465786934e+02,	 8.2130949042769407e+03,	 4.8900973939169626e+02,	 3.1830217012716369e+00 
1.0785950000000000e+00,	 2.8492760000000000e-01,	 4.8458034856921808e-02,	 1.5498857431497604e+03,	 -1.2866333536171845e+02,	 5.9594880926697351e+02,	 8.3081569424952468e+03,	 4.8992935837014136e+02,	 3.1743699837763470e+00 
1.0794250000000001e+00,	 2.8491919999999998e-01,	 4.8881277537045527e-02,	 1.5487402511591786e+03,	 -1.2475438167831877e+02,	 5.9840741304731841e+02,	 8.4152970424386458e+03,	 4.9093892694943452e+02,	 3.1648676837023784e+00 
1.0802590000000001e+00,	 2.8491079999999996e-01,	 4.9359045094819760e-02,	 1.5474558852854539e+03,	 -1.2041319265989318e+02,	 6.0102736217691881e+02,	 8.5347524839118232e+03,	 4.9201246832806174e+02,	 3.1546633672183471e+00 
1.0810999999999999e+00,	 2.8490219999999999e-01,	 4.9886145792091732e-02,	 1.5460507693593981e+03,	 -1.1565464020625632e+02,	 6.0381920697336841e+02,	 8.6659626422402725e+03,	 4.9315387308711405e+02,	 3.1437867126753116e+00 
1.0819460000000001e+00,	 2.8489369999999997e-01,	 5.0455931318333203e-02,	 1.5445636747707531e+03,	 -1.1060520836385879e+02,	 6.0672065541561199e+02,	 8.8070597907004994e+03,	 4.9433729501122514e+02,	 3.1325146015225189e+00 
1.0827979999999999e+00,	 2.8488500000000000e-01,	 5.1049266525703130e-02,	 1.5430163086818884e+03,	 -1.0541035275814551e+02,	 6.0967754045728350e+02,	 8.9540525860279231e+03,	 4.9554042032964315e+02,	 3.1210625426123708e+00 
1.0836560000000000e+00,	 2.8487629999999997e-01,	 5.1657767359302720e-02,	 1.5414554981954057e+03,	 -1.0022450363151556e+02,	 6.1260836801934988e+02,	 9.1043405532350098e+03,	 4.9673006747140380e+02,	 3.1097580583445517e+00 
1.0845190000000000e+00,	 2.8486760000000000e-01,	 5.2262535179907380e-02,	 1.5399117377908397e+03,	 -9.5177066194771783e+01,	 6.1545029128096405e+02,	 9.2536568767735425e+03,	 4.9788091309465153e+02,	 3.0988338577338843e+00 
1.0853889999999999e+00,	 2.8485869999999996e-01,	 5.2849459297894655e-02,	 1.5384140878763419e+03,	 -9.0378801745437343e+01,	 6.1815359433876597e+02,	 9.3986804640628870e+03,	 4.9897316074912533e+02,	 3.0884759157914075e+00 
1.0862639999999999e+00,	 2.8484989999999999e-01,	 5.3411573617717492e-02,	 1.5369958221412676e+03,	 -8.5922998959556310e+01,	 6.2066855649948275e+02,	 9.5372914654507822e+03,	 4.9998716829431868e+02,	 3.0788702829977650e+00 
1.0871459999999999e+00,	 2.8484090000000001e-01,	 5.3933740959328291e-02,	 1.5356658990544611e+03,	 -8.1861900361129926e+01,	 6.2298092233227544e+02,	 9.6664104009163257e+03,	 5.0091767974961357e+02,	 3.0700578632934605e+00 
1.0880330000000000e+00,	 2.8483189999999997e-01,	 5.4415893222383833e-02,	 1.5344446207478786e+03,	 -7.8228244864919901e+01,	 6.2507124721702985e+02,	 9.7855495872646788e+03,	 5.0175735540512937e+02,	 3.0621124048934871e+00 
1.0889270000000000e+00,	 2.8482279999999999e-01,	 5.4851896764417860e-02,	 1.5333327989914103e+03,	 -7.5025078311285981e+01,	 6.2694372142744987e+02,	 9.8935042551530642e+03,	 5.0250832991213645e+02,	 3.0550083988409487e+00 
1.0898270000000001e+00,	 2.8481370000000000e-01,	 5.5242918618312840e-02,	 1.5323345680675272e+03,	 -7.2244311305641219e+01,	 6.2860138670235438e+02,	 9.9903772381803174e+03,	 5.0317221782716410e+02,	 3.0487308399601307e+00 
1.0907330000000000e+00,	 2.8480450000000002e-01,	 5.5588982490768379e-02,	 1.5314428745366831e+03,	 -6.9857094388927337e+01,	 6.3006263043082970e+02,	 1.0076330045654084e+04,	 5.0375671419103941e+02,	 3.0432057311898113e+00 
1.0916459999999999e+00,	 2.8479529999999997e-01,	 5.5894914349738090e-02,	 1.5306527283371586e+03,	 -6.7827294047280290e+01,	 6.3134383934169909e+02,	 1.0152387353507900e+04,	 5.0426863934338678e+02,	 3.0383701775253473e+00 
1.0925650000000000e+00,	 2.8478589999999998e-01,	 5.6161012175968167e-02,	 1.5299514840744341e+03,	 -6.6120915987288384e+01,	 6.3246751407709780e+02,	 1.0218875011265951e+04,	 5.0471719209145357e+02,	 3.0341340398322538e+00 
1.0934910000000000e+00,	 2.8477659999999999e-01,	 5.6397765155703328e-02,	 1.5293373229951007e+03,	 -6.4694731705358322e+01,	 6.3344718330887520e+02,	 1.0277849207122063e+04,	 5.0510793514736213e+02,	 3.0304514699155853e+00 
1.0944229999999999e+00,	 2.8476710000000000e-01,	 5.6601312225751634e-02,	 1.5287894333877946e+03,	 -6.3511332128763080e+01,	 6.3431078736759491e+02,	 1.0329006115901762e+04,	 5.0545213486823820e+02,	 3.0272067364006214e+00 
1.0953619999999999e+00,	 2.8475760000000000e-01,	 5.6783253367410608e-02,	 1.5283069025977420e+03,	 -6.2532881370196115e+01,	 6.3506985475370129e+02,	 1.0374608269758335e+04,	 5.0575447681465340e+02,	 3.0243640921527084e+00 
1.0963069999999999e+00,	 2.8474800000000000e-01,	 5.6942378425327317e-02,	 1.5278747455819425e+03,	 -6.1724517720400065e+01,	 6.3574520156809035e+02,	 1.0414744776953225e+04,	 5.0602332040328787e+02,	 3.0218390696970632e+00 
1.0972599999999999e+00,	 2.8473830000000000e-01,	 5.7084458085547768e-02,	 1.5274872025477098e+03,	 -6.1056615795895141e+01,	 6.3634949414947778e+02,	 1.0450655296576619e+04,	 5.0626375753741132e+02,	 3.0195860719296390e+00 
1.0982190000000001e+00,	 2.8472860000000000e-01,	 5.7212722086459888e-02,	 1.5271391284757929e+03,	 -6.0503650983797783e+01,	 6.3689209543995514e+02,	 1.0483068112080489e+04,	 5.0647955156105996e+02,	 3.0175694150171104e+00 
1.0991850000000001e+00,	 2.8471879999999999e-01,	 5.7327252565110946e-02,	 1.5268209808529693e+03,	 -6.0040192554070416e+01,	 6.3738658427099381e+02,	 1.0512208936661560e+04,	 5.0667613108326674e+02,	 3.0157351634038321e+00 
1.1001580000000000e+00,	 2.8470889999999999e-01,	 5.7431635946675150e-02,	 1.5265302424195295e+03,	 -5.9647578633391817e+01,	 6.3783920245855904e+02,	 1.0538828395160719e+04,	 5.0685599848194408e+02,	 3.0140614612952019e+00 
1.1011380000000000e+00,	 2.8469899999999998e-01,	 5.7528326559000240e-02,	 1.5262657155313152e+03,	 -5.9307713280247299e+01,	 6.3825343266232778e+02,	 1.0563427055763301e+04,	 5.0702055483576265e+02,	 3.0125357984685457e+00 
1.1021250000000000e+00,	 2.8468899999999997e-01,	 5.7615761060553189e-02,	 1.5260216219529434e+03,	 -5.9004619331645948e+01,	 6.3863622562412286e+02,	 1.0585826946024206e+04,	 5.0717257501942248e+02,	 3.0111287501382109e+00 
1.1031190000000000e+00,	 2.8467890000000001e-01,	 5.7695894307191992e-02,	 1.5257978428735782e+03,	 -5.8723958542783322e+01,	 6.3898970077360866e+02,	 1.0606417181481758e+04,	 5.0731291164241281e+02,	 3.0098336850004053e+00 
1.1041200000000000e+00,	 2.8466870000000000e-01,	 5.7769247593947644e-02,	 1.5255943360391807e+03,	 -5.8453918820418053e+01,	 6.3931472934558428e+02,	 1.0625303866718035e+04,	 5.0744192016004195e+02,	 3.0086473159140961e+00 
1.1051290000000000e+00,	 2.8465849999999998e-01,	 5.7837094519359200e-02,	 1.5254137538555046e+03,	 -5.8182249609686217e+01,	 6.3960880045527733e+02,	 1.0642675876713265e+04,	 5.0755861296070753e+02,	 3.0075796247566866e+00 
1.1061449999999999e+00,	 2.8464819999999996e-01,	 5.7896256048271186e-02,	 1.5252526710498887e+03,	 -5.7897160334028271e+01,	 6.3987481845821890e+02,	 1.0657993158291414e+04,	 5.0766415066789176e+02,	 3.0066159574878171e+00 
1.1071690000000001e+00,	 2.8463780000000000e-01,	 5.7948846712846024e-02,	 1.5251152553655124e+03,	 -5.7589456626512387e+01,	 6.4010914013090519e+02,	 1.0671580951188384e+04,	 5.0775709527287177e+02,	 3.0057722325401039e+00 
1.1082000000000001e+00,	 2.8462739999999997e-01,	 5.7994446704985513e-02,	 1.5250041835206589e+03,	 -5.7247456747596310e+01,	 6.4030842667428146e+02,	 1.0683303446917795e+04,	 5.0783612967139464e+02,	 3.0050605467160056e+00 
1.1092379999999999e+00,	 2.8461680000000000e-01,	 5.8029359073150294e-02,	 1.5249160810682733e+03,	 -5.6862653433806358e+01,	 6.4047510263620165e+02,	 1.0692517341765226e+04,	 5.0790222170163111e+02,	 3.0044678373184301e+00 
1.1102850000000000e+00,	 2.8460619999999998e-01,	 5.8058112656519167e-02,	 1.5248602972425028e+03,	 -5.6425966992929389e+01,	 6.4060025081829826e+02,	 1.0699905832972454e+04,	 5.0795184106601562e+02,	 3.0040326870705125e+00 
1.1113390000000001e+00,	 2.8459550000000000e-01,	 5.8075757202894193e-02,	 1.5248347684793005e+03,	 -5.5929991903773157e+01,	 6.4068421399293925e+02,	 1.0704560518629472e+04,	 5.0798512848018186e+02,	 3.0037496706872040e+00 
1.1124000000000001e+00,	 2.8458479999999997e-01,	 5.8083535143298184e-02,	 1.5248446286052058e+03,	 -5.5357586829025799e+01,	 6.4071931074705435e+02,	 1.0706580629130940e+04,	 5.0799904203119661e+02,	 3.0036457072610871e+00 
1.1134700000000000e+00,	 2.8457389999999999e-01,	 5.8079413298839686e-02,	 1.5248826991547394e+03,	 -5.4717120445262495e+01,	 6.4071456612747750e+02,	 1.0705741568360447e+04,	 5.0799716112436147e+02,	 3.0036862465703380e+00 
1.1145480000000001e+00,	 2.8456300000000001e-01,	 5.8066187050144769e-02,	 1.5249620384302452e+03,	 -5.4000494465651506e+01,	 6.4065518800572386e+02,	 1.0702311655314777e+04,	 5.0797362130041341e+02,	 3.0039312708188586e+00 
1.1156340000000000e+00,	 2.8455199999999997e-01,	 5.8039029767081959e-02,	 1.5250788695419988e+03,	 -5.3197966855316110e+01,	 6.4054222684955096e+02,	 1.0695420071449604e+04,	 5.0792883604131413e+02,	 3.0043705098548608e+00 
1.1167270000000000e+00,	 2.8454089999999999e-01,	 5.8001512186883576e-02,	 1.5252305430657343e+03,	 -5.2287610543737095e+01,	 6.4038405910135009e+02,	 1.0685867049297913e+04,	 5.0786612126865077e+02,	 3.0049780287238264e+00 
1.1178300000000001e+00,	 2.8452970000000000e-01,	 5.7952273160358600e-02,	 1.5254202418421412e+03,	 -5.1276842067617778e+01,	 6.4017356287313885e+02,	 1.0673286036681482e+04,	 5.0778264582309652e+02,	 3.0057778538112783e+00 
1.1189400000000000e+00,	 2.8451840000000000e-01,	 5.7889806072028344e-02,	 1.5256499817977526e+03,	 -5.0172862072184245e+01,	 6.3990518569836900e+02,	 1.0657311548199292e+04,	 5.0767619691180607e+02,	 3.0067881181999736e+00 
1.1200580000000000e+00,	 2.8450710000000001e-01,	 5.7815597330112392e-02,	 1.5259212286199888e+03,	 -4.8968250409314038e+01,	 6.3957835837712423e+02,	 1.0638213803938843e+04,	 5.0754653423164297e+02,	 3.0080133389159438e+00 
1.1211860000000000e+00,	 2.8449560000000002e-01,	 5.7726792267141391e-02,	 1.5262277033805767e+03,	 -4.7660928236166953e+01,	 6.3919938474872606e+02,	 1.0615579601842226e+04,	 5.0739614198438392e+02,	 3.0094270959145706e+00 
1.1223209999999999e+00,	 2.8448409999999996e-01,	 5.7628000665417026e-02,	 1.5265748328602640e+03,	 -4.6250847416629597e+01,	 6.3876375166459752e+02,	 1.0590190025631029e+04,	 5.0722320985602090e+02,	 3.0110516960086575e+00 
1.1234649999999999e+00,	 2.8447249999999996e-01,	 5.7516203102682975e-02,	 1.5269568150098867e+03,	 -4.4736569002772015e+01,	 6.3827612857771510e+02,	 1.0561576480826630e+04,	 5.0702956943147569e+02,	 3.0128657369027092e+00 
1.1246179999999999e+00,	 2.8446080000000001e-01,	 5.7392987800370471e-02,	 1.5273728182255973e+03,	 -4.3120342216640211e+01,	 6.3773832395960278e+02,	 1.0530070713471070e+04,	 5.0681591557864476e+02,	 3.0148646292680703e+00 
1.1257800000000000e+00,	 2.8444900000000001e-01,	 5.7259053986784283e-02,	 1.5278221451304232e+03,	 -4.1405254127614000e+01,	 6.3715060608407146e+02,	 1.0495815950468153e+04,	 5.0658232962407823e+02,	 3.0170477950561820e+00 
1.1269499999999999e+00,	 2.8443720000000000e-01,	 5.7115387527898992e-02,	 1.5283040026803947e+03,	 -3.9592938423510844e+01,	 6.3651417899550961e+02,	 1.0459023715401800e+04,	 5.0632926287387255e+02,	 3.0194122384210549e+00 
1.1281289999999999e+00,	 2.8442519999999999e-01,	 5.6959952414233475e-02,	 1.5288115661248976e+03,	 -3.7687152441754641e+01,	 6.3583565150016329e+02,	 1.0419441257896480e+04,	 5.0605931607183550e+02,	 3.0219303650069489e+00 
1.1293169999999999e+00,	 2.8441319999999998e-01,	 5.6797569080177197e-02,	 1.5293490312958174e+03,	 -3.5692301139962218e+01,	 6.3511230042650118e+02,	 1.0377917402585344e+04,	 5.0577137789269739e+02,	 3.0246185115451101e+00 
1.1305149999999999e+00,	 2.8440100000000001e-01,	 5.6624325693631739e-02,	 1.5299084302988690e+03,	 -3.3611577161577785e+01,	 6.3435100740309394e+02,	 1.0333860977937382e+04,	 5.0546815933208558e+02,	 3.0274460914427910e+00 
1.1317210000000000e+00,	 2.8438880000000000e-01,	 5.6444986765391350e-02,	 1.5304931665543663e+03,	 -3.1449912711779888e+01,	 6.3354990269722782e+02,	 1.0288122851598142e+04,	 5.0514888747638309e+02,	 3.0304258814866007e+00 
1.1329370000000001e+00,	 2.8437639999999997e-01,	 5.6256123106924891e-02,	 1.5310949195417438e+03,	 -2.9211848982664058e+01,	 6.3271698702513822e+02,	 1.0240218685854899e+04,	 5.0481672358441728e+02,	 3.0335238313738921e+00 
1.1341619999999999e+00,	 2.8436400000000001e-01,	 5.6062559930257216e-02,	 1.5317187109714100e+03,	 -2.6902544787050577e+01,	 6.3184817714453607e+02,	 1.0190971780983551e+04,	 5.0447001215479145e+02,	 3.0367611732121089e+00 
1.1353960000000001e+00,	 2.8435149999999998e-01,	 5.5861453849284100e-02,	 1.5323571559459463e+03,	 -2.4525949640425260e+01,	 6.3095050870793511e+02,	 1.0139988600637698e+04,	 5.0411153382246499e+02,	 3.0401078214920432e+00 
1.1366400000000001e+00,	 2.8433890000000001e-01,	 5.5655048472815105e-02,	 1.5330100474595133e+03,	 -2.2087333636404722e+01,	 6.3002530251787584e+02,	 1.0087707808434750e+04,	 5.0374179149574718e+02,	 3.0435615631968971e+00 
1.1378940000000000e+00,	 2.8432619999999997e-01,	 5.5443704661061341e-02,	 1.5336762031256476e+03,	 -1.9591675375966059e+01,	 6.2907382065216018e+02,	 1.0034223981335532e+04,	 5.0336126528672804e+02,	 3.0471183203642136e+00 
1.1391570000000000e+00,	 2.8431339999999999e-01,	 5.5227236550819611e-02,	 1.5343529264460856e+03,	 -1.7041266794086582e+01,	 6.2809920651333391e+02,	 9.9795623263443558e+03,	 5.0297118931278391e+02,	 3.0507663071239932e+00 
1.1404300000000001e+00,	 2.8430040000000001e-01,	 5.5005725493806085e-02,	 1.5350373188174335e+03,	 -1.4441993250127805e+01,	 6.2710483130418311e+02,	 9.9237995011221119e+03,	 5.0257289221003094e+02,	 3.0544927471187071e+00 
1.1417130000000000e+00,	 2.8428739999999997e-01,	 5.4782470772665820e-02,	 1.5357320545917828e+03,	 -1.1800869344124049e+01,	 6.2608852032069399e+02,	 9.8675036110384553e+03,	 5.0216548228717062e+02,	 3.0583093585735055e+00 
1.1430050000000000e+00,	 2.8427429999999998e-01,	 5.4554610927581508e-02,	 1.5364299866388001e+03,	 -9.1204334825359332e+00,	 6.2505732454108977e+02,	 9.8102765215468826e+03,	 5.0175176736697262e+02,	 3.0621856390443090e+00 
1.1443080000000001e+00,	 2.8426109999999999e-01,	 5.4324452267670464e-02,	 1.5371326837812962e+03,	 -6.4045364075548896e+00,	 6.2401082414540838e+02,	 9.7525327348984174e+03,	 5.0133156319810644e+02,	 3.0661265696504509e+00 
1.1456210000000000e+00,	 2.8424779999999999e-01,	 5.4092067835696075e-02,	 1.5378390354790267e+03,	 -3.6579723678105482e+00,	 6.2295025703538442e+02,	 9.6943097223516179e+03,	 5.0090535113901780e+02,	 3.0701276847689387e+00 
1.1469440000000000e+00,	 2.8423440000000000e-01,	 5.3857553207738079e-02,	 1.5385471522451803e+03,	 -8.8283006475856585e-01,	 6.2187817913294998e+02,	 9.6356690446992707e+03,	 5.0047414431689515e+02,	 3.0741796014906053e+00 
1.1482779999999999e+00,	 2.8422080000000000e-01,	 5.3620661019058977e-02,	 1.5392542228082023e+03,	 1.9162360423094669e+00,	 6.2079795420943447e+02,	 9.5766227144385284e+03,	 5.0003928453431485e+02,	 3.0782689744343981e+00 
1.1496210000000000e+00,	 2.8420719999999999e-01,	 5.3384557612159253e-02,	 1.5399648141997002e+03,	 4.7335347160865862e+00,	 6.1970540967696127e+02,	 9.5176750454366047e+03,	 4.9959908031014845e+02,	 3.0824157806335104e+00 
1.1509760000000000e+00,	 2.8419349999999999e-01,	 5.3146381978478111e-02,	 1.5406729568776075e+03,	 7.5703831278657452e+00,	 6.1860632792608112e+02,	 9.4584070503234470e+03,	 4.9915585042674041e+02,	 3.0865942063805045e+00 
1.1523410000000001e+00,	 2.8417959999999998e-01,	 5.2906908845118950e-02,	 1.5413769309952622e+03,	 1.0421278215905360e+01,	 6.1750349304335100e+02,	 9.3990020460861942e+03,	 4.9871071106588090e+02,	 3.0907941730920059e+00 
1.1537160000000000e+00,	 2.8416569999999997e-01,	 5.2669231214576305e-02,	 1.5420812667382604e+03,	 1.3282125872327757e+01,	 6.1639311283053871e+02,	 9.3399530742680599e+03,	 4.9826212439822126e+02,	 3.0950345017492107e+00 
1.1551030000000000e+00,	 2.8415160000000000e-01,	 5.2422963855608497e-02,	 1.5427940804804894e+03,	 1.6078859015307547e+01,	 6.1525939331925383e+02,	 9.2791834651203644e+03,	 4.9780369172998326e+02,	 3.0993700730578557e+00 
1.1565000000000001e+00,	 2.8413739999999998e-01,	 5.2220163309922948e-02,	 1.5432797082174618e+03,	 1.8180318637365154e+01,	 6.1432869169423930e+02,	 9.2293042343765665e+03,	 4.9742703592164781e+02,	 3.1027400562749476e+00 
1.0567210000000000e+00,	 2.8585329999999998e-01,	 5.3580542897535915e-02,	 1.5391187151840506e+03,	 -7.1196551023516719e+01,	 6.1825259611044976e+02,	 9.5302215289021351e+03,	 4.9901311623076992e+02,	 3.0876233310822361e+00 
1.0574120000000000e+00,	 2.8584660000000001e-01,	 5.3294778378761606e-02,	 1.5397504976887953e+03,	 -7.4138537099371518e+01,	 6.1692984350994902e+02,	 9.4591122118939438e+03,	 4.9847901064410979e+02,	 3.0924759236019130e+00 
1.0581080000000000e+00,	 2.8583979999999998e-01,	 5.2964890153644043e-02,	 1.5405757822277926e+03,	 -7.7477300206362742e+01,	 6.1540921573442688e+02,	 9.3773906577665730e+03,	 4.9786429837195124e+02,	 3.0982795262589740e+00 
1.0588080000000000e+00,	 2.8583300000000000e-01,	 5.2642510475469181e-02,	 1.5413749870399279e+03,	 -8.0759030303039907e+01,	 6.1392239979897147e+02,	 9.2977959134858775e+03,	 4.9726251975771589e+02,	 3.1039725016090620e+00 
1.0595110000000001e+00,	 2.8582619999999997e-01,	 5.2327731202449837e-02,	 1.5421547935479034e+03,	 -8.3993982147267232e+01,	 6.1246291057744156e+02,	 9.2202274923915866e+03,	 4.9667109229399085e+02,	 3.1095839962794170e+00 
1.0602190000000000e+00,	 2.8581930000000000e-01,	 5.2017839076019465e-02,	 1.5429155478043022e+03,	 -8.7194544978536413e+01,	 6.1102621125564076e+02,	 9.1441235397357887e+03,	 4.9608821130044038e+02,	 3.1151262102419062e+00 
1.0609310000000001e+00,	 2.8581239999999997e-01,	 5.1713739722431824e-02,	 1.5436588543052378e+03,	 -9.0362180015641968e+01,	 6.0960989247128714e+02,	 9.0695948843643237e+03,	 4.9551292772976382e+02,	 3.1206075589788620e+00 
1.0616479999999999e+00,	 2.8580539999999999e-01,	 5.1414196013516086e-02,	 1.5443848174613993e+03,	 -9.3502499766244426e+01,	 6.0821201495565788e+02,	 8.9963839397031279e+03,	 4.9494447901542901e+02,	 3.1260328772990804e+00 
1.0623689999999999e+00,	 2.8579840000000001e-01,	 5.1119379105907733e-02,	 1.5450912538738619e+03,	 -9.6609899394867199e+01,	 6.0683537551505992e+02,	 8.9245514544706530e+03,	 4.9438402800330169e+02,	 3.1313889258959438e+00 
1.0630940000000000e+00,	 2.8579129999999997e-01,	 5.0830289904026792e-02,	 1.5457804561007792e+03,	 -9.9687010886805794e+01,	 6.0547768997977607e+02,	 8.8542273559775404e+03,	 4.9383067043391725e+02,	 3.1366855267869038e+00 
1.0638230000000000e+00,	 2.8578419999999999e-01,	 5.0546837574948975e-02,	 1.5464512201455004e+03,	 -1.0273074936627809e+02,	 6.0414202763766718e+02,	 8.7854290495923160e+03,	 4.9328568322696850e+02,	 3.1419109013944513e+00 
1.0645570000000000e+00,	 2.8577710000000001e-01,	 5.0268351450837107e-02,	 1.5471014073280876e+03,	 -1.0574062294069580e+02,	 6.0282967045386340e+02,	 8.7180468752723045e+03,	 4.9274961809152114e+02,	 3.1470562279345318e+00 
1.0652960000000000e+00,	 2.8576989999999997e-01,	 4.9996073045888080e-02,	 1.5477293184805803e+03,	 -1.0870744240101129e+02,	 6.0154428914563573e+02,	 8.6523372598849910e+03,	 4.9222400599407712e+02,	 3.1521060135049819e+00 
1.0660390000000000e+00,	 2.8576269999999998e-01,	 4.9731701784702965e-02,	 1.5483348434471609e+03,	 -1.1162210368532817e+02,	 6.0028997368100931e+02,	 8.5886389822797810e+03,	 4.9171055554962976e+02,	 3.1570466115960900e+00 
1.0667869999999999e+00,	 2.8575539999999999e-01,	 4.9474469390474451e-02,	 1.5489144467579613e+03,	 -1.1447961747206308e+02,	 5.9907093824493825e+02,	 8.5268639658588418e+03,	 4.9121103261854023e+02,	 3.1618574342039341e+00 
1.0675390000000000e+00,	 2.8574810000000000e-01,	 4.9226702418113208e-02,	 1.5494666634358550e+03,	 -1.1726616286210503e+02,	 5.9789243904942259e+02,	 8.4674714931098824e+03,	 4.9072763678774891e+02,	 3.1665177547736696e+00 
1.0682959999999999e+00,	 2.8574079999999996e-01,	 4.8988169018422630e-02,	 1.5499877132090435e+03,	 -1.1997259214496103e+02,	 5.9676028251744674e+02,	 8.4104852968370615e+03,	 4.9026280087304264e+02,	 3.1710010495079697e+00 
1.0690580000000001e+00,	 2.8573339999999997e-01,	 4.8761600847682857e-02,	 1.5504747948699567e+03,	 -1.2258172535226950e+02,	 5.9568208279146029e+02,	 8.3564617563638531e+03,	 4.8981970821738304e+02,	 3.1752763777688542e+00 
1.0698250000000000e+00,	 2.8572589999999998e-01,	 4.8547703873698715e-02,	 1.5509215334534792e+03,	 -1.2507450565268887e+02,	 5.9466913277410754e+02,	 8.3056576888157051e+03,	 4.8940306483870643e+02,	 3.1792949537974620e+00 
1.0705970000000000e+00,	 2.8571839999999998e-01,	 4.8350132544568054e-02,	 1.5513238491978525e+03,	 -1.2742436141211346e+02,	 5.9373331414129677e+02,	 8.2588394602114859e+03,	 4.8901783143154682e+02,	 3.1830093172103076e+00 
1.0713740000000000e+00,	 2.8571079999999999e-01,	 4.8169880758999820e-02,	 1.5516733759004617e+03,	 -1.2960955950449633e+02,	 5.9288788550926665e+02,	 8.2163339975667459e+03,	 4.8866954631433453e+02,	 3.1863598828811210e+00 
1.0721550000000000e+00,	 2.8570329999999999e-01,	 4.8011914604645677e-02,	 1.5519613304230411e+03,	 -1.3158677502755910e+02,	 5.9215350970975942e+02,	 8.1792459974727935e+03,	 4.8836680924264158e+02,	 3.1892621728742379e+00 
1.0729420000000001e+00,	 2.8569559999999999e-01,	 4.7879984346149380e-02,	 1.5521757368236154e+03,	 -1.3331953850502245e+02,	 5.9154995426933510e+02,	 8.1484567045237363e+03,	 4.8811786062872221e+02,	 3.1916282618849809e+00 
1.0737340000000000e+00,	 2.8568789999999999e-01,	 4.7776368829224793e-02,	 1.5523154053630360e+03,	 -1.3475993676586279e+02,	 5.9110216605013727e+02,	 8.1246680689466311e+03,	 4.8793307927147464e+02,	 3.1933760925490855e+00 
1.0745309999999999e+00,	 2.8568020000000000e-01,	 4.7709647280394139e-02,	 1.5523576446581130e+03,	 -1.3585394568947655e+02,	 5.9083585975871188e+02,	 8.1096664013500667e+03,	 4.8782315386870118e+02,	 3.1943766810782805e+00 
1.0753330000000001e+00,	 2.8567239999999999e-01,	 4.7682974640050224e-02,	 1.5522911459174220e+03,	 -1.3654379545776879e+02,	 5.9078335544892661e+02,	 8.1044123385808252e+03,	 4.8780147831650618e+02,	 3.1945064274898738e+00 
1.0761410000000000e+00,	 2.8566449999999999e-01,	 4.7705789781547332e-02,	 1.5520984337642349e+03,	 -1.3646665013207098e+02,	 5.9105737615176736e+02,	 8.1120509384784609e+03,	 4.8791459271508859e+02,	 3.1933585334867054e+00 
1.0769540000000000e+00,	 2.8565659999999998e-01,	 4.7791067471845805e-02,	 1.5517671431428748e+03,	 -1.3589411506757682e+02,	 5.9164602171606873e+02,	 8.1346452315821971e+03,	 4.8815749408027801e+02,	 3.1909909765857472e+00 
1.0777720000000000e+00,	 2.8564869999999998e-01,	 4.7916094314731823e-02,	 1.5513046870823373e+03,	 -1.3528263268436149e+02,	 5.9241600724952821e+02,	 8.1665407468924104e+03,	 4.8847504205725744e+02,	 3.1878644558070039e+00 
1.0785960000000001e+00,	 2.8564069999999997e-01,	 4.8089555382968469e-02,	 1.5506911301189236e+03,	 -1.3401223303329499e+02,	 5.9340595111093000e+02,	 8.2098003653966589e+03,	 4.8888299948938783e+02,	 3.1837292223968445e+00 