TITLE = "Final State"
VARIABLES = "X", "Y", "rho", "u", "v", "T", "p", "c", "M"
ZONE I=82, J=25, DATAPACKING=POINT, STRANDID=4000, SOLUTIONTIME=0.000097
8.4940000000000004e-01,	 2.6635680000000000e-01,	 1.1640107173416804e-02,	 1.7356517510674078e+03,	 8.0546486346889057e-01,	 3.0064180283466209e+02,	 1.0067839501181431e+03,	 3.4797950829441010e+02,	 4.9877992714881376e+00 
8.5141040000000001e-01,	 2.6661879999999999e-01,	 1.1648759832317297e-02,	 1.7355327619020898e+03,	 1.4822110654311902e+00,	 3.0085484806830038e+02,	 1.0082463141355520e+03,	 3.4810278164806942e+02,	 4.9856924056094938e+00 
8.5342070000000003e-01,	 2.6688079999999997e-01,	 1.1660773516596674e-02,	 1.7353906048180361e+03,	 2.1896540448794566e+00,	 3.0108106590888974e+02,	 1.0100450454027281e+03,	 3.4823362923590918e+02,	 4.9834129749013671e+00 
8.5538060000000005e-01,	 2.6713609999999999e-01,	 1.1672791622948309e-02,	 1.7352806732055510e+03,	 2.7301262640637316e+00,	 3.0125442086903729e+02,	 1.0116682003740576e+03,	 3.4833386692378252e+02,	 4.9816655388405273e+00 
8.5734049999999995e-01,	 2.6739140000000000e-01,	 1.1684123535506971e-02,	 1.7351995528879249e+03,	 3.1491308134662255e+00,	 3.0138309963014598e+02,	 1.0130828716010420e+03,	 3.4840825319314104e+02,	 4.9803711438696308e+00 
8.5925130000000005e-01,	 2.6764019999999999e-01,	 1.1693849343015327e-02,	 1.7351437151267628e+03,	 3.4625614540635516e+00,	 3.0147068300404612e+02,	 1.0142208086508441e+03,	 3.4845887407024759e+02,	 4.9794891136169044e+00 
8.6116210000000004e-01,	 2.6788899999999999e-01,	 1.1701852332090980e-02,	 1.7351109163081819e+03,	 3.6856525590356903e+00,	 3.0152128839077363e+02,	 1.0150852823262915e+03,	 3.4848811929560969e+02,	 4.9789784348117676e+00 
8.6302509999999999e-01,	 2.6813139999999996e-01,	 1.1707775962567783e-02,	 1.7350964439439203e+03,	 3.8300887875733505e+00,	 3.0154120194712175e+02,	 1.0156662055928405e+03,	 3.4849962681347245e+02,	 4.9787733981625406e+00 
8.6488799999999999e-01,	 2.6837390000000000e-01,	 1.1712320430253756e-02,	 1.7350972912428392e+03,	 3.9144000819942004e+00,	 3.0153758157141232e+02,	 1.0160482455594379e+03,	 3.4849753472230452e+02,	 4.9788062578013195e+00 
8.6670449999999999e-01,	 2.6861019999999997e-01,	 1.1714934470213392e-02,	 1.7351079762349059e+03,	 3.9473306206664436e+00,	 3.0151642488931407e+02,	 1.0162037099493430e+03,	 3.4848530874893078e+02,	 4.9790118054079162e+00 
8.6852099999999999e-01,	 2.6884649999999999e-01,	 1.1716381708818726e-02,	 1.7351274447801368e+03,	 3.9408213629636366e+00,	 3.0148212022838811e+02,	 1.0162136180270414e+03,	 3.4846548394102848e+02,	 4.9793508968154896e+00 
8.7029219999999996e-01,	 2.6907680000000000e-01,	 1.1716489786528506e-02,	 1.7351525685596055e+03,	 3.9015415188590392e+00,	 3.0143853266836021e+02,	 1.0160760690082544e+03,	 3.4844029287958887e+02,	 4.9797827357441609e+00 
8.7206329999999999e-01,	 2.6930709999999997e-01,	 1.1715728525673763e-02,	 1.7351822444117124e+03,	 3.8370459512306931e+00,	 3.0138816033619656e+02,	 1.0158402691692760e+03,	 3.4841117834779561e+02,	 4.9802836266799480e+00 
8.7379050000000003e-01,	 2.6953159999999998e-01,	 1.1714012693674739e-02,	 1.7352144946238409e+03,	 3.7521778560128398e+00,	 3.0133360926153159e+02,	 1.0155076543052035e+03,	 3.4837964581465184e+02,	 4.9808264411146448e+00 
8.7551760000000001e-01,	 2.6975610000000000e-01,	 1.1711727193027197e-02,	 1.7352487749747934e+03,	 3.6519180068018677e+00,	 3.0127616709525603e+02,	 1.0151159754891346e+03,	 3.4834643903866197e+02,	 4.9813990422338605e+00 
8.7720189999999998e-01,	 2.6997489999999996e-01,	 1.1708698022118855e-02,	 1.7352834491975136e+03,	 3.5395109382247099e+00,	 3.0121771198301303e+02,	 1.0146565146295914e+03,	 3.4831264343809966e+02,	 4.9819812507802954e+00 
8.7888619999999995e-01,	 2.7019369999999998e-01,	 1.1705399077076885e-02,	 1.7353179471151670e+03,	 3.4195633625341442e+00,	 3.0116448141539303e+02,	 1.0141913760088904e+03,	 3.4828186553530605e+02,	 4.9825198727677584e+00 
8.8052880000000000e-01,	 2.7040700000000001e-01,	 1.1701696008147716e-02,	 1.7353471549419091e+03,	 3.2976244954965921e+00,	 3.0112518624257291e+02,	 1.0137382436156297e+03,	 3.4825914332968097e+02,	 4.9829281480810774e+00 
8.8217140000000005e-01,	 2.7062029999999998e-01,	 1.1697868075171015e-02,	 1.7353820023401681e+03,	 3.1726724320203186e+00,	 3.0106625218997056e+02,	 1.0132082864899286e+03,	 3.4822506227647386e+02,	 4.9835152334406558e+00 
8.8377340000000004e-01,	 2.7082819999999996e-01,	 1.1693902373182293e-02,	 1.7354191805379410e+03,	 3.0714239003677628e+00,	 3.0099098350351994e+02,	 1.0126115747357743e+03,	 3.4818153019468161e+02,	 4.9842445621352196e+00 
8.8537540000000003e-01,	 2.7103610000000000e-01,	 1.1690337852783301e-02,	 1.7354490689211311e+03,	 2.9512949605575374e+00,	 3.0093347331487223e+02,	 1.0121094915836982e+03,	 3.4814826517485187e+02,	 4.9848060495879505e+00 
8.8693800000000000e-01,	 2.7123890000000000e-01,	 1.1686272071707558e-02,	 1.7354787785987151e+03,	 2.7887881334985618e+00,	 3.0088225285070956e+02,	 1.0115852836953081e+03,	 3.4811863557865513e+02,	 4.9853148953152351e+00 
8.8850059999999997e-01,	 2.7144160000000001e-01,	 1.1681720106311917e-02,	 1.7355084396142850e+03,	 2.6419899151184465e+00,	 3.0083143707375154e+02,	 1.0110204778381596e+03,	 3.4808923759033041e+02,	 4.9858204826936632e+00 
8.9002470000000000e-01,	 2.7163919999999997e-01,	 1.1677291257525309e-02,	 1.7355370207405542e+03,	 2.5141152283368586e+00,	 3.0078311845356336e+02,	 1.0104748478239136e+03,	 3.4806128195636757e+02,	 4.9863025038867423e+00 
8.9154889999999998e-01,	 2.7183689999999999e-01,	 1.1673196757565833e-02,	 1.7355648403130467e+03,	 2.3918868592610343e+00,	 3.0073693977819630e+02,	 1.0099654551891599e+03,	 3.4803456232863027e+02,	 4.9867647537701254e+00 
8.9303569999999999e-01,	 2.7202959999999998e-01,	 1.1668781097668220e-02,	 1.7355905938027950e+03,	 2.2740127579762426e+00,	 3.0069328172017896e+02,	 1.0094368506357293e+03,	 3.4800929927878138e+02,	 4.9872003050845617e+00 
8.9452259999999995e-01,	 2.7222229999999997e-01,	 1.1664794137179788e-02,	 1.7356150442778030e+03,	 2.1574425085547109e+00,	 3.0065229960850496e+02,	 1.0089544174931212e+03,	 3.4798558301569619e+02,	 4.9876100329561464e+00 
8.9597309999999997e-01,	 2.7241029999999999e-01,	 1.1660975429137839e-02,	 1.7356382126386516e+03,	 2.0455250001056129e+00,	 3.0061379603454208e+02,	 1.0084949444565461e+03,	 3.4796329960449270e+02,	 4.9879956305191939e+00 
8.9742359999999999e-01,	 2.7259820000000001e-01,	 1.1657112674123910e-02,	 1.7356598865346041e+03,	 1.9369859068658164e+00,	 3.0057724554120119e+02,	 1.0080382971209769e+03,	 3.4794214519134414e+02,	 4.9883608276658640e+00 
8.9883880000000005e-01,	 2.7278150000000001e-01,	 1.1653480631315001e-02,	 1.7356804655980575e+03,	 1.8337440951401154e+00,	 3.0054286275768555e+02,	 1.0076089467539026e+03,	 3.4792224421452903e+02,	 4.9887049854784777e+00 
9.0025409999999995e-01,	 2.7296470000000000e-01,	 1.1649861048929538e-02,	 1.7356996311862254e+03,	 1.7337937581363474e+00,	 3.0051035906360596e+02,	 1.0071870434327697e+03,	 3.4790342982003199e+02,	 4.9890295649826273e+00 
9.0163490000000002e-01,	 2.7314349999999998e-01,	 1.1646705136256708e-02,	 1.7357180528373758e+03,	 1.6396889504994356e+00,	 3.0047976819935423e+02,	 1.0068116992491632e+03,	 3.4788572171591289e+02,	 4.9893362071955112e+00 
9.0301580000000004e-01,	 2.7332220000000002e-01,	 1.1643326481547381e-02,	 1.7357348163143170e+03,	 1.5483293314088069e+00,	 3.0045103690410815e+02,	 1.0064233864189058e+03,	 3.4786908923781886e+02,	 4.9896227074848385e+00 
9.0436329999999998e-01,	 2.7349649999999998e-01,	 1.1640267106056073e-02,	 1.7357505875501129e+03,	 1.4613315521439589e+00,	 3.0042426608252140e+02,	 1.0060692898832278e+03,	 3.4785359095750846e+02,	 4.9898901371723010e+00 
9.0571080000000004e-01,	 2.7367089999999999e-01,	 1.1637570545288325e-02,	 1.7357656907202766e+03,	 1.3788674621486696e+00,	 3.0039901035941079e+02,	 1.0057516684157019e+03,	 3.4783896917156454e+02,	 4.9901431186117708e+00 
9.0702579999999999e-01,	 2.7384090000000000e-01,	 1.1634585248168754e-02,	 1.7357789515432826e+03,	 1.2986665365383057e+00,	 3.0037580732965534e+02,	 1.0054160055843964e+03,	 3.4782553524946377e+02,	 4.9903737979250424e+00 
9.0834079999999995e-01,	 2.7401100000000000e-01,	 1.1632258648569930e-02,	 1.7357919670567280e+03,	 1.2229910392474446e+00,	 3.0035401224713058e+02,	 1.0051420120420339e+03,	 3.4781291601785273e+02,	 4.9905921199614651e+00 
9.0962430000000005e-01,	 2.7417690000000000e-01,	 1.1629695118294182e-02,	 1.7358032768677863e+03,	 1.1493753584492818e+00,	 3.0033420245410355e+02,	 1.0048542183676119e+03,	 3.4780144586062147e+02,	 4.9907890782523561e+00 
9.1090780000000005e-01,	 2.7434280000000000e-01,	 1.1627563140810898e-02,	 1.7358139168178861e+03,	 1.0785021638464583e+00,	 3.0031596257366664e+02,	 1.0046089910467597e+03,	 3.4779088437102411e+02,	 4.9909710974929133e+00 
9.1216059999999999e-01,	 2.7450469999999999e-01,	 1.1625544791955147e-02,	 1.7358234351580745e+03,	 1.0099299904393069e+00,	 3.0029946084703181e+02,	 1.0043794163130334e+03,	 3.4778132905319904e+02,	 4.9911354749273533e+00 
9.1341340000000004e-01,	 2.7466649999999998e-01,	 1.1623526200386687e-02,	 1.7358316152733551e+03,	 9.4216410649410531e-01,	 3.0028475774754133e+02,	 1.0041558544063474e+03,	 3.4777281500848551e+02,	 4.9912810779129719e+00 
9.1463640000000002e-01,	 2.7482439999999997e-01,	 1.1621854530456640e-02,	 1.7358388242443393e+03,	 8.7667439617078635e-01,	 3.0027219784881203e+02,	 1.0039694445111098e+03,	 3.4776554185042443e+02,	 4.9914060961518185e+00 
9.1585939999999999e-01,	 2.7498240000000002e-01,	 1.1620600760786141e-02,	 1.7358452556989284e+03,	 8.1279987680271493e-01,	 3.0026123091889121e+02,	 1.0038244716256326e+03,	 3.4775919102077961e+02,	 4.9915156545487385e+00 
9.1705340000000002e-01,	 2.7513650000000001e-01,	 1.1619109095867886e-02,	 1.7358497794759246e+03,	 7.4848784417025394e-01,	 3.0025253033055776e+02,	 1.0036665330474258e+03,	 3.4775415252235263e+02,	 4.9916009003977022e+00 
9.1824740000000005e-01,	 2.7529060000000000e-01,	 1.1618122629873447e-02,	 1.7358535212374759e+03,	 6.8474178596842417e-01,	 3.0024585084772821e+02,	 1.0035589955575484e+03,	 3.4775028439373648e+02,	 4.9916671076738677e+00 
9.1941329999999999e-01,	 2.7544099999999999e-01,	 1.1617175987321881e-02,	 1.7358556578336543e+03,	 6.2085237772327329e-01,	 3.0024160423466958e+02,	 1.0034630327831593e+03,	 3.4774782513224045e+02,	 4.9917084835877610e+00 
9.2057920000000004e-01,	 2.7559139999999999e-01,	 1.1616629756253508e-02,	 1.7358565945716175e+03,	 5.5704798579358361e-01,	 3.0023985282707076e+02,	 1.0034099974363380e+03,	 3.4774681086729015e+02,	 4.9917256742701737e+00 
9.2171780000000003e-01,	 2.7573829999999999e-01,	 1.1616391783074796e-02,	 1.7358561305207695e+03,	 4.9426677295629406e-01,	 3.0024091357423447e+02,	 1.0033929869936306e+03,	 3.4774742516135211e+02,	 4.9917154672934707e+00 
9.2285629999999996e-01,	 2.7588509999999999e-01,	 1.1616220662327946e-02,	 1.7358534865347103e+03,	 4.3145827084102978e-01,	 3.0024553682443218e+02,	 1.0033936565267479e+03,	 3.4775010253990109e+02,	 4.9916693840701027e+00 
9.2396829999999996e-01,	 2.7602840000000001e-01,	 1.1616365616571717e-02,	 1.7358487846386797e+03,	 3.7088468439027883e-01,	 3.0025453291973838e+02,	 1.0034362419999591e+03,	 3.4775531222538893e+02,	 4.9915810434423742e+00 
9.2508029999999997e-01,	 2.7617169999999996e-01,	 1.1617077403849832e-02,	 1.7358418070392058e+03,	 3.1471292061361400e-01,	 3.0026912952195983e+02,	 1.0035465112117090e+03,	 3.4776376502745529e+02,	 4.9914396211788352e+00 
9.2616650000000000e-01,	 2.7631169999999999e-01,	 1.1618312124822243e-02,	 1.7358316240122417e+03,	 2.6764764181946837e-01,	 3.0029124988965441e+02,	 1.0037271107388558e+03,	 3.4777657440398701e+02,	 4.9912264724021567e+00 
9.2725270000000004e-01,	 2.7645159999999996e-01,	 1.1619870464416471e-02,	 1.7358164390361121e+03,	 2.3442607716910932e-01,	 3.0032463774824657e+02,	 1.0039733528171015e+03,	 3.4779590762191083e+02,	 4.9909053465718598e+00 
9.2831390000000003e-01,	 2.7658820000000001e-01,	 1.1622366562752982e-02,	 1.7357950837386093e+03,	 2.1446746431315505e-01,	 3.0037388675791345e+02,	 1.0043536921197006e+03,	 3.4782442326749714e+02,	 4.9904347736186034e+00 
9.2937510000000001e-01,	 2.7672490000000000e-01,	 1.1626088084405080e-02,	 1.7357649604253140e+03,	 1.7596653440229254e-01,	 3.0044587146527283e+02,	 1.0049160604037454e+03,	 3.4786609889329401e+02,	 4.9897502943430672e+00 
9.3041189999999996e-01,	 2.7685830000000000e-01,	 1.1630448542980442e-02,	 1.7357215771460051e+03,	 1.6181714165735250e-01,	 3.0051783816104444e+02,	 1.0055337631397808e+03,	 3.4790775910084193e+02,	 4.9890280951906361e+00 
9.3144879999999997e-01,	 2.7699180000000001e-01,	 1.1637641084239793e-02,	 1.7356792500467143e+03,	 2.9839147422920448e-01,	 3.0058681200226016e+02,	 1.0063865381685897e+03,	 3.4794768211828710e+02,	 4.9883340654237518e+00 
9.3246200000000001e-01,	 2.7712209999999998e-01,	 1.1645124989970944e-02,	 1.7356228335513688e+03,	 6.0123537491400392e-01,	 3.0075911558808531e+02,	 1.0076109786950872e+03,	 3.4804739381854137e+02,	 4.9867430945135203e+00 
9.3347530000000001e-01,	 2.7725250000000001e-01,	 1.1655745000021783e-02,	 1.7354984430295601e+03,	 1.1262241580980441e+00,	 3.0109077156813419e+02,	 1.0096420259128595e+03,	 3.4823924202609726e+02,	 4.9836394036318996e+00 
9.3446560000000001e-01,	 2.7737980000000001e-01,	 1.1677561792967934e-02,	 1.7352851149061889e+03,	 1.9786017700507683e+00,	 3.0159491105834758e+02,	 1.0132255222962922e+03,	 3.4853066199489865e+02,	 4.9788624994750457e+00 
9.3545599999999995e-01,	 2.7750720000000001e-01,	 1.1715086257536068e-02,	 1.7349614601694598e+03,	 3.3682061025906629e+00,	 3.0235812368871507e+02,	 1.0190536989567433e+03,	 3.4897137720612051e+02,	 4.9716533875287316e+00 
9.3642409999999998e-01,	 2.7763159999999998e-01,	 1.1769893571731915e-02,	 1.7344759663026730e+03,	 5.5251623122903855e+00,	 3.0350038727845845e+02,	 1.0276890350732865e+03,	 3.4962993653897161e+02,	 4.9609160578043348e+00 
9.3739229999999996e-01,	 2.7775600000000000e-01,	 1.1850250358465191e-02,	 1.7337552485158408e+03,	 8.8048483781087690e+00,	 3.0519707775281438e+02,	 1.0404898167571348e+03,	 3.5060586118447725e+02,	 4.9450901937445355e+00 
9.3833889999999998e-01,	 2.7787760000000000e-01,	 1.1965245072287928e-02,	 1.7327027164749225e+03,	 1.3612391282844632e+01,	 3.0765498177802982e+02,	 1.0590476177270839e+03,	 3.5201483187113348e+02,	 4.9223953917149705e+00 
9.3928550000000000e-01,	 2.7799920000000000e-01,	 1.2127605407609918e-02,	 1.7312000894884541e+03,	 2.0496222552362902e+01,	 3.1115399142741364e+02,	 1.0856263400884015e+03,	 3.5401093310577801e+02,	 4.8905874196080852e+00 
9.4021120000000002e-01,	 2.7811799999999998e-01,	 1.2343323527924647e-02,	 1.7291147490114063e+03,	 2.9956989811615607e+01,	 3.1595483405861847e+02,	 1.1219850087379207e+03,	 3.5673152365011674e+02,	 4.8478312623892759e+00 
9.4113680000000000e-01,	 2.7823690000000001e-01,	 1.2622686464685775e-02,	 1.7263153947271312e+03,	 4.2553231566497345e+01,	 3.2235011141534460e+02,	 1.1706027957862505e+03,	 3.6032375846781116e+02,	 4.7924671566128616e+00 
9.4204230000000000e-01,	 2.7835309999999996e-01,	 1.2976855251016807e-02,	 1.7227568957680514e+03,	 5.8582945299370039e+01,	 3.3049531754912249e+02,	 1.2338566571628071e+03,	 3.6484772450053077e+02,	 4.7245811304413099e+00 
9.4294770000000006e-01,	 2.7846929999999998e-01,	 1.3419971393808090e-02,	 1.7185010877893806e+03,	 7.8282135224369952e+01,	 3.4049194924672071e+02,	 1.3145841003368100e+03,	 3.7032447040109798e+02,	 4.6453401743558373e+00 
9.4383349999999999e-01,	 2.7858289999999997e-01,	 1.3956347757145585e-02,	 1.7136334426985436e+03,	 1.0104970097812074e+02,	 3.5215420014246979e+02,	 1.4139517589329623e+03,	 3.7661310047913986e+02,	 4.5580204439277008e+00 
9.4471930000000004e-01,	 2.7869650000000001e-01,	 1.4589943144230830e-02,	 1.7082583519914322e+03,	 1.2524753738198474e+02,	 3.6482835982886741e+02,	 1.5313417660045925e+03,	 3.8333041731136149e+02,	 4.4683219052589562e+00 
9.4558609999999998e-01,	 2.7880759999999999e-01,	 1.5303291356608179e-02,	 1.7025863236080306e+03,	 1.4935191710579630e+02,	 3.7721884589726119e+02,	 1.6607649334314137e+03,	 3.8978549841009988e+02,	 4.3847818816704907e+00 
9.4645279999999998e-01,	 2.7891879999999997e-01,	 1.6092328104134558e-02,	 1.6967821794042272e+03,	 1.7329919589558403e+02,	 3.8897089801599509e+02,	 1.8008018401140616e+03,	 3.9581071000607938e+02,	 4.3091534644074345e+00 
9.4730119999999995e-01,	 2.7902749999999998e-01,	 1.6935116303148947e-02,	 1.6909873354918211e+03,	 1.9637858671112991e+02,	 3.9991625921189734e+02,	 1.9484406536080530e+03,	 4.0134098967739556e+02,	 4.2416602271353803e+00 
9.4814949999999998e-01,	 2.7913620000000000e-01,	 1.7824954007696469e-02,	 1.6853153774691664e+03,	 2.1837270697440448e+02,	 4.1007995973259818e+02,	 2.1029400959617119e+03,	 4.0640894643537581e+02,	 4.1815127177863385e+00 
9.4898000000000005e-01,	 2.7924250000000000e-01,	 1.8735295649990068e-02,	 1.6798889776056581e+03,	 2.3873518288452840e+02,	 4.1927957679765723e+02,	 2.2599258853497431e+03,	 4.1094229379500541e+02,	 4.1289688898556891e+00 
9.4981050000000000e-01,	 2.7934890000000001e-01,	 1.9659329744846854e-02,	 1.6747535756413529e+03,	 2.5751504147294440e+02,	 4.2762236919583438e+02,	 2.4185722185752165e+03,	 4.1501060463957657e+02,	 4.0828741084387792e+00 
9.5062369999999996e-01,	 2.7945300000000001e-01,	 2.0570662082064282e-02,	 1.6699734035120421e+03,	 2.7445290194848860e+02,	 4.3506225423831137e+02,	 2.5747176683294388e+03,	 4.1860526798271565e+02,	 4.0428915863210486e+00 
9.5143690000000003e-01,	 2.7955710000000000e-01,	 2.1464802416663990e-02,	 1.6655369097709599e+03,	 2.8980696163999232e+02,	 4.4177163317896100e+02,	 2.7280646517986202e+03,	 4.2182071105915458e+02,	 4.0077747935266395e+00 
9.5223340000000001e-01,	 2.7965899999999999e-01,	 2.2318331239596777e-02,	 1.6614713176780979e+03,	 3.0346976689697294e+02,	 4.4774066882732239e+02,	 2.8748699280847763e+03,	 4.2466088296072775e+02,	 3.9771935088028436e+00 
9.5302989999999999e-01,	 2.7976089999999998e-01,	 2.3159831588436451e-02,	 1.6575779173096576e+03,	 3.1639443352256831e+02,	 4.5330401295651552e+02,	 3.0203334900537952e+03,	 4.2729102267596835e+02,	 3.9493085073371610e+00 
9.5381020000000005e-01,	 2.7986069999999996e-01,	 2.3940841726677566e-02,	 1.6543550131510729e+03,	 3.2891590618836301e+02,	 4.5830751674322403e+02,	 3.1566492871705887e+03,	 4.2964273910037713e+02,	 3.9259021715688167e+00 
8.4940000000000004e-01,	 2.6784360000000002e-01,	 1.1605528758056857e-02,	 1.7358602381468859e+03,	 2.0796759881817284e-01,	 3.0015400887172194e+02,	 1.0021645074178455e+03,	 3.4769709379020742e+02,	 4.9924496971844556e+00 
8.5140930000000004e-01,	 2.6809469999999996e-01,	 1.1612003663432969e-02,	 1.7357916896415695e+03,	 5.7581777941809054e-01,	 3.0028459074556548e+02,	 1.0031598651049549e+03,	 3.4777271830235270e+02,	 4.9911672014510566e+00 
8.5341869999999997e-01,	 2.6834569999999996e-01,	 1.1622286545930161e-02,	 1.7356988077455082e+03,	 1.0139411754445842e+00,	 3.0045233403885152e+02,	 1.0046090780954100e+03,	 3.4786984016316001e+02,	 4.9895072912553156e+00 
8.5537759999999996e-01,	 2.6859040000000001e-01,	 1.1632803322424955e-02,	 1.7356129751419612e+03,	 1.4183626207922666e+00,	 3.0060905064563246e+02,	 1.0060426094136170e+03,	 3.4796055317748045e+02,	 4.9879606721041574e+00 
8.5733649999999995e-01,	 2.6883509999999999e-01,	 1.1643153010471946e-02,	 1.7355366097192514e+03,	 1.7843417963924546e+00,	 3.0074972078430358e+02,	 1.0074088809831985e+03,	 3.4804195780291030e+02,	 4.9865755782282175e+00 
8.5924639999999997e-01,	 2.6907349999999997e-01,	 1.1652774937140047e-02,	 1.7354705856676824e+03,	 2.1072529109945473e+00,	 3.0087157338965005e+02,	 1.0086499077797263e+03,	 3.4811245749342885e+02,	 4.9853770747065118e+00 
8.6115629999999999e-01,	 2.6931189999999999e-01,	 1.1661623331089851e-02,	 1.7354160957664185e+03,	 2.3875627467127836e+00,	 3.0097387738658688e+02,	 1.0097590409909653e+03,	 3.4817163601358880e+02,	 4.9843742529523443e+00 
8.6301839999999996e-01,	 2.6954430000000001e-01,	 1.1669211776828973e-02,	 1.7353722865232398e+03,	 2.6221728393275132e+00,	 3.0105610912794111e+02,	 1.0106921756359504e+03,	 3.4821919629493169e+02,	 4.9835686431342001e+00 
8.6488050000000005e-01,	 2.6977659999999998e-01,	 1.1675868005966780e-02,	 1.7353389157631759e+03,	 2.8163494224718839e+00,	 3.0112011203442199e+02,	 1.0114836743170988e+03,	 3.4825620909018699e+02,	 4.9829440390368136e+00 
8.6669620000000003e-01,	 2.7000310000000000e-01,	 1.1681313227142935e-02,	 1.7353143323313345e+03,	 2.9707089839159950e+00,	 3.0116743655867958e+02,	 1.0121144358815384e+03,	 3.4828357426982740e+02,	 4.9824826759825394e+00 
8.6851179999999994e-01,	 2.7022950000000001e-01,	 1.1685797008553777e-02,	 1.7352979054560606e+03,	 3.0908030701399829e+00,	 3.0120039290348075e+02,	 1.0126137249761250e+03,	 3.4830262984851288e+02,	 4.9821635248067331e+00 
8.7028220000000001e-01,	 2.7045019999999997e-01,	 1.1689222489710601e-02,	 1.7352882946412205e+03,	 3.1786527469822197e+00,	 3.0122067577423047e+02,	 1.0129787639907067e+03,	 3.4831435702161940e+02,	 4.9819686468302482e+00 
8.7205270000000001e-01,	 2.7067099999999999e-01,	 1.1691829084458894e-02,	 1.7352848291864816e+03,	 3.2389632237379704e+00,	 3.0123015541729319e+02,	 1.0132365357459355e+03,	 3.4831983783695819e+02,	 4.9818806266469737e+00 
8.7377910000000003e-01,	 2.7088609999999996e-01,	 1.1693540025192283e-02,	 1.7352863225124265e+03,	 3.2740013392414706e+00,	 3.0123042054504629e+02,	 1.0133857011118346e+03,	 3.4831999112379549e+02,	 4.9818829102366005e+00 
8.7550559999999999e-01,	 2.7110119999999999e-01,	 1.1694610889040131e-02,	 1.7352923425933077e+03,	 3.2875474183217639e+00,	 3.0122283173887251e+02,	 1.0134529720719561e+03,	 3.4831560353647495e+02,	 4.9819630218554405e+00 
8.7718920000000000e-01,	 2.7131089999999997e-01,	 1.1694936852205970e-02,	 1.7353017494422488e+03,	 3.2815433737119037e+00,	 3.0120878013882367e+02,	 1.0134339425824403e+03,	 3.4830747923759003e+02,	 4.9821062011649211e+00 
8.7887280000000001e-01,	 2.7152060000000000e-01,	 1.1694741841870556e-02,	 1.7353144067063488e+03,	 3.2591062725092810e+00,	 3.0118599109154366e+02,	 1.0133403700512208e+03,	 3.4829430275290844e+02,	 4.9823309008015091e+00 
8.8051480000000004e-01,	 2.7172499999999999e-01,	 1.1693991826208901e-02,	 1.7353322076771235e+03,	 3.2226343472537202e+00,	 3.0115000168553956e+02,	 1.0131543031687968e+03,	 3.4827349288804089e+02,	 4.9826795189436917e+00 
8.8215679999999996e-01,	 2.7192939999999999e-01,	 1.1692910810459268e-02,	 1.7353488703314270e+03,	 3.1758293245182196e+00,	 3.0111844318714668e+02,	 1.0129544832253486e+03,	 3.4825524404798676e+02,	 4.9829882133881949e+00 
8.8375820000000005e-01,	 2.7212870000000000e-01,	 1.1691361604023750e-02,	 1.7353633086022228e+03,	 3.0994581440721847e+00,	 3.0109797060369777e+02,	 1.0127514156822078e+03,	 3.4824340517545204e+02,	 4.9831986786095230e+00 
8.8535969999999997e-01,	 2.7232800000000001e-01,	 1.1689576109850941e-02,	 1.7353807970965693e+03,	 3.0184216261323131e+00,	 3.0107174233182536e+02,	 1.0125085431511220e+03,	 3.4822823731894329e+02,	 4.9834655440066875e+00 
8.8692170000000004e-01,	 2.7252219999999999e-01,	 1.1687579866599287e-02,	 1.7354001282920344e+03,	 2.9622425389162457e+00,	 3.0104005949477039e+02,	 1.0122291041900777e+03,	 3.4820991419654172e+02,	 4.9837830163322785e+00 
8.8848369999999999e-01,	 2.7271649999999997e-01,	 1.1685308501909190e-02,	 1.7354207269414717e+03,	 2.8966798539699523e+00,	 3.0100596629108895e+02,	 1.0119177734801308e+03,	 3.4819019601071932e+02,	 4.9841240917217267e+00 
8.9000740000000000e-01,	 2.7290589999999998e-01,	 1.1682698064133726e-02,	 1.7354412202818364e+03,	 2.8177105327335608e+00,	 3.0097103901606664e+02,	 1.0115743244491426e+03,	 3.4816999427237499e+02,	 4.9844717703593862e+00 
8.9153110000000002e-01,	 2.7309539999999999e-01,	 1.1680105686521430e-02,	 1.7354620610392708e+03,	 2.7381561544744022e+00,	 3.0093554906051929e+02,	 1.0112306007107029e+03,	 3.4814946588209096e+02,	 4.9848251719363130e+00 
8.9301750000000002e-01,	 2.7327999999999997e-01,	 1.1677401263829571e-02,	 1.7354828035060709e+03,	 2.6522699479767162e+00,	 3.0090039066979296e+02,	 1.0108783444027401e+03,	 3.4812912808463994e+02,	 4.9851755862346021e+00 
8.9450390000000002e-01,	 2.7346470000000000e-01,	 1.1674529135137343e-02,	 1.7355032834022172e+03,	 2.5590728619369334e+00,	 3.0086506413610670e+02,	 1.0105110619453127e+03,	 3.4810869182610810e+02,	 4.9855266785427528e+00 
8.9595400000000003e-01,	 2.7364479999999997e-01,	 1.1671656893140214e-02,	 1.7355237552537017e+03,	 2.4692723530335083e+00,	 3.0083004587647531e+02,	 1.0101448632026136e+03,	 3.4808843271873218e+02,	 4.9858752797843975e+00 
8.9740410000000004e-01,	 2.7382489999999998e-01,	 1.1668710046213870e-02,	 1.7355437881333878e+03,	 2.3791920808319436e+00,	 3.0079542154327419e+02,	 1.0097735886800260e+03,	 3.4806840035019587e+02,	 4.9862194245705629e+00 
8.9881889999999998e-01,	 2.7400059999999998e-01,	 1.1665852130695821e-02,	 1.7355635774553657e+03,	 2.2899293746074942e+00,	 3.0076159834996838e+02,	 1.0094127566019656e+03,	 3.4804883037852369e+02,	 4.9865563008824392e+00 
9.0023379999999997e-01,	 2.7417619999999998e-01,	 1.1662865578579368e-02,	 1.7355825374309202e+03,	 2.2003455202551820e+00,	 3.0072853309540073e+02,	 1.0090433939728700e+03,	 3.4802969788361628e+02,	 4.9868845755607980e+00 
9.0161429999999998e-01,	 2.7434749999999997e-01,	 1.1660041556822228e-02,	 1.7356009294107896e+03,	 2.1125984940593181e+00,	 3.0069656524936477e+02,	 1.0086918296338381e+03,	 3.4801119938038170e+02,	 4.9872021884443942e+00 
9.0299479999999999e-01,	 2.7451880000000001e-01,	 1.1657274113734675e-02,	 1.7356190285976054e+03,	 2.0252566401804888e+00,	 3.0066550728905054e+02,	 1.0083482627537226e+03,	 3.4799322644956555e+02,	 4.9875114752069054e+00 
9.0434199999999998e-01,	 2.7468589999999998e-01,	 1.1654409460650050e-02,	 1.7356357993121580e+03,	 1.9390847346786364e+00,	 3.0063583739578826e+02,	 1.0080009916280321e+03,	 3.4797605591226625e+02,	 4.9878054912498397e+00 
9.0568919999999997e-01,	 2.7485290000000001e-01,	 1.1651860125242431e-02,	 1.7356523454045271e+03,	 1.8546123638815377e+00,	 3.0060720753420657e+02,	 1.0076845251982114e+03,	 3.4795948645801047e+02,	 4.9880902915879783e+00 
9.0700389999999997e-01,	 2.7501589999999998e-01,	 1.1649185771909142e-02,	 1.7356677687276026e+03,	 1.7711493907006748e+00,	 3.0058007142490612e+02,	 1.0073622960566946e+03,	 3.4794378078043474e+02,	 4.9883595232323268e+00 
9.0831870000000003e-01,	 2.7517890000000000e-01,	 1.1646766423293337e-02,	 1.7356824054061799e+03,	 1.6888474994445888e+00,	 3.0055428534936323e+02,	 1.0070666817467855e+03,	 3.4792885581051627e+02,	 4.9886153391928785e+00 
9.0960189999999996e-01,	 2.7533789999999997e-01,	 1.1644406139364119e-02,	 1.7356961443435407e+03,	 1.6073556739303141e+00,	 3.0053021590486856e+02,	 1.0067819608166012e+03,	 3.4791492384820214e+02,	 4.9888543710563624e+00 
9.1088510000000000e-01,	 2.7549679999999999e-01,	 1.1642161460564546e-02,	 1.7357087487050962e+03,	 1.5263059983907374e+00,	 3.0050768886474629e+02,	 1.0065124331471729e+03,	 3.4790188416049455e+02,	 4.9890773773086483e+00 
9.1213770000000005e-01,	 2.7565200000000001e-01,	 1.1640132095488618e-02,	 1.7357204753339809e+03,	 1.4464276416173472e+00,	 3.0048698876305502e+02,	 1.0062676659607823e+03,	 3.4788990155793516e+02,	 4.9892827306470942e+00 
9.1339029999999999e-01,	 2.7580709999999997e-01,	 1.1638245946103134e-02,	 1.7357313537290627e+03,	 1.3659445176300089e+00,	 3.0046791064876879e+02,	 1.0060407336353894e+03,	 3.4787885750461396e+02,	 4.9894722077934812e+00 
9.1461309999999996e-01,	 2.7595839999999999e-01,	 1.1636384358003448e-02,	 1.7357405401811350e+03,	 1.2854337124541535e+00,	 3.0045094838300332e+02,	 1.0058230282724107e+03,	 3.4786903799193419e+02,	 4.9896392797015245e+00 
9.1583590000000004e-01,	 2.7610980000000002e-01,	 1.1634914187499254e-02,	 1.7357488390849267e+03,	 1.2047679082140805e+00,	 3.0043587733427097e+02,	 1.0056455028780563e+03,	 3.4786031307859992e+02,	 4.9897881187787325e+00 
9.1702980000000001e-01,	 2.7625749999999999e-01,	 1.1633532615844988e-02,	 1.7357558782648189e+03,	 1.1229944830067615e+00,	 3.0042308162716074e+02,	 1.0054832630706635e+03,	 3.4785290523151497e+02,	 4.9899144593472800e+00 
9.1822360000000003e-01,	 2.7640519999999996e-01,	 1.1632399091582235e-02,	 1.7357616517639299e+03,	 1.0397188361254441e+00,	 3.0041239807653562e+02,	 1.0053495396632849e+03,	 3.4784672005901905e+02,	 4.9900196352705883e+00 
9.1938940000000002e-01,	 2.7654930000000000e-01,	 1.1631452468495427e-02,	 1.7357661010609133e+03,	 9.5520621867381794e-01,	 3.0040402166816449e+02,	 1.0052396962686341e+03,	 3.4784187051468029e+02,	 4.9901018566898401e+00 
9.2055509999999996e-01,	 2.7669349999999998e-01,	 1.1630683415477391e-02,	 1.7357689067975566e+03,	 8.6855518801436005e-01,	 3.0039802642558601e+02,	 1.0051531709208132e+03,	 3.4783839951121979e+02,	 4.9901595871624425e+00 
9.2169350000000005e-01,	 2.7683419999999997e-01,	 1.1630227461639794e-02,	 1.7357704087976917e+03,	 7.8058484841729481e-01,	 3.0039446011182690e+02,	 1.0051018335615069e+03,	 3.4783633474307419e+02,	 4.9901934068972285e+00 
9.2283199999999999e-01,	 2.7697489999999997e-01,	 1.1630031032545021e-02,	 1.7357706008615608e+03,	 6.8968570618353942e-01,	 3.0039341832961679e+02,	 1.0050813721804069e+03,	 3.4783573158611250e+02,	 4.9902025015236999e+00 
9.2394390000000004e-01,	 2.7711219999999998e-01,	 1.1630027102602823e-02,	 1.7357691888507929e+03,	 5.9644333369760072e-01,	 3.0039498960942899e+02,	 1.0050862898674110e+03,	 3.4783664130402730e+02,	 4.9901852916302705e+00 
9.2505579999999998e-01,	 2.7724959999999998e-01,	 1.1630237785248011e-02,	 1.7357658806459083e+03,	 5.0038853970571773e-01,	 3.0039931139008098e+02,	 1.0051189578435987e+03,	 3.4783914345671224e+02,	 4.9901397971565675e+00 