TITLE = "Final State"
VARIABLES = "X", "Y", "rho", "u", "v", "T", "p", "c", "M"
ZONE I=80, J=27, DATAPACKING=POINT, STRANDID=51000, SOLUTIONTIME=0.001230
9.5440280000000000e-01,	 2.5583319999999998e-01,	 2.7825628829742648e-02,	 1.5848851943841046e+03,	 4.2433302321622369e+02,	 4.6007607364493447e+02,	 3.6830242083045923e+03,	 4.3047091229545191e+02,	 3.8114237083381903e+00 
9.5517879999999999e-01,	 2.5604109999999997e-01,	 2.7826725961006184e-02,	 1.5848801438235496e+03,	 4.2427330177411687e+02,	 4.6008872159547343e+02,	 3.6832706795482550e+03,	 4.3047682929233611e+02,	 3.8113241081238698e+00 
9.5593890000000004e-01,	 2.5624479999999999e-01,	 2.7828000791799316e-02,	 1.5848807672113289e+03,	 4.2421918691171544e+02,	 4.6010772327789226e+02,	 3.6835915480832477e+03,	 4.3048571855560243e+02,	 3.8112143003651453e+00 
9.5669899999999997e-01,	 2.5644839999999997e-01,	 2.7829885303223612e-02,	 1.5848751008222566e+03,	 4.2417799723081447e+02,	 4.6012765022800335e+02,	 3.6840005454270308e+03,	 4.3049504047536766e+02,	 3.8110943192926450e+00 
9.5744370000000001e-01,	 2.5664799999999999e-01,	 2.7835396542008180e-02,	 1.5848586620045223e+03,	 4.2417444446762102e+02,	 4.6016061673557874e+02,	 3.6849940973084240e+03,	 4.3051046191745553e+02,	 3.8109187811490846e+00 
9.5818840000000005e-01,	 2.5684750000000001e-01,	 2.7836525636569298e-02,	 1.5848609513628016e+03,	 4.2412506522144179e+02,	 4.6017475974351123e+02,	 3.6852568353583119e+03,	 4.3051707772275603e+02,	 3.8108357027382871e+00 
9.5891830000000000e-01,	 2.5704299999999997e-01,	 2.7839842052398797e-02,	 1.5848525846787061e+03,	 4.2409887520765812e+02,	 4.6019938918744947e+02,	 3.6858931587515399e+03,	 4.3052859862229576e+02,	 3.8106992266790165e+00 
9.5964819999999995e-01,	 2.5723859999999998e-01,	 2.7846622476176981e-02,	 1.5848271671176681e+03,	 4.2411056059231498e+02,	 4.6024049499819949e+02,	 3.6871201726141621e+03,	 4.3054782597498689e+02,	 3.8104790361811669e+00 
9.6036370000000004e-01,	 2.5743030000000000e-01,	 2.7850535205251666e-02,	 1.5848132414140346e+03,	 4.2409328423437591e+02,	 4.6026974363528666e+02,	 3.6878726021337620e+03,	 4.3056150658021517e+02,	 3.8103163461292464e+00 
9.6107929999999997e-01,	 2.5762199999999996e-01,	 2.7854483914471435e-02,	 1.5847986952426736e+03,	 4.2407585880522618e+02,	 4.6029937846733446e+02,	 3.6886329569656327e+03,	 4.3057536737894492e+02,	 3.8101505905910003e+00 
9.6178100000000000e-01,	 2.5780999999999998e-01,	 2.7861524016296938e-02,	 1.5847676085759695e+03,	 4.2410144560277763e+02,	 4.6034457046182979e+02,	 3.6899274831136763e+03,	 4.3059650371212047e+02,	 3.8099091851564499e+00 
9.6248270000000002e-01,	 2.5799810000000001e-01,	 2.7868359410110115e-02,	 1.5847390179029335e+03,	 4.2410130593137819e+02,	 4.6038735605109969e+02,	 3.6911757850623571e+03,	 4.3061651361152332e+02,	 3.8096679245693612e+00 
9.6317120000000001e-01,	 2.5818249999999998e-01,	 2.7870784083530466e-02,	 1.5847277705834499e+03,	 4.2408439296243040e+02,	 4.6041226301209952e+02,	 3.6916966440890237e+03,	 4.3062816163303495e+02,	 3.8095294934524766e+00 
9.6385960000000004e-01,	 2.5836700000000001e-01,	 2.7877872142464427e-02,	 1.5846995764195394e+03,	 4.2409275118563551e+02,	 4.6045367695068796e+02,	 3.6929676626359201e+03,	 4.3064752863153848e+02,	 3.8092999456613312e+00 
9.6453520000000004e-01,	 2.5854800000000000e-01,	 2.7881790098717163e-02,	 1.5846823043346103e+03,	 4.2408337432498308e+02,	 4.6048407560561878e+02,	 3.6937305123296164e+03,	 4.3066174383951375e+02,	 3.8091298376207763e+00 
9.6521069999999998e-01,	 2.5872899999999999e-01,	 2.7886601211159465e-02,	 1.5846637698056022e+03,	 4.2407704807303878e+02,	 4.6051545278598081e+02,	 3.6946196126302229e+03,	 4.3067641613953833e+02,	 3.8089546977349094e+00 
9.6587400000000001e-01,	 2.5890669999999999e-01,	 2.7890589135035768e-02,	 1.5846476862223485e+03,	 4.2406853810103956e+02,	 4.6054407071667879e+02,	 3.6953775903041687e+03,	 4.3068979774951663e+02,	 3.8087951704831133e+00 
9.6653719999999999e-01,	 2.5908439999999999e-01,	 2.7895118739146175e-02,	 1.5846304199233546e+03,	 4.2406258600113722e+02,	 4.6057358125869439e+02,	 3.6962145717208068e+03,	 4.3070359630494505e+02,	 3.8086308487851270e+00 
9.6718859999999995e-01,	 2.5925890000000001e-01,	 2.7898483409134391e-02,	 1.5846166050931056e+03,	 4.2405281568597343e+02,	 4.6059922809635373e+02,	 3.6968662508353609e+03,	 4.3071558790834132e+02,	 3.8084879643167766e+00 
9.6783989999999998e-01,	 2.5943339999999998e-01,	 2.7903670837066748e-02,	 1.5845944659845436e+03,	 4.2406508708971387e+02,	 4.6063259306002817e+02,	 3.6978214880235300e+03,	 4.3073118774962268e+02,	 3.8083077451678333e+00 
9.6847989999999995e-01,	 2.5960489999999997e-01,	 2.7907969138081266e-02,	 1.5845774338238036e+03,	 4.2405991260072847e+02,	 4.6066030640320389e+02,	 3.6986136117860724e+03,	 4.3074414473732219e+02,	 3.8081518868141440e+00 
9.6911979999999998e-01,	 2.5977630000000002e-01,	 2.7909572957801804e-02,	 1.5845713875560032e+03,	 4.2403764070122736e+02,	 4.6067674172526057e+02,	 3.6989581301017643e+03,	 4.3075182865918509e+02,	 3.8080570297008127e+00 
9.6974879999999997e-01,	 2.5994479999999998e-01,	 2.7914647634065190e-02,	 1.5845471423989648e+03,	 4.2405874789487973e+02,	 4.6071039245528766e+02,	 3.6999009398926428e+03,	 4.3076756078486903e+02,	 3.8078762517381728e+00 
9.7037779999999996e-01,	 2.6011339999999999e-01,	 2.7921720532853522e-02,	 1.5845131766231602e+03,	 4.2409712113571760e+02,	 4.6075274526410601e+02,	 3.7011786212838138e+03,	 4.3078736042165860e+02,	 3.8076481005585645e+00 
9.7099619999999998e-01,	 2.6027909999999999e-01,	 2.7924215940345370e-02,	 1.5845006073393374e+03,	 4.2408916875042826e+02,	 4.6077326140419018e+02,	 3.7016742200972321e+03,	 4.3079695124400479e+02,	 3.8075303734858563e+00 
9.7161470000000005e-01,	 2.6044479999999998e-01,	 2.7926186964609131e-02,	 1.5844932387919794e+03,	 4.2407504365738703e+02,	 4.6078814726498433e+02,	 3.7020550975988799e+03,	 4.3080390990696492e+02,	 3.8074438717217927e+00 
9.7222310000000001e-01,	 2.6060780000000000e-01,	 2.7928798306564306e-02,	 1.5844828075773644e+03,	 4.2407026896690911e+02,	 4.6080570733571574e+02,	 3.7025423659950438e+03,	 4.3081211853288431e+02,	 3.8073450702043341e+00 
9.7283149999999996e-01,	 2.6077079999999997e-01,	 2.7931347444357685e-02,	 1.5844724815402521e+03,	 4.2406813511527810e+02,	 4.6082296275877462e+02,	 3.7030189659610933e+03,	 4.3082018459592871e+02,	 3.8072493529415010e+00 
9.7343020000000002e-01,	 2.6093119999999997e-01,	 2.7933159377807631e-02,	 1.5844650532020485e+03,	 4.2406195940821755e+02,	 4.6083673734546329e+02,	 3.7033698795181344e+03,	 4.3082662343048526e+02,	 3.8071720905595066e+00 
9.7402900000000003e-01,	 2.6109159999999998e-01,	 2.7936132052890188e-02,	 1.5844511556006005e+03,	 4.2407412765140589e+02,	 4.6085576911396231e+02,	 3.7039169550014094e+03,	 4.3083551953971704e+02,	 3.8070696196839959e+00 
9.7461850000000005e-01,	 2.6124959999999997e-01,	 2.7939731819418223e-02,	 1.5844341570386514e+03,	 4.2409198124365685e+02,	 4.6087805277057419e+02,	 3.7045733484274238e+03,	 4.3084593546088593e+02,	 3.8069501835089796e+00 
9.7520799999999996e-01,	 2.6140750000000001e-01,	 2.7939722693360827e-02,	 1.5844324511604104e+03,	 4.2407935859097597e+02,	 4.6088377662176504e+02,	 3.7046181471314849e+03,	 4.3084861088700904e+02,	 3.8069151439351385e+00 
9.7578869999999995e-01,	 2.6156309999999999e-01,	 2.7942103731616916e-02,	 1.5844209219799245e+03,	 4.2409019965822733e+02,	 4.6089842921254876e+02,	 3.7050516453445366e+03,	 4.3085545968331019e+02,	 3.8068352867640582e+00 
9.7636950000000000e-01,	 2.6171869999999997e-01,	 2.7944413035344728e-02,	 1.5844060620718228e+03,	 4.2411263072021529e+02,	 4.6091581452529499e+02,	 3.7054976210244222e+03,	 4.3086358564534942e+02,	 3.8067436363961988e+00 
9.7694179999999997e-01,	 2.6187210000000000e-01,	 2.7946328606974553e-02,	 1.5843945796989315e+03,	 4.2412695871545998e+02,	 4.6093003313704094e+02,	 3.7058659477980291e+03,	 4.3087023136524078e+02,	 3.8066677772162296e+00 
9.7751410000000005e-01,	 2.6202539999999996e-01,	 2.7944916533235550e-02,	 1.5844011049247774e+03,	 4.2410465546692149e+02,	 4.6092328356302892e+02,	 3.7056244339205873e+03,	 4.3086707665524835e+02,	 3.8066968931320742e+00 
9.7807849999999996e-01,	 2.6217659999999998e-01,	 2.7945416954589422e-02,	 1.5843990625225051e+03,	 4.2410582565727361e+02,	 4.6092518974120236e+02,	 3.7057061172181766e+03,	 4.3086796759371617e+02,	 3.8066851449909374e+00 
9.7864280000000003e-01,	 2.6232780000000000e-01,	 2.7946939411488906e-02,	 1.5843892499471428e+03,	 4.2412720923424490e+02,	 4.6093435329403030e+02,	 3.7059816791848061e+03,	 4.3087225056831511e+02,	 3.8066381393549888e+00 
9.7919959999999995e-01,	 2.6247700000000002e-01,	 2.7948047127375055e-02,	 1.5843808605831223e+03,	 4.2414669308116277e+02,	 4.6094090954737720e+02,	 3.7061812862872757e+03,	 4.3087531488492499e+02,	 3.8066039522628654e+00 
9.7975639999999997e-01,	 2.6262619999999998e-01,	 2.7946286272929149e-02,	 1.5843874753027003e+03,	 4.2414118145131727e+02,	 4.6093313298846908e+02,	 3.7058852567169993e+03,	 4.3087168020927402e+02,	 3.8066475852126831e+00 
9.8030600000000001e-01,	 2.6277339999999999e-01,	 2.7945319712786097e-02,	 1.5843898086956156e+03,	 4.2413691799317326e+02,	 4.6092819755067671e+02,	 3.7057174042945585e+03,	 4.3086937342558406e+02,	 3.8066706377580566e+00 
9.8085560000000005e-01,	 2.6292070000000001e-01,	 2.7946704143169868e-02,	 1.5843816992694483e+03,	 4.2416431658547441e+02,	 4.6093350796500494e+02,	 3.7059436842590217e+03,	 4.3087185546976798e+02,	 3.8066469726816434e+00 
9.8139829999999995e-01,	 2.6306609999999997e-01,	 2.7944434892240494e-02,	 1.5843901315316668e+03,	 4.2415557245107073e+02,	 4.6092128018697372e+02,	 3.7055444601079080e+03,	 4.3086614028497479e+02,	 3.8067111221393062e+00 
9.8194110000000001e-01,	 2.6321149999999999e-01,	 2.7941654030227893e-02,	 1.5844026714804918e+03,	 4.2414352864822217e+02,	 4.6090442782062689e+02,	 3.7050402366798548e+03,	 4.3085826347311263e+02,	 3.8068016011824524e+00 
9.8247750000000000e-01,	 2.6335520000000001e-01,	 2.7939931580925018e-02,	 1.5844090618829919e+03,	 4.2414718939052841e+02,	 4.6089302998697121e+02,	 3.7047202240041365e+03,	 4.3085293603332178e+02,	 3.8068651964159557e+00 
9.8301390000000000e-01,	 2.6349889999999998e-01,	 2.7938732279292139e-02,	 1.5844103654617304e+03,	 4.2416341386420618e+02,	 4.6088573520557492e+02,	 3.7045025676131722e+03,	 4.3084952635882655e+02,	 3.8069079840884208e+00 
9.8354419999999998e-01,	 2.6364100000000001e-01,	 2.7937973417770143e-02,	 1.5844102612735880e+03,	 4.2418571979841022e+02,	 4.6087986110997497e+02,	 3.7043547338212793e+03,	 4.3084678071150245e+02,	 3.8069453995425753e+00 
9.8407460000000002e-01,	 2.6378309999999999e-01,	 2.7935817639793879e-02,	 1.5844141613086272e+03,	 4.2419744055302169e+02,	 4.6086855722747748e+02,	 3.7039780459286849e+03,	 4.3084149704469718e+02,	 3.8070078661394948e+00 
9.8459929999999996e-01,	 2.6392369999999998e-01,	 2.7934510853648089e-02,	 1.5844140961191724e+03,	 4.2422121505285736e+02,	 4.6086137711922640e+02,	 3.7037470771718840e+03,	 4.3083814088100564e+02,	 3.8070516476805767e+00 
9.8512400000000000e-01,	 2.6406429999999997e-01,	 2.7932464884007815e-02,	 1.5844162512425919e+03,	 4.2424443064826175e+02,	 4.6085254815544522e+02,	 3.7034048591944688e+03,	 4.3083401396481287e+02,	 3.8071068840791913e+00 
9.8564339999999995e-01,	 2.6420349999999998e-01,	 2.7928739972315268e-02,	 1.5844300202646041e+03,	 4.2423697430902928e+02,	 4.6083099227921559e+02,	 3.7027377949472398e+03,	 4.3082393795100148e+02,	 3.8072223196364088e+00 
9.8616280000000001e-01,	 2.6434259999999998e-01,	 2.7924498842096745e-02,	 1.5844479210735271e+03,	 4.2422864571948321e+02,	 4.6080249861345465e+02,	 3.7019466047742008e+03,	 4.3081061859612191e+02,	 3.8073751649002636e+00 
9.8667729999999998e-01,	 2.6448050000000001e-01,	 2.7922900643104244e-02,	 1.5844536469334141e+03,	 4.2424542636345154e+02,	 4.6078746507112783e+02,	 3.7016139637970532e+03,	 4.3080359100565289e+02,	 3.8074601870449869e+00 
9.8719179999999995e-01,	 2.6461829999999997e-01,	 2.7918571188600666e-02,	 1.5844675530339712e+03,	 4.2424967003236918e+02,	 4.6076375979832687e+02,	 3.7008496268913782e+03,	 4.3079250948893485e+02,	 3.8075918581993031e+00 
9.8770179999999996e-01,	 2.6475499999999996e-01,	 2.7917723264402762e-02,	 1.5844692135019168e+03,	 4.2427677591266013e+02,	 4.6075180042711060e+02,	 3.7006411725329872e+03,	 4.3078691872700989e+02,	 3.8076612713815110e+00 
9.8821170000000003e-01,	 2.6489160000000000e-01,	 2.7912474637796982e-02,	 1.5844904833277878e+03,	 4.2426454882686221e+02,	 4.6071943722882997e+02,	 3.6996855553466030e+03,	 4.3077178922857024e+02,	 3.8078353575904580e+00 
9.8871750000000003e-01,	 2.6502710000000002e-01,	 2.7907735312468804e-02,	 1.5845106951200783e+03,	 4.2425828636843767e+02,	 4.6068790022479715e+02,	 3.6988041703859526e+03,	 4.3075704545714717e+02,	 3.8080072552394584e+00 
9.8922330000000003e-01,	 2.6516259999999997e-01,	 2.7904265175073890e-02,	 1.5845221299031937e+03,	 4.2427406214866323e+02,	 4.6066501864963635e+02,	 3.6981605588079246e+03,	 4.3074634784375479e+02,	 3.8081369432057892e+00 
9.8972519999999997e-01,	 2.6529710000000001e-01,	 2.7902014493190269e-02,	 1.5845284153987939e+03,	 4.2429977528008067e+02,	 4.6064698780402045e+02,	 3.6977175375937354e+03,	 4.3073791786037884e+02,	 3.8082410088098655e+00 
9.9022719999999997e-01,	 2.6543159999999999e-01,	 2.7896688309968679e-02,	 1.5845488121864873e+03,	 4.2429544684224766e+02,	 4.6061479382640766e+02,	 3.6967533055695972e+03,	 4.3072286576023555e+02,	 3.8084172359911252e+00 
9.9072559999999998e-01,	 2.6556510000000000e-01,	 2.7891837839483700e-02,	 1.5845669109278269e+03,	 4.2430064690611607e+02,	 4.6058478337831559e+02,	 3.6958697285706239e+03,	 4.3070883408243219e+02,	 3.8085850206717553e+00 
9.9122410000000005e-01,	 2.6569870000000001e-01,	 2.7889170468426278e-02,	 1.5845764536542974e+03,	 4.2431841948211138e+02,	 4.6056265849522458e+02,	 3.6953387629776862e+03,	 4.3069848908473955e+02,	 3.8087085754789860e+00 
9.9171949999999998e-01,	 2.6583140000000000e-01,	 2.7882896729795957e-02,	 1.5846004443074955e+03,	 4.2430788871459640e+02,	 4.6052669458333031e+02,	 3.6942189946333751e+03,	 4.3068167280076131e+02,	 3.8089047728586318e+00 
9.9221479999999995e-01,	 2.6596409999999998e-01,	 2.7879325574134389e-02,	 1.5846124865713682e+03,	 4.2432491162138695e+02,	 4.6050197949556321e+02,	 3.6935476181540330e+03,	 4.3067011594826567e+02,	 3.8090442173102592e+00 
9.9270740000000002e-01,	 2.6609610000000000e-01,	 2.7876451054122488e-02,	 1.5846203652919987e+03,	 4.2435198178254518e+02,	 4.6048121960613634e+02,	 3.6930003003428869e+03,	 4.3066040831925386e+02,	 3.8091640092717332e+00 
9.9319999999999997e-01,	 2.6622809999999997e-01,	 2.7871170075152552e-02,	 1.5846396333504936e+03,	 4.2435464701156980e+02,	 4.6044919939648088e+02,	 3.6920439405517750e+03,	 4.3064543477016019e+02,	 3.8093412743166510e+00 
9.9369019999999997e-01,	 2.6635939999999997e-01,	 2.7865817166979695e-02,	 1.5846591788879559e+03,	 4.2436403760831530e+02,	 4.6041669594186175e+02,	 3.6910742763032781e+03,	 4.3063023470965851e+02,	 3.8095252178357000e+00 
9.9418039999999996e-01,	 2.6649079999999997e-01,	 2.7862077377480560e-02,	 1.5846742001224879e+03,	 4.2436280724845818e+02,	 4.6038921010660590e+02,	 3.6903585888503289e+03,	 4.3061738069236708e+02,	 3.8096718895702453e+00 
9.9466849999999996e-01,	 2.6662150000000001e-01,	 2.7854263034986629e-02,	 1.5847065129063189e+03,	 4.2434443707616339e+02,	 4.6034319741481613e+02,	 3.6889548496018306e+03,	 4.3059586155217954e+02,	 3.8099237315309304e+00 
9.9515659999999995e-01,	 2.6675230000000000e-01,	 2.7851186764187165e-02,	 1.5847175140011836e+03,	 4.2436636426010159e+02,	 4.6031879327625074e+02,	 3.6883518946555755e+03,	 4.3058444782824171e+02,	 3.8100625752613335e+00 
9.9564299999999994e-01,	 2.6688259999999997e-01,	 2.7847209599108413e-02,	 1.5847263959207839e+03,	 4.2439976547096512e+02,	 4.6029719342395163e+02,	 3.6876521496041714e+03,	 4.3057434540605306e+02,	 3.8101919622961704e+00 
9.9612940000000005e-01,	 2.6701300000000000e-01,	 2.7844585995821007e-02,	 1.5847335807209038e+03,	 4.2442070788062932e+02,	 4.6027721743878669e+02,	 3.6871446986017754e+03,	 4.3056500226842445e+02,	 3.8103033440395553e+00 
9.9661440000000001e-01,	 2.6714290000000002e-01,	 2.7837576706708236e-02,	 1.5847628646475875e+03,	 4.2440160744468960e+02,	 4.6023331636683179e+02,	 3.6858649474638560e+03,	 4.3054446821288803e+02,	 3.8105392939047849e+00 
9.9709950000000003e-01,	 2.6727289999999998e-01,	 2.7832398109556962e-02,	 1.5847874594235172e+03,	 4.2438807885449540e+02,	 4.6019473091835243e+02,	 3.6848703082907264e+03,	 4.3052641965032336e+02,	 3.8107460938156059e+00 
9.9758349999999996e-01,	 2.6740249999999999e-01,	 2.7824613691593877e-02,	 1.5848188683605013e+03,	 4.2437451458422800e+02,	 4.6014923385450101e+02,	 3.6834754881807539e+03,	 4.3050513716831557e+02,	 3.8109968073503135e+00 
9.9806750000000000e-01,	 2.6753220000000000e-01,	 2.7822674463489447e-02,	 1.5848224447410894e+03,	 4.2441132990348086e+02,	 4.6012970356240930e+02,	 3.6830624411812810e+03,	 4.3049600102326303e+02,	 3.8111078317791738e+00 
9.9855079999999996e-01,	 2.6766170000000000e-01,	 2.7818506655582026e-02,	 1.5848293118918455e+03,	 4.2443838332062705e+02,	 4.6010381265732781e+02,	 3.6823035121006574e+03,	 4.3048388912545425e+02,	 3.8112467256595961e+00 
9.9903410000000004e-01,	 2.6779120000000001e-01,	 2.7815181600828253e-02,	 1.5848298162371375e+03,	 4.2446489882066811e+02,	 4.6007595385885946e+02,	 3.6816404455259549e+03,	 4.3047085625643217e+02,	 3.8113791813700679e+00 
9.9951699999999999e-01,	 2.6792060000000001e-01,	 2.7800403941613958e-02,	 1.5848484370377787e+03,	 4.2454320059571376e+02,	 4.6004676468210300e+02,	 3.6794510074838963e+03,	 4.3045720058815789e+02,	 3.8115889417884343e+00 
1.0000000000000000e+00,	 2.6805000000000001e-01,	 2.7779073038811504e-02,	 1.5849729630934485e+03,	 4.2376811140267182e+02,	 4.6013119585077112e+02,	 3.6773025724704808e+03,	 4.3049669911300407e+02,	 3.8110531931271465e+00 
9.5438000000000001e-01,	 2.5675739999999997e-01,	 2.7828571176892157e-02,	 1.5852544853671886e+03,	 4.2308071885513471e+02,	 4.5999110174479631e+02,	 3.6827333666362551e+03,	 4.3043115841285857e+02,	 3.8118532391801221e+00 
9.5515620000000001e-01,	 2.5696110000000000e-01,	 2.7832555999619330e-02,	 1.5852383355137144e+03,	 4.2307488315669087e+02,	 4.6001647624992177e+02,	 3.6834638836317627e+03,	 4.3044303019361223e+02,	 3.8117083605876902e+00 
9.5591640000000000e-01,	 2.5716069999999996e-01,	 2.7837378702694343e-02,	 1.5852277300654234e+03,	 4.2306679049580589e+02,	 4.6004349148541951e+02,	 3.6843184931254573e+03,	 4.3045566925080726e+02,	 3.8115677887244428e+00 
9.5667670000000005e-01,	 2.5736029999999999e-01,	 2.7840337224487862e-02,	 1.5852190333765534e+03,	 4.2303540168836793e+02,	 4.6006532742912771e+02,	 3.6848849524848702e+03,	 4.3046588490911313e+02,	 3.8114390123975630e+00 
9.5742159999999998e-01,	 2.5755580000000000e-01,	 2.7844566577852767e-02,	 1.5852038773673007e+03,	 4.2301927621080614e+02,	 4.6009407785507398e+02,	 3.6856750512660010e+03,	 4.3047933504702075e+02,	 3.8112762504119786e+00 
9.5816650000000003e-01,	 2.5775130000000002e-01,	 2.7848452614546111e-02,	 1.5851944215653134e+03,	 4.2299586630575152e+02,	 4.6011960347809264e+02,	 3.6863939371732317e+03,	 4.3049127619270394e+02,	 3.8111352886471224e+00 
9.5889659999999999e-01,	 2.5794299999999998e-01,	 2.7851100719866618e-02,	 1.5851878169021011e+03,	 4.2296193302127836e+02,	 4.6014096277821290e+02,	 3.6869156189085902e+03,	 4.3050126803568315e+02,	 3.8110116884427314e+00 
9.5962670000000005e-01,	 2.5813459999999999e-01,	 2.7855274671159024e-02,	 1.5851721699389277e+03,	 4.2294543010554401e+02,	 4.6016991822027336e+02,	 3.6877002071431180e+03,	 4.3051481297020882e+02,	 3.8108467872451643e+00 
9.6034240000000004e-01,	 2.5832250000000001e-01,	 2.7859799401718177e-02,	 1.5851559659782383e+03,	 4.2293462732515428e+02,	 4.6020049885752371e+02,	 3.6885443328279875e+03,	 4.3052911768471222e+02,	 3.8106773347620089e+00 
9.6105819999999997e-01,	 2.5851039999999997e-01,	 2.7863848227208630e-02,	 1.5851424490434138e+03,	 4.2291875045526996e+02,	 4.6022848530726185e+02,	 3.6893047300559601e+03,	 4.3054220849878442e+02,	 3.8105216291978259e+00 
9.6176010000000001e-01,	 2.5869460000000000e-01,	 2.7867888908790130e-02,	 1.5851229954716287e+03,	 4.2291260512378017e+02,	 4.6025965888707151e+02,	 3.6900896666483272e+03,	 4.3055678964169192e+02,	 3.8103452482379243e+00 
9.6246209999999999e-01,	 2.5887889999999997e-01,	 2.7874108368132432e-02,	 1.5850964543616856e+03,	 4.2291843689833297e+02,	 4.6029872183808720e+02,	 3.6912264616624034e+03,	 4.3057506026525607e+02,	 3.8101274973829500e+00 
9.6315070000000003e-01,	 2.5905970000000000e-01,	 2.7878211701914901e-02,	 1.5850782524328006e+03,	 4.2291973667371809e+02,	 4.6032976406385706e+02,	 3.6920188156858230e+03,	 4.3058957886182878e+02,	 3.8099589625620243e+00 
9.6383940000000001e-01,	 2.5924039999999998e-01,	 2.7883393730394029e-02,	 1.5850548069676804e+03,	 4.2292300045660801e+02,	 4.6036463338254100e+02,	 3.6929848087598748e+03,	 4.3060588682418648e+02,	 3.8097640180452936e+00 
9.6451520000000002e-01,	 2.5941779999999998e-01,	 2.7888030918544700e-02,	 1.5850335567293776e+03,	 4.2292795246671164e+02,	 4.6039716560588079e+02,	 3.6938599885801682e+03,	 4.3062110119817555e+02,	 3.8095846992520195e+00 
9.6519100000000002e-01,	 2.5959519999999997e-01,	 2.7892737972270185e-02,	 1.5850124573284234e+03,	 4.2293310828499546e+02,	 4.6042917412327409e+02,	 3.6947403072692809e+03,	 4.3063607012552228e+02,	 3.8094080249398989e+00 
9.6585449999999995e-01,	 2.5976929999999998e-01,	 2.7896854634639916e-02,	 1.5849932487459218e+03,	 4.2293614037493751e+02,	 4.6045860895198172e+02,	 3.6955218467689915e+03,	 4.3064983499652936e+02,	 3.8092449840854248e+00 
9.6651799999999999e-01,	 2.5994349999999999e-01,	 2.7901217258534894e-02,	 1.5849735528117096e+03,	 4.2294122223210763e+02,	 4.6048805213947827e+02,	 3.6963361079172187e+03,	 4.3066360333629103e+02,	 3.8090820568086254e+00 
9.6716959999999996e-01,	 2.6011449999999997e-01,	 2.7904909359384847e-02,	 1.5849567508426635e+03,	 4.2294340764337744e+02,	 4.6051401362968971e+02,	 3.6970336555420390e+03,	 4.3067574318583593e+02,	 3.8089383009702256e+00 
9.6782120000000005e-01,	 2.6028550000000000e-01,	 2.7908574260019543e-02,	 1.5849374337598970e+03,	 4.2295018128099849e+02,	 4.6054094256535495e+02,	 3.6977354221741784e+03,	 4.3068833506088981e+02,	 3.8087876602409954e+00 
9.6846140000000003e-01,	 2.6045360000000001e-01,	 2.7912973139673256e-02,	 1.5849160677279749e+03,	 4.2296251975615587e+02,	 4.6056981975553526e+02,	 3.6985501447580955e+03,	 4.3070183752381655e+02,	 3.8086277113480111e+00 
9.6910160000000001e-01,	 2.6062160000000001e-01,	 2.7916267796183381e-02,	 1.5849017881056434e+03,	 4.2296729218125444e+02,	 4.6059218384853978e+02,	 3.6991663096679690e+03,	 4.3071229428695199e+02,	 3.8085060706667355e+00 
9.6973080000000000e-01,	 2.6078669999999998e-01,	 2.7918816400655508e-02,	 1.5848864207342447e+03,	 4.2296897648533098e+02,	 4.6061296569817938e+02,	 3.6996709446343361e+03,	 4.3072201101412088e+02,	 3.8083866905638115e+00 
9.7036000000000000e-01,	 2.6095190000000001e-01,	 2.7923198394010883e-02,	 1.5848608019435264e+03,	 4.2299055587670153e+02,	 4.6064244112076580e+02,	 3.7004884114141901e+03,	 4.3073579211793106e+02,	 3.8082202968420380e+00 
9.7097880000000003e-01,	 2.6111429999999997e-01,	 2.7927424834843940e-02,	 1.5848377583431686e+03,	 4.2301534720128865e+02,	 4.6067067528679746e+02,	 3.7012753638598133e+03,	 4.3074899246427054e+02,	 3.8080667481811594e+00 
9.7159750000000000e-01,	 2.6127669999999997e-01,	 2.7930588789165229e-02,	 1.5848205685290081e+03,	 4.2303226380987127e+02,	 4.6069327164344088e+02,	 3.7018762606364735e+03,	 4.3075955666883675e+02,	 3.8079449287394702e+00 
9.7220620000000002e-01,	 2.6143640000000001e-01,	 2.7933212492682543e-02,	 1.5848058046771798e+03,	 4.2304441634822103e+02,	 4.6071241997566187e+02,	 3.7023778820274088e+03,	 4.3076850865695900e+02,	 3.8078399560897007e+00 
9.7281479999999998e-01,	 2.6159620000000000e-01,	 2.7935579174633029e-02,	 1.5847916179367480e+03,	 4.2305668741967463e+02,	 4.6073002508883576e+02,	 3.7028330615898462e+03,	 4.3077673901452079e+02,	 3.8077427321464246e+00 
9.7341390000000005e-01,	 2.6175339999999997e-01,	 2.7937845996122576e-02,	 1.5847795069293734e+03,	 4.2306852193009047e+02,	 4.6074505561732536e+02,	 3.7032543349027169e+03,	 4.3078376563411297e+02,	 3.8076605460376771e+00 
9.7401289999999996e-01,	 2.6191059999999999e-01,	 2.7939152722173705e-02,	 1.5847678464756339e+03,	 4.2307895003278844e+02,	 4.6075749310682914e+02,	 3.7035275172117053e+03,	 4.3078957994762612e+02,	 3.8075892464128080e+00 
9.7460270000000004e-01,	 2.6206540000000000e-01,	 2.7941493081174294e-02,	 1.5847511373976495e+03,	 4.2310230943142471e+02,	 4.6077482423262956e+02,	 3.7039770656575270e+03,	 4.3079768182150622e+02,	 3.8074941508910962e+00 
9.7519250000000002e-01,	 2.6222020000000001e-01,	 2.7942809056122148e-02,	 1.5847400175958483e+03,	 4.2311941756921283e+02,	 4.6078636870831582e+02,	 3.7042443193873141e+03,	 4.3080307849462207e+02,	 3.8074317600565681e+00 
9.7577349999999996e-01,	 2.6237270000000001e-01,	 2.7944146181918796e-02,	 1.5847289972421001e+03,	 4.2313691246991448e+02,	 4.6079658039308362e+02,	 3.7045036710265931e+03,	 4.3080785207426800e+02,	 3.8073753326823501e+00 
9.7635450000000001e-01,	 2.6252510000000001e-01,	 2.7945334950778385e-02,	 1.5847162168778077e+03,	 4.2315770339448989e+02,	 4.6080598828805029e+02,	 3.7047369004621978e+03,	 4.3081224986551547e+02,	 3.8073202548794560e+00 
9.7692710000000005e-01,	 2.6267540000000000e-01,	 2.7947081576699118e-02,	 1.5847003972885373e+03,	 4.2318923587397194e+02,	 4.6081926371997315e+02,	 3.7050751891676127e+03,	 4.3081845548962752e+02,	 3.8072488196860479e+00 
9.7749980000000003e-01,	 2.6282570000000000e-01,	 2.7947717589670559e-02,	 1.5846925031574547e+03,	 4.2321281369168531e+02,	 4.6082541442454112e+02,	 3.7052089623478983e+03,	 4.3082133061704593e+02,	 3.8072198290305796e+00 
9.7806439999999994e-01,	 2.6297389999999998e-01,	 2.7947579877469132e-02,	 1.5846877825608822e+03,	 4.2322754396680148e+02,	 4.6082647481193305e+02,	 3.7051992308240547e+03,	 4.3082182628984316e+02,	 3.8072136847053701e+00 
9.7862910000000003e-01,	 2.6312209999999997e-01,	 2.7947675027306405e-02,	 1.5846807848665169e+03,	 4.2324679485716484e+02,	 4.6082777399114400e+02,	 3.7052222913516071e+03,	 4.3082243358390764e+02,	 3.8072041554655134e+00 
9.7918609999999995e-01,	 2.6326820000000001e-01,	 2.7947978560045418e-02,	 1.5846707325744781e+03,	 4.2327444892846086e+02,	 4.6083093868845936e+02,	 3.7052879784377983e+03,	 4.3082391290040630e+02,	 3.8071851041418054e+00 
9.7974320000000004e-01,	 2.6341439999999999e-01,	 2.7948049939057428e-02,	 1.5846650386514932e+03,	 4.2330398238406235e+02,	 4.6083164550925460e+02,	 3.7053031248982516e+03,	 4.3082424329834441e+02,	 3.8071871065440548e+00 
9.8029310000000003e-01,	 2.6355869999999998e-01,	 2.7947186603261866e-02,	 1.5846632097467041e+03,	 4.2331947170964287e+02,	 4.6082662502583042e+02,	 3.7051482995619772e+03,	 4.3082189650653407e+02,	 3.8072130226479293e+00 
9.8084300000000002e-01,	 2.6370299999999997e-01,	 2.7946684620478217e-02,	 1.5846574176016732e+03,	 4.2334522085909595e+02,	 4.6082368528063165e+02,	 3.7050581125166727e+03,	 4.3082052233612717e+02,	 3.8072276030337164e+00 
9.8138610000000004e-01,	 2.6384560000000001e-01,	 2.7945939844611176e-02,	 1.5846541377899639e+03,	 4.2337253308579204e+02,	 4.6081942141194691e+02,	 3.7049250922317888e+03,	 4.3081852920248207e+02,	 3.8072542248307140e+00 
9.8192919999999995e-01,	 2.6398810000000000e-01,	 2.7944114523982405e-02,	 1.5846563432506218e+03,	 4.2339142375547078e+02,	 4.6080942436784585e+02,	 3.7046027312474366e+03,	 4.3081385607566199e+02,	 3.8073117870550437e+00 
9.8246590000000000e-01,	 2.6412890000000000e-01,	 2.7942042694452687e-02,	 1.5846600554462370e+03,	 4.2340637773797965e+02,	 4.6079666611295852e+02,	 3.7042255046715181e+03,	 4.3080789214487078e+02,	 3.8073817788633093e+00 
9.8300259999999995e-01,	 2.6426980000000000e-01,	 2.7939730034665329e-02,	 1.5846634628965926e+03,	 4.2342185837475040e+02,	 4.6078303889240317e+02,	 3.7038093829492095e+03,	 4.3080152191912964e+02,	 3.8074549958925430e+00 
9.8353330000000005e-01,	 2.6440900000000001e-01,	 2.7938045176909457e-02,	 1.5846637278527353e+03,	 4.2344587175974709e+02,	 4.6077186918084971e+02,	 3.7034962534595461e+03,	 4.3079630041845365e+02,	 3.8075161284233001e+00 
9.8406389999999999e-01,	 2.6454830000000001e-01,	 2.7935985815879482e-02,	 1.5846651128051099e+03,	 4.2346913702647623e+02,	 4.6075906970899973e+02,	 3.7031203930765846e+03,	 4.3079031697655779e+02,	 3.8075860610596042e+00 
9.8458889999999999e-01,	 2.6468599999999998e-01,	 2.7934171964116357e-02,	 1.5846654653882163e+03,	 4.2349562239770842e+02,	 4.6074649782885933e+02,	 3.7027789200508046e+03,	 4.3078443984734832e+02,	 3.8076546713307304e+00 
9.8511389999999999e-01,	 2.6482380000000000e-01,	 2.7932490268740902e-02,	 1.5846638340816180e+03,	 4.2352740787288008e+02,	 4.6073489213598515e+02,	 3.7024627417660022e+03,	 4.3077901432223734e+02,	 3.8077180201993754e+00 
9.8563369999999995e-01,	 2.6496019999999998e-01,	 2.7930774817284683e-02,	 1.5846657396068599e+03,	 4.2356004016682840e+02,	 4.6072303740786572e+02,	 3.7021400993190982e+03,	 4.3077347230552527e+02,	 3.8077908413372108e+00 
9.8615339999999996e-01,	 2.6509660000000002e-01,	 2.7926849461551502e-02,	 1.5846756039104107e+03,	 4.2357707165047714e+02,	 4.6070203654576108e+02,	 3.7014510765191376e+03,	 4.3076365434912890e+02,	 3.8079099610581930e+00 
9.8666820000000000e-01,	 2.6523170000000001e-01,	 2.7924071495754033e-02,	 1.5846816755071918e+03,	 4.2359802092945313e+02,	 4.6068386959659358e+02,	 3.7009369368111329e+03,	 4.3075516107371419e+02,	 3.8080112184315835e+00 