TITLE = "Final State"
VARIABLES = "X", "Y", "rho", "u", "v", "T", "p", "c", "M"
ZONE I=102, J=25, DATAPACKING=POINT, STRANDID=71000, SOLUTIONTIME=0.001713
1.0567210000000000e+00,	 2.8514950000000000e-01,	 5.2746092408544470e-02,	 1.5409599382381964e+03,	 -7.9004465692086754e+01,	 6.1386483061835327e+02,	 9.3152171082066670e+03,	 4.9723920437863597e+02,	 3.1031018086991837e+00 
1.0574120000000000e+00,	 2.8514249999999997e-01,	 5.2463611814196051e-02,	 1.5415857424690630e+03,	 -8.1944786455907376e+01,	 6.1254019098749154e+02,	 9.2453362941155210e+03,	 4.9670242621993026e+02,	 3.1080221476075609e+00 
1.0581080000000000e+00,	 2.8513539999999998e-01,	 5.2146911284889345e-02,	 1.5423916343016754e+03,	 -8.5181538315761756e+01,	 6.1106045581333979e+02,	 9.1673266620157010e+03,	 4.9610211257263182e+02,	 3.1137581585071978e+00 
1.0588070000000001e+00,	 2.8512830000000000e-01,	 5.1839144291407596e-02,	 1.5431730504770319e+03,	 -8.8367242676687482e+01,	 6.0961406738746234e+02,	 9.0916506965446060e+03,	 4.9551462448815033e+02,	 3.1193853926700594e+00 
1.0595110000000001e+00,	 2.8512119999999996e-01,	 5.1536286139933177e-02,	 1.5439339778007711e+03,	 -9.1530863612670288e+01,	 6.0818625337058711e+02,	 9.0173651408392489e+03,	 4.9493399690638870e+02,	 3.1249515570231083e+00 
1.0602190000000000e+00,	 2.8511399999999998e-01,	 5.1236919126633099e-02,	 1.5446737689094314e+03,	 -9.4671877200734144e+01,	 6.0677803945376365e+02,	 8.9442267271438413e+03,	 4.9436067183153875e+02,	 3.1304517557501641e+00 
1.0609310000000001e+00,	 2.8510679999999999e-01,	 5.0943609356397954e-02,	 1.5453973749405131e+03,	 -9.7787771017683482e+01,	 6.0538640401415705e+02,	 8.8726287924168810e+03,	 4.9379344238273359e+02,	 3.1359025839377090e+00 
1.0616479999999999e+00,	 2.8509950000000001e-01,	 5.0653532098284187e-02,	 1.5461017253572086e+03,	 -1.0087616519943523e+02,	 6.0401471740251168e+02,	 8.8021181258161741e+03,	 4.9323370569331934e+02,	 3.1412879332159060e+00 
1.0623680000000000e+00,	 2.8509219999999996e-01,	 5.0370109886340830e-02,	 1.5467896649590939e+03,	 -1.0392986662830404e+02,	 6.0266363272590502e+02,	 8.7332887767383872e+03,	 4.9268175426081018e+02,	 3.1466099149546021e+00 
1.0630940000000000e+00,	 2.8508489999999997e-01,	 5.0092306388902615e-02,	 1.5474602399231601e+03,	 -1.0694786682277167e+02,	 6.0133340867180846e+02,	 8.6659523882518497e+03,	 4.9213772013592404e+02,	 3.1518647266727968e+00 
1.0638230000000000e+00,	 2.8507749999999998e-01,	 4.9819093862131056e-02,	 1.5481068311679330e+03,	 -1.0991659975585205e+02,	 6.0003507868849101e+02,	 8.6000782339709149e+03,	 4.9160614945292468e+02,	 3.1570068903434310e+00 
1.0645570000000000e+00,	 2.8506999999999999e-01,	 4.9552910593693322e-02,	 1.5487311961738494e+03,	 -1.1283483976744651e+02,	 5.9876878098976499e+02,	 8.5360756428731565e+03,	 4.9108713936330611e+02,	 3.1620378475747692e+00 
1.0652960000000000e+00,	 2.8506250000000000e-01,	 4.9295846934932358e-02,	 1.5493329687079420e+03,	 -1.1569085438877771e+02,	 5.9753817100791423e+02,	 8.4743407607306108e+03,	 4.9058223030014756e+02,	 3.1669438214154932e+00 
1.0660390000000000e+00,	 2.8505500000000000e-01,	 4.9047165771456791e-02,	 1.5499070857742727e+03,	 -1.1847189444054045e+02,	 5.9635143740168417e+02,	 8.4148450676938573e+03,	 4.9009483066772549e+02,	 3.1716889771799535e+00 
1.0667869999999999e+00,	 2.8504740000000001e-01,	 4.8807398168099606e-02,	 1.5504496759497192e+03,	 -1.2116781279901480e+02,	 5.9521592255643907e+02,	 8.3577645976219646e+03,	 4.8962801270894437e+02,	 3.1762421009350699e+00 
1.0675390000000000e+00,	 2.8503980000000001e-01,	 4.8580302733611143e-02,	 1.5509592913273775e+03,	 -1.2375777367415429e+02,	 5.9413993917970549e+02,	 8.3038386466504380e+03,	 4.8918525749284828e+02,	 3.1805722225062221e+00 
1.0682959999999999e+00,	 2.8503210000000001e-01,	 4.8365262795454556e-02,	 1.5514294243620343e+03,	 -1.2622562078131276e+02,	 5.9313482094063215e+02,	 8.2530962516243562e+03,	 4.8877130017552338e+02,	 3.1846302475781512e+00 
1.0690580000000001e+00,	 2.8502440000000001e-01,	 4.8166826152892209e-02,	 1.5518572505711943e+03,	 -1.2854345821931912e+02,	 5.9221201593018861e+02,	 8.2064472600943263e+03,	 4.8839093456656519e+02,	 3.1883718480833929e+00 
1.0698250000000000e+00,	 2.8501660000000001e-01,	 4.7985262917120963e-02,	 1.5522336426378015e+03,	 -1.3068366823240081e+02,	 5.9138879859287795e+02,	 8.1641487802616530e+03,	 4.8805136723986203e+02,	 3.1917236780291907e+00 
1.0705970000000000e+00,	 2.8500880000000001e-01,	 4.7826000449944707e-02,	 1.5525535949083760e+03,	 -1.3261107451604857e+02,	 5.9068114490896164e+02,	 8.1273153091240556e+03,	 4.8775927959111459e+02,	 3.1946225175478857e+00 
1.0713729999999999e+00,	 2.8500090000000000e-01,	 4.7690456404378870e-02,	 1.5528046019929100e+03,	 -1.3428353917682816e+02,	 5.9011415377513390e+02,	 8.0965023714219697e+03,	 4.8752512484694847e+02,	 3.1969635980478164e+00 
1.0721550000000000e+00,	 2.8499300000000000e-01,	 4.7587425726967669e-02,	 1.5529760374302396e+03,	 -1.3563232777841813e+02,	 5.8972014277771075e+02,	 8.0736164082973628e+03,	 4.8736234080407547e+02,	 3.1986214734945260e+00 
1.0729420000000001e+00,	 2.8498499999999999e-01,	 4.7517241938405209e-02,	 1.5530449135745430e+03,	 -1.3662374884628065e+02,	 5.8952179660968545e+02,	 8.0589976533437657e+03,	 4.8728037431244746e+02,	 3.1994779890361724e+00 
1.0737340000000000e+00,	 2.8497689999999998e-01,	 4.7487744888468450e-02,	 1.5530293361580038e+03,	 -1.3719455350056614e+02,	 5.8954721401663232e+02,	 8.0543421584745520e+03,	 4.8729087881808675e+02,	 3.1994800394403136e+00 
1.0745309999999999e+00,	 2.8496889999999997e-01,	 4.7507772866277997e-02,	 1.5528860815956555e+03,	 -1.3727279615954353e+02,	 5.8983325953677468e+02,	 8.0616486578052363e+03,	 4.8740908009709841e+02,	 3.1984254967134129e+00 
1.0753330000000001e+00,	 2.8496070000000001e-01,	 4.7577730522008123e-02,	 1.5526008801979906e+03,	 -1.3679582777225608e+02,	 5.9041882834729870e+02,	 8.0815350018519484e+03,	 4.8765096265355419e+02,	 3.1961704587252240e+00 
1.0761410000000000e+00,	 2.8495250000000000e-01,	 4.7700608045729426e-02,	 1.5522084181395080e+03,	 -1.3621583754008248e+02,	 5.9116587762240317e+02,	 8.1126588010113128e+03,	 4.8795937434176773e+02,	 3.1932450236827328e+00 
1.0769530000000000e+00,	 2.8494429999999998e-01,	 4.7830251036654163e-02,	 1.5517153999086599e+03,	 -1.3486492250721230e+02,	 5.9207110838532378e+02,	 8.1471641541314575e+03,	 4.8833282863516024e+02,	 3.1895565264213133e+00 
1.0777720000000000e+00,	 2.8493599999999997e-01,	 4.8083060382785876e-02,	 1.5509126293868794e+03,	 -1.3217085909337351e+02,	 5.9370911624179826e+02,	 8.2128852834526024e+03,	 4.8900786624631496e+02,	 3.1830455853254214e+00 
1.0785950000000000e+00,	 2.8492760000000000e-01,	 4.8457115646983767e-02,	 1.5498913595983349e+03,	 -1.2866812806597594e+02,	 5.9594397455574438e+02,	 8.3079319437303984e+03,	 4.8992737105869980e+02,	 3.1743950939557921e+00 
1.0794250000000001e+00,	 2.8491919999999998e-01,	 4.8880294926904183e-02,	 1.5487461243158468e+03,	 -1.2475956181452921e+02,	 5.9840243512027541e+02,	 8.4150578760656226e+03,	 4.9093688497669984e+02,	 3.1648936192135158e+00 
1.0802590000000001e+00,	 2.8491079999999996e-01,	 4.9357998703370487e-02,	 1.5474620289136190e+03,	 -1.2041887249268204e+02,	 6.0102216742273913e+02,	 8.5344977853079490e+03,	 4.9201034206101480e+02,	 3.1546903451358728e+00 
1.0810999999999999e+00,	 2.8490219999999999e-01,	 4.9885037115211778e-02,	 1.5460571881283354e+03,	 -1.1566072914279825e+02,	 6.0381379346176573e+02,	 8.6656923561019212e+03,	 4.9315166240868012e+02,	 3.1438147061298594e+00 
1.0819460000000001e+00,	 2.8489369999999997e-01,	 5.0454766387632827e-02,	 1.5445703571489603e+03,	 -1.1061156483252861e+02,	 6.0671505992613447e+02,	 8.8067752312251196e+03,	 4.9433501548976380e+02,	 3.1325434483075467e+00 
1.0827979999999999e+00,	 2.8488500000000000e-01,	 5.1048057525750624e-02,	 1.5430232259252384e+03,	 -1.0541684726164085e+02,	 6.0967182806396249e+02,	 8.9537566338733650e+03,	 4.9553809883325346e+02,	 3.1210919840272195e+00 
1.0836560000000000e+00,	 2.8487629999999997e-01,	 5.1656528325631404e-02,	 1.5414626191515272e+03,	 -1.0023100884217425e+02,	 6.1260260721047439e+02,	 9.1040365689441569e+03,	 4.9672773190609149e+02,	 3.1097878353817223e+00 
1.0845190000000000e+00,	 2.8486760000000000e-01,	 5.2261279393787732e-02,	 1.5399190354043253e+03,	 -9.5183454477346316e+01,	 6.1544453943470762e+02,	 9.2533480457129281e+03,	 4.9787858655325766e+02,	 3.0988637593586410e+00 
1.0853889999999999e+00,	 2.8485869999999996e-01,	 5.2848198902541610e-02,	 1.5384215368843616e+03,	 -9.0384961177267314e+01,	 6.1814789760653491e+02,	 9.3983697033911285e+03,	 4.9897086154463773e+02,	 3.0885057741815394e+00 
1.0862639999999999e+00,	 2.8484989999999999e-01,	 5.3410319555420069e-02,	 1.5370033978339936e+03,	 -8.5928848545601198e+01,	 6.2066295224632472e+02,	 9.5369814234279584e+03,	 4.9998491100178893e+02,	 3.0788999645015109e+00 
1.0871459999999999e+00,	 2.8484090000000001e-01,	 5.3932502215192218e-02,	 1.5356735817566116e+03,	 -8.1867387381039748e+01,	 6.2297543646337624e+02,	 9.6661032649961198e+03,	 5.0091547424486095e+02,	 3.0700872792894760e+00 
1.0880330000000000e+00,	 2.8483189999999997e-01,	 5.4414675708064096e-02,	 1.5344523971162589e+03,	 -7.8233339225426988e+01,	 6.2506589247848081e+02,	 9.7852468159543769e+03,	 5.0175520622196075e+02,	 3.0621415161229772e+00 
1.0889270000000000e+00,	 2.8482279999999999e-01,	 5.4850703775610687e-02,	 1.5333406612920705e+03,	 -7.5029769954123751e+01,	 6.2693850005129184e+02,	 9.8932066843492685e+03,	 5.0250623738741194e+02,	 3.0550372042101337e+00 
1.0898270000000001e+00,	 2.8481370000000000e-01,	 5.5241751053814854e-02,	 1.5323425134464626e+03,	 -7.2248609025986866e+01,	 6.2859629252108903e+02,	 9.9900851303419713e+03,	 5.0317017897095673e+02,	 3.0487593688564671e+00 
1.0907330000000000e+00,	 2.8480450000000002e-01,	 5.5587839324170107e-02,	 1.5314509045042064e+03,	 -6.9861018270917810e+01,	 6.3005765106397303e+02,	 1.0076043198392757e+04,	 5.0375472359969086e+02,	 3.0432340350678952e+00 
1.0916459999999999e+00,	 2.8479529999999997e-01,	 5.5893793029430629e-02,	 1.5306608472367266e+03,	 -6.7830872367733264e+01,	 6.3133895822115005e+02,	 1.0152105194437912e+04,	 5.0426669000879139e+02,	 3.0383983216667447e+00 
1.0925650000000000e+00,	 2.8478589999999998e-01,	 5.6159909552322071e-02,	 1.5299596972452696e+03,	 -6.6124185346699932e+01,	 6.3246271351951532e+02,	 1.0218596819630346e+04,	 5.0471527663454299e+02,	 3.0341620921424224e+00 
1.0934910000000000e+00,	 2.8477659999999999e-01,	 5.6396677900988915e-02,	 1.5293456353016620e+03,	 -6.4697734606838367e+01,	 6.3344244712358045e+02,	 1.0277574222969844e+04,	 5.0510604683740553e+02,	 3.0304794922086811e+00 
1.0944229999999999e+00,	 2.8476710000000000e-01,	 5.6600237109968705e-02,	 1.5287978502854696e+03,	 -6.3514113000727249e+01,	 6.3430610010152998e+02,	 1.0328733596028860e+04,	 5.0545026733495388e+02,	 3.0272347875932755e+00 
1.0953619999999999e+00,	 2.8475760000000000e-01,	 5.6782187029549611e-02,	 1.5283154297551750e+03,	 -6.2535482172769925e+01,	 6.3506520174889170e+02,	 1.0374337433205445e+04,	 5.0575262404026495e+02,	 3.0243922280840358e+00 
1.0963069999999999e+00,	 2.8474800000000000e-01,	 5.6941317727134025e-02,	 1.5278833884792793e+03,	 -6.1726976622533257e+01,	 6.3574056920379780e+02,	 1.0414474889819176e+04,	 5.0602147682772886e+02,	 3.0218673414204300e+00 
1.0972599999999999e+00,	 2.8473830000000000e-01,	 5.7083400192697836e-02,	 1.5274959657294453e+03,	 -6.1058967144116629e+01,	 6.3634487065306030e+02,	 1.0450385694902774e+04,	 5.0626191836495775e+02,	 3.0196145229006697e+00 
1.0982190000000001e+00,	 2.8472860000000000e-01,	 5.7211664574701865e-02,	 1.5271480153561613e+03,	 -6.0505925781180459e+01,	 6.3688747096672296e+02,	 1.0482798228405318e+04,	 5.0647771278381867e+02,	 3.0175980808539578e+00 
1.0991850000000001e+00,	 2.8471879999999999e-01,	 5.7326193449267329e-02,	 1.5268299939935059e+03,	 -6.0042417306759276e+01,	 6.3738195076776401e+02,	 1.0511938307100474e+04,	 5.0667428943032451e+02,	 3.0157640725802333e+00 
1.1001580000000000e+00,	 2.8470889999999999e-01,	 5.7430573484948108e-02,	 1.5265393837079987e+03,	 -5.9649774713027199e+01,	 6.3783455303100573e+02,	 1.0538556611460215e+04,	 5.0685415115543111e+02,	 3.0140906373785414e+00 
1.1011380000000000e+00,	 2.8469899999999998e-01,	 5.7527259214880576e-02,	 1.5262749861543946e+03,	 -5.9309896630132606e+01,	 6.3824876138418517e+02,	 1.0563153757976777e+04,	 5.0701869942986269e+02,	 3.0125652606687705e+00 
1.1021250000000000e+00,	 2.8468899999999997e-01,	 5.7614687579033569e-02,	 1.5260310222520113e+03,	 -5.9006801419290184e+01,	 6.3863152748099662e+02,	 1.0585551840269314e+04,	 5.0717070950222052e+02,	 3.0111585131000305e+00 
1.1031190000000000e+00,	 2.8467890000000001e-01,	 5.7694813729233047e-02,	 1.5258073718971145e+03,	 -5.8726147807892474e+01,	 6.3898497203553825e+02,	 1.0606140045872984e+04,	 5.0731103449610333e+02,	 3.0098637574190596e+00 
1.1041200000000000e+00,	 2.8466870000000000e-01,	 5.7768159368197625e-02,	 1.5256039912062784e+03,	 -5.8456122023518454e+01,	 6.3930996800796504e+02,	 1.0625024581863179e+04,	 5.0744003055333366e+02,	 3.0086776990192683e+00 
1.1051290000000000e+00,	 2.8465849999999998e-01,	 5.7835998550283756e-02,	 1.5254235306610171e+03,	 -5.8184472821669317e+01,	 6.3960400652146609e+02,	 1.0642394439637299e+04,	 5.0755671085511312e+02,	 3.0076103113231505e+00 
1.1061449999999999e+00,	 2.8464819999999996e-01,	 5.7895152769803310e-02,	 1.5252625631664791e+03,	 -5.7899409774427816e+01,	 6.3986999389537118e+02,	 1.0657709700025913e+04,	 5.0766223680744082e+02,	 3.0066469319549589e+00 
1.1071690000000001e+00,	 2.8463780000000000e-01,	 5.7947737007188624e-02,	 1.5251252544644785e+03,	 -5.7591738778663654e+01,	 6.4010428899041744e+02,	 1.0671295718880110e+04,	 5.0775517122155350e+02,	 3.0058034707318932e+00 
1.1082000000000001e+00,	 2.8462739999999997e-01,	 5.7993331899224454e-02,	 1.5250142793361665e+03,	 -5.7249778519011031e+01,	 6.4030355487298266e+02,	 1.0683016803138033e+04,	 5.0783419772632016e+02,	 3.0050920164730579e+00 
1.1092379999999999e+00,	 2.8461680000000000e-01,	 5.8028240918506564e-02,	 1.5249262617748714e+03,	 -5.6865022045221615e+01,	 6.4047021758498261e+02,	 1.0692229757335370e+04,	 5.0790028475428676e+02,	 3.0044994998231580e+00 
1.1102850000000000e+00,	 2.8460619999999998e-01,	 5.8056993118520181e-02,	 1.5248705493496063e+03,	 -5.6428389273783026e+01,	 6.4059536121312317e+02,	 1.0699617836865473e+04,	 5.0794990250238953e+02,	 3.0040644976444071e+00 
1.1113390000000001e+00,	 2.8459550000000000e-01,	 5.8074638673697151e-02,	 1.5248450778344509e+03,	 -5.5932475681815177e+01,	 6.4067932978556223e+02,	 1.0704272746784949e+04,	 5.0798319218349587e+02,	 3.0037815804464296e+00 
1.1124000000000001e+00,	 2.8458479999999997e-01,	 5.8082419131522567e-02,	 1.5248549801428480e+03,	 -5.5360130811552423e+01,	 6.4071443926117854e+02,	 1.0706293511673299e+04,	 5.0799711083073129e+02,	 3.0036776713439659e+00 
1.1134700000000000e+00,	 2.8457389999999999e-01,	 5.8078303344663046e-02,	 1.5248930731383653e+03,	 -5.4719737843462639e+01,	 6.4070972223997035e+02,	 1.0705456035921936e+04,	 5.0799524085761300e+02,	 3.0037181938207249e+00 
1.1145480000000001e+00,	 2.8456300000000001e-01,	 5.8065086490580724e-02,	 1.5249724157860874e+03,	 -5.4003179387611794e+01,	 6.4065038618645758e+02,	 1.0702028594545800e+04,	 5.0797171762263343e+02,	 3.0039631316299884e+00 
1.1156340000000000e+00,	 2.8455199999999997e-01,	 5.8037940757187177e-02,	 1.5250892334889636e+03,	 -5.3200717997030836e+01,	 6.4053747537294441e+02,	 1.0695140052896064e+04,	 5.0792695215578971e+02,	 3.0044022337999974e+00 
1.1167270000000000e+00,	 2.8454089999999999e-01,	 5.8000433645723042e-02,	 1.5252408809095091e+03,	 -5.2290455900539797e+01,	 6.4037935180982981e+02,	 1.0685589797556808e+04,	 5.0786425467137570e+02,	 3.0050096087113851e+00 
1.1178300000000001e+00,	 2.8452970000000000e-01,	 5.7951210649688278e-02,	 1.5254305260836818e+03,	 -5.1279756458402574e+01,	 6.4016892508980652e+02,	 1.0673013028163943e+04,	 5.0778080648585029e+02,	 3.0058091763599424e+00 
1.1189400000000000e+00,	 2.8451840000000000e-01,	 5.7888763161529931e-02,	 1.5256601875077658e+03,	 -5.0175841832369436e+01,	 6.3990063269481584e+02,	 1.0657043725303889e+04,	 5.0767439081951954e+02,	 3.0068191000167319e+00 
1.1200580000000000e+00,	 2.8450710000000001e-01,	 5.7814577282639543e-02,	 1.5259313300719209e+03,	 -4.8971294446770912e+01,	 6.3957390406798027e+02,	 1.0637952024703271e+04,	 5.0754476683826960e+02,	 3.0080438982608713e+00 
1.1211860000000000e+00,	 2.8449560000000002e-01,	 5.7725798553587358e-02,	 1.5262376735097696e+03,	 -4.7664032172810437e+01,	 6.3919504388513417e+02,	 1.0615324774251872e+04,	 5.0739441909381850e+02,	 3.0094571456533981e+00 
1.1223209999999999e+00,	 2.8448409999999996e-01,	 5.7627036708541982e-02,	 1.5265846434007694e+03,	 -4.6254002785817619e+01,	 6.3875953926382306e+02,	 1.0589943044023144e+04,	 5.0722153738246629e+02,	 3.0110811456705635e+00 
1.1234649999999999e+00,	 2.8447249999999996e-01,	 5.7515272011500994e-02,	 1.5269664373334299e+03,	 -4.4739765043197352e+01,	 6.3827205806496704e+02,	 1.0561338152738099e+04,	 5.0702795267540091e+02,	 3.0128944983647528e+00 
1.1246179999999999e+00,	 2.8446080000000001e-01,	 5.7392092307771397e-02,	 1.5273822230500687e+03,	 -4.3123566213642533e+01,	 6.3773440725768273e+02,	 1.0529841744698577e+04,	 5.0681435925856573e+02,	 3.0148926161599170e+00 
1.1257800000000000e+00,	 2.8444900000000001e-01,	 5.7258196839042957e-02,	 1.5278313012902581e+03,	 -4.1408490955919568e+01,	 6.3714685535002650e+02,	 1.0495597046706618e+04,	 5.0658083856500332e+02,	 3.0170749162700337e+00 
1.1269499999999999e+00,	 2.8443720000000000e-01,	 5.7114571848948185e-02,	 1.5283128760232935e+03,	 -3.9596170877061631e+01,	 6.3651060830879203e+02,	 1.0458815675810072e+04,	 5.0632784268107179e+02,	 3.0194383918920433e+00 
1.1281289999999999e+00,	 2.8442519999999999e-01,	 5.6959181966109079e-02,	 1.5288201187541272e+03,	 -3.7690362344177274e+01,	 6.3583227777452714e+02,	 1.0419245038598603e+04,	 5.0605797350198372e+02,	 3.0219554338569963e+00 
1.1293169999999999e+00,	 2.8441319999999998e-01,	 5.6796848226230691e-02,	 1.5293572212991410e+03,	 -3.5695470357681231e+01,	 6.3510914368820954e+02,	 1.0377734108502556e+04,	 5.0577012095761813e+02,	 3.0246423632301020e+00 
1.1305149999999999e+00,	 2.8440100000000001e-01,	 5.6623659418214276e-02,	 1.5299162120030551e+03,	 -3.3614688060468353e+01,	 6.3434809033305100e+02,	 1.0333691863783381e+04,	 5.0546699713032098e+02,	 3.0274685788888180e+00 
1.1317210000000000e+00,	 2.8438880000000000e-01,	 5.6444380414875962e-02,	 1.5305004909229103e+03,	 -3.1452946974896008e+01,	 6.3354725001023940e+02,	 1.0287969257088815e+04,	 5.0514782994067991e+02,	 3.0304468455407640e+00 
1.1329370000000001e+00,	 2.8437639999999997e-01,	 5.6255582336291313e-02,	 1.5311017345265902e+03,	 -2.9214787013974629e+01,	 6.3271462480014407e+02,	 1.0240082019075673e+04,	 5.0481578122644413e+02,	 3.0335431026760129e+00 
1.1341619999999999e+00,	 2.8436400000000001e-01,	 5.6062090539718765e-02,	 1.5317249614137324e+03,	 -2.6905364181334505e+01,	 6.3184613253961015e+02,	 1.0190853479035333e+04,	 5.0446919594391710e+02,	 3.0367785729455345e+00 
1.1353960000000001e+00,	 2.8435149999999998e-01,	 5.5861061773273310e-02,	 1.5323627837515655e+03,	 -2.4528624810498147e+01,	 6.3094880958467161e+02,	 1.0139890124504942e+04,	 5.0411085504639669e+02,	 3.0401231622669260e+00 
1.1366400000000001e+00,	 2.8433890000000001e-01,	 5.5654739784848570e-02,	 1.5330149911884287e+03,	 -2.2089836312367851e+01,	 6.3002397767408911e+02,	 1.0087630644723698e+04,	 5.0374126185072282e+02,	 3.0435746478494790e+00 
1.1378940000000000e+00,	 2.8432619999999997e-01,	 5.5443485693319541e-02,	 1.5336803975770936e+03,	 -1.9593975451656934e+01,	 6.2907290022760708e+02,	 1.0034169671025351e+04,	 5.0336089704199918e+02,	 3.0471289401316697e+00 
1.1391570000000000e+00,	 2.8431339999999999e-01,	 5.5227114040981837e-02,	 1.5343563021520358e+03,	 -1.7043333054068725e+01,	 6.2809872264286366e+02,	 9.9795325008500186e+03,	 5.0297099557511456e+02,	 3.0507742389828185e+00 
1.1404300000000001e+00,	 2.8430040000000001e-01,	 5.5005706435797823e-02,	 1.5350398013551262e+03,	 -1.4443793651055604e+01,	 6.2710481826748685e+02,	 9.9237958564889559e+03,	 5.0257288698611154e+02,	 3.0544977520109207e+00 
1.1417130000000000e+00,	 2.8428739999999997e-01,	 5.4782562621763287e-02,	 1.5357335659143350e+03,	 -1.1802370587733062e+01,	 6.2608901341746559e+02,	 9.8675279265330100e+03,	 5.0216568003566886e+02,	 3.0583111867312702e+00 
1.1430050000000000e+00,	 2.8427429999999998e-01,	 5.4554821647008991e-02,	 1.5364304415027627e+03,	 -9.1216031863264320e+00,	 6.2505836387857107e+02,	 9.8103307266110442e+03,	 5.0175218452007272e+02,	 3.0621840135397567e+00 
1.1443080000000001e+00,	 2.8426109999999999e-01,	 5.4324790447857665e-02,	 1.5371319919837651e+03,	 -6.4053409906881846e+00,	 6.2401245216865823e+02,	 9.7526188904828814e+03,	 5.0133221717627225e+02,	 3.0661211967285693e+00 
1.1456210000000000e+00,	 2.8424779999999999e-01,	 5.4092542528658707e-02,	 1.5378371019632116e+03,	 -3.6583768179180405e+00,	 6.2295251842550101e+02,	 9.6944299881128754e+03,	 5.0090626031384323e+02,	 3.0701182541999343e+00 
1.1469440000000000e+00,	 2.8423440000000000e-01,	 5.3858173931191272e-02,	 1.5385438764353316e+03,	 -8.8279709660439598e-01,	 6.2188112107524944e+02,	 9.6358256828402900e+03,	 5.0047532812134676e+02,	 3.0741657845143520e+00 
1.1482779999999999e+00,	 2.8422080000000000e-01,	 5.3621437716193349e-02,	 1.5392494985556259e+03,	 1.9167460073719720e+00,	 6.2080162626192623e+02,	 9.5768180791973173e+03,	 5.0004076341143826e+02,	 3.0782504239556916e+00 
1.1496210000000000e+00,	 2.8420719999999999e-01,	 5.3385500676908282e-02,	 1.5399585295977317e+03,	 4.7345644626961718e+00,	 6.1970986369337470e+02,	 9.5179115876106516e+03,	 4.9960087569427031e+02,	 3.0823921307008693e+00 
1.1509760000000000e+00,	 2.8419349999999999e-01,	 5.3147502215964218e-02,	 1.5406649935401056e+03,	 7.5719775873088757e+00,	 6.1861161833495225e+02,	 9.4586873091798316e+03,	 4.9915798484791748e+02,	 3.0865650703185659e+00 
1.1523410000000001e+00,	 2.8417959999999998e-01,	 5.2908217476780442e-02,	 1.5413671646972721e+03,	 1.0423484968443606e+01,	 6.1750967662042194e+02,	 9.3993286490874452e+03,	 4.9871320806260445e+02,	 3.0907591452319183e+00 
1.1537160000000000e+00,	 2.8416569999999997e-01,	 5.2670740019996290e-02,	 1.5420695664351001e+03,	 1.3284995297701645e+01,	 6.1640024912472552e+02,	 9.3403287705708717e+03,	 4.9826500870592707e+02,	 3.0949931539040869e+00 
1.1551030000000000e+00,	 2.8415160000000000e-01,	 5.2424684646211868e-02,	 1.5427803087740897e+03,	 1.6082442121847798e+01,	 6.1526754469262642e+02,	 9.2796109964698644e+03,	 4.9780698933938316e+02,	 3.0993219537552670e+00 
1.1565000000000001e+00,	 2.8413739999999998e-01,	 5.2222048821848770e-02,	 1.5432643035421138e+03,	 1.8184498238798053e+01,	 6.1433763903683530e+02,	 9.2297719009369121e+03,	 4.9743065827720591e+02,	 3.1026865943621211e+00 
1.0567210000000000e+00,	 2.8585329999999998e-01,	 5.3580362812895535e-02,	 1.5391206322690500e+03,	 -7.1196118134423813e+01,	 6.1825174968169108e+02,	 9.5301764502893548e+03,	 4.9901277463964703e+02,	 3.0876292422311273e+00 
1.0574120000000000e+00,	 2.8584660000000001e-01,	 5.3294594804048634e-02,	 1.5397524583828692e+03,	 -7.4138098376266541e+01,	 6.1692897779231271e+02,	 9.4590663562116770e+03,	 4.9847866089427458e+02,	 3.0924819798657337e+00 
1.0581080000000000e+00,	 2.8583979999999998e-01,	 5.2964702277366993e-02,	 1.5405777960624077e+03,	 -7.7476854609624354e+01,	 6.1540832635309130e+02,	 9.3773438423907155e+03,	 4.9786393861834074e+02,	 3.0982857599476699e+00 
1.0588080000000000e+00,	 2.8583300000000000e-01,	 5.2642318145602066e-02,	 1.5413770555198125e+03,	 -8.0758578320153447e+01,	 6.1392148589392355e+02,	 9.2977481029543251e+03,	 4.9726214963691871e+02,	 3.1039789184309248e+00 
1.0595110000000001e+00,	 2.8582619999999997e-01,	 5.2327534264475499e-02,	 1.5421569181805251e+03,	 -8.3993524440028381e+01,	 6.1246197128572339e+02,	 9.2201786512470480e+03,	 4.9667071143891013e+02,	 3.1095906020584407e+00 
1.0602190000000000e+00,	 2.8581930000000000e-01,	 5.2017637382293772e-02,	 1.5429177301355139e+03,	 -8.7194082518915650e+01,	 6.1102524570943797e+02,	 9.1440736348273294e+03,	 4.9608781933994089e+02,	 3.1151330109892936e+00 
1.0609310000000001e+00,	 2.8581239999999997e-01,	 5.1713533119615886e-02,	 1.5436610958913823e+03,	 -9.0361714160528777e+01,	 6.0960889979216108e+02,	 9.0695438814796653e+03,	 4.9551252428688474e+02,	 3.1206145608583076e+00 
1.0616479999999999e+00,	 2.8580539999999999e-01,	 5.1413984323041728e-02,	 1.5443871200003350e+03,	 -9.3502032178198675e+01,	 6.0821099411933130e+02,	 8.9963317987356240e+03,	 4.9494406365244424e+02,	 3.1260400872275222e+00 
1.0623689999999999e+00,	 2.8579840000000001e-01,	 5.1119162096489555e-02,	 1.5450936192426548e+03,	 -9.6609431901647056e+01,	 6.0683432523788861e+02,	 8.9244981223580362e+03,	 4.9438360017682351e+02,	 3.1313963518617407e+00 
1.0630940000000000e+00,	 2.8579129999999997e-01,	 5.0830067255179585e-02,	 1.5457828864869582e+03,	 -9.9686545419984554e+01,	 6.0547660855425363e+02,	 8.8541727581401519e+03,	 4.9383022942565378e+02,	 3.1366931786002326e+00 
1.0638230000000000e+00,	 2.8578419999999999e-01,	 5.0546608866804482e-02,	 1.5464537180763282e+03,	 -1.0273028805050748e+02,	 6.0414091284714618e+02,	 8.7853730871557145e+03,	 4.9328522811009833e+02,	 3.1419187909401702e+00 
1.0645570000000000e+00,	 2.8577710000000001e-01,	 5.0268116147438015e-02,	 1.5471039757458402e+03,	 -1.0574016843294095e+02,	 6.0282851947978531e+02,	 8.7179894214080741e+03,	 4.9274914769139326e+02,	 3.1470643696497418e+00 
1.0652960000000000e+00,	 2.8576989999999997e-01,	 4.9995830495185453e-02,	 1.5477319606639082e+03,	 -1.0870699823910425e+02,	 6.0154309858486715e+02,	 8.6522781595814358e+03,	 4.9222351889537845e+02,	 3.1521144242310606e+00 
1.0660390000000000e+00,	 2.8576269999999998e-01,	 4.9731451223290105e-02,	 1.5483375629991356e+03,	 -1.1162167459138212e+02,	 6.0028873957723636e+02,	 8.5885780536237617e+03,	 4.9171005010876758e+02,	 3.1570553105413302e+00 
1.0667869999999999e+00,	 2.8575539999999999e-01,	 4.9474209922235127e-02,	 1.5489172477463278e+03,	 -1.1447920994632898e+02,	 5.9906965592687834e+02,	 8.5268009950746364e+03,	 4.9121050689689758e+02,	 3.1618664437589210e+00 
1.0675390000000000e+00,	 2.8574810000000000e-01,	 4.9226432944763338e-02,	 1.5494695504582908e+03,	 -1.1726578598595748e+02,	 5.9789110281103649e+02,	 8.4674062171034875e+03,	 4.9072708842032614e+02,	 3.1665271016467247e+00 
1.0682959999999999e+00,	 2.8574079999999996e-01,	 4.8987888213055220e-02,	 1.5499906915373706e+03,	 -1.1997225786359016e+02,	 5.9675888542544294e+02,	 8.4104173971386736e+03,	 4.9026222698880485e+02,	 3.1710107656085449e+00 
1.0690580000000001e+00,	 2.8573339999999997e-01,	 4.8761307106827807e-02,	 1.5504778705827371e+03,	 -1.2258144867477012e+02,	 5.9568061652795950e+02,	 8.3563908476765027e+03,	 4.8981910537467309e+02,	 3.1752865009572639e+00 
1.0698250000000000e+00,	 2.8572589999999998e-01,	 4.8547395175324616e-02,	 1.5509247134889142e+03,	 -1.2507430680112334e+02,	 5.9466758655249475e+02,	 8.3055832802409132e+03,	 4.8940242858062072e+02,	 3.1793055312118872e+00 
1.0705970000000000e+00,	 2.8571839999999998e-01,	 4.8349806922652262e-02,	 1.5513271404325087e+03,	 -1.2742425891564528e+02,	 5.9373167805157357e+02,	 8.2587610818197409e+03,	 4.8901715766305466e+02,	 3.1830203933217565e+00 
1.0713740000000000e+00,	 2.8571079999999999e-01,	 4.8169535892609507e-02,	 1.5516767871071143e+03,	 -1.2960957473950981e+02,	 5.9288614798631340e+02,	 8.2162510950296673e+03,	 4.8866883026396806e+02,	 3.1863715108598671e+00 
1.0721550000000000e+00,	 2.8570329999999999e-01,	 4.8011546871112226e-02,	 1.5519648738327514e+03,	 -1.3158694341693987e+02,	 5.9215165182635178e+02,	 8.1791576886642733e+03,	 4.8836604311587837e+02,	 3.1892744348789517e+00 
1.0729420000000001e+00,	 2.8569559999999999e-01,	 4.7879589702528959e-02,	 1.5521794061870914e+03,	 -1.3331990302669362e+02,	 5.9154795485148145e+02,	 8.1483620008187681e+03,	 4.8811703571750144e+02,	 3.1916412094094646e+00 
1.0737340000000000e+00,	 2.8568789999999999e-01,	 4.7775941202728697e-02,	 1.5523192596676743e+03,	 -1.3476054726966726e+02,	 5.9109999380369391e+02,	 8.1245654912612245e+03,	 4.8793218271591223e+02,	 3.1933899381253026e+00 
1.0745309999999999e+00,	 2.8568020000000000e-01,	 4.7709181439414557e-02,	 1.5523616774412042e+03,	 -1.3585485930141382e+02,	 5.9083348803151875e+02,	 8.1095546644691276e+03,	 4.8782217476039091e+02,	 3.1943914912268618e+00 
1.0753330000000001e+00,	 2.8567239999999999e-01,	 4.7682464597337854e-02,	 1.5522953513216360e+03,	 -1.3654507377091960e+02,	 5.9078075386354328e+02,	 8.1042899610624145e+03,	 4.8780040426915753e+02,	 3.1945222788324852e+00 
1.0761410000000000e+00,	 2.8566449999999999e-01,	 4.7705200978702809e-02,	 1.5521029150111642e+03,	 -1.3646829409905769e+02,	 5.9105434170977014e+02,	 8.1119091703708864e+03,	 4.8791334025594404e+02,	 3.1933761750734204e+00 
1.0769540000000000e+00,	 2.8565659999999998e-01,	 4.7790429106067095e-02,	 1.5517718579151349e+03,	 -1.3589600986802787e+02,	 5.9164270328926341e+02,	 8.1344909486136339e+03,	 4.8815612508840996e+02,	 3.1910098855771714e+00 
1.0777720000000000e+00,	 2.8564869999999998e-01,	 4.7915405611089645e-02,	 1.5513096313111951e+03,	 -1.3528512409743945e+02,	 5.9241262058032078e+02,	 8.1663766831885150e+03,	 4.8847364582072129e+02,	 3.1878840945196534e+00 
1.0785960000000001e+00,	 2.8564069999999997e-01,	 4.8088772391045767e-02,	 1.5506963826553347e+03,	 -1.3401549922152159e+02,	 5.9340216452688446e+02,	 8.2096143070832204e+03,	 4.8888143968069727e+02,	 3.1837506596211567e+00 