TITLE = "Final State"
VARIABLES = "X", "Y", "rho", "u", "v", "T", "p", "c", "M"
ZONE I=77, J=21, DATAPACKING=POINT, STRANDID=15000, SOLUTIONTIME=0.000362
1.8369600000000000e-01,	 3.0203999999999998e-01,	 1.1611549976447900e-02,	 1.7358446614662505e+03,	 9.8202204903440982e-01,	 3.0025878218523468e+02,	 1.0030344559161591e+03,	 3.4775777296995597e+02,	 4.9915345512538991e+00 
1.8819400000000000e-01,	 3.0203999999999998e-01,	 1.1621171304201443e-02,	 1.7358018188198873e+03,	 1.3312067760314785e+00,	 3.0035577212462562e+02,	 1.0041898398639332e+03,	 3.4781393499413036e+02,	 4.9906060529407803e+00 
1.9269200000000000e-01,	 3.0203999999999998e-01,	 1.1630353551010077e-02,	 1.7357453489859713e+03,	 1.6306107103519394e+00,	 3.0044603595807621e+02,	 1.0052853019522757e+03,	 3.4786619412086640e+02,	 4.9896947281539248e+00 
1.9719000000000000e-01,	 3.0203999999999998e-01,	 1.1635555445955056e-02,	 1.7357136376486208e+03,	 1.7759238013723908e+00,	 3.0049500644252703e+02,	 1.0058988621256830e+03,	 3.4789454277572622e+02,	 4.9891973939357630e+00 
2.0168800000000001e-01,	 3.0203999999999998e-01,	 1.1637758882007363e-02,	 1.7357009097500641e+03,	 1.8143614774344283e+00,	 3.0051405853848723e+02,	 1.0061531385875247e+03,	 3.4790557127040103e+02,	 4.9890027679212210e+00 
2.0618600000000001e-01,	 3.0203999999999998e-01,	 1.1637709212922717e-02,	 1.7357022828195572e+03,	 1.7781397136571035e+00,	 3.0050903671103640e+02,	 1.0061320308586974e+03,	 3.4790266436971291e+02,	 4.9890482924907023e+00 
2.1068400000000001e-01,	 3.0203999999999998e-01,	 1.1636038909542536e-02,	 1.7357135352280038e+03,	 1.6919114110158144e+00,	 3.0048863612773761e+02,	 1.0059193324229117e+03,	 3.4789085517784753e+02,	 4.9892497431351464e+00 
2.1518200000000001e-01,	 3.0203999999999998e-01,	 1.1633255015071051e-02,	 1.7357311913940625e+03,	 1.5747021903095197e+00,	 3.0046154433842651e+02,	 1.0055879975310502e+03,	 3.4787517205864566e+02,	 4.9895251087578867e+00 
2.1967999999999999e-01,	 3.0203999999999998e-01,	 1.1629926098223328e-02,	 1.7357532239790658e+03,	 1.4406418599788680e+00,	 3.0042390361969012e+02,	 1.0051743029369381e+03,	 3.4785338111421396e+02,	 4.9899006767497616e+00 
2.2417799999999999e-01,	 3.0203999999999998e-01,	 1.1626085717590318e-02,	 1.7357777319803722e+03,	 1.2993424522472670e+00,	 3.0037842539029214e+02,	 1.0046902656718662e+03,	 3.4782705106121665e+02,	 4.9903485453635721e+00 
2.2867599999999999e-01,	 3.0203999999999998e-01,	 1.1621947114360846e-02,	 1.7358026620272244e+03,	 1.1562341281353583e+00,	 3.0033579903110274e+02,	 1.0041900967231878e+03,	 3.4780237031585540e+02,	 4.9907740580948765e+00 
2.3317399999999999e-01,	 3.0203999999999998e-01,	 1.1617972311938857e-02,	 1.7358272132916636e+03,	 1.0172207653798311e+00,	 3.0029395815493194e+02,	 1.0037068058304225e+03,	 3.4777814266329779e+02,	 4.9911920802495375e+00 
2.3767199999999999e-01,	 3.0203999999999998e-01,	 1.1614171291027570e-02,	 1.7358507292219883e+03,	 8.8708414119917567e-01,	 3.0025397890122099e+02,	 1.0032448422517397e+03,	 3.4775499139264497e+02,	 4.9915917782715828e+00 
2.4217000000000000e-01,	 3.0203999999999998e-01,	 1.1610614961857380e-02,	 1.7358727756190760e+03,	 7.6719575894555669e-01,	 3.0021651404448994e+02,	 1.0028124988704858e+03,	 3.4773329476530813e+02,	 4.9919664619047879e+00 
2.4666800000000000e-01,	 3.0203999999999998e-01,	 1.1607349366310853e-02,	 1.7358930364413955e+03,	 6.5860349466984880e-01,	 3.0018207051396212e+02,	 1.0024154290640905e+03,	 3.4771334665228795e+02,	 4.9923109886128056e+00 
2.5116600000000000e-01,	 3.0203999999999998e-01,	 1.1604397014658454e-02,	 1.7359113445714647e+03,	 5.6164426624755937e-01,	 3.0015090953774700e+02,	 1.0020564315792179e+03,	 3.4769529865809892e+02,	 4.9926226846594588e+00 
2.5566400000000000e-01,	 3.0203999999999998e-01,	 1.1601764819922932e-02,	 1.7359276464676277e+03,	 4.7610290513163001e-01,	 3.0012311193168455e+02,	 1.0017363562642579e+03,	 3.4767919788941674e+02,	 4.9929007035639854e+00 
2.6016200000000000e-01,	 3.0203999999999998e-01,	 1.1599447279004575e-02,	 1.7359419762660821e+03,	 4.0144402732983109e-01,	 3.0009861803099250e+02,	 1.0014545135729135e+03,	 3.4766501005587696e+02,	 4.9931456214270922e+00 
2.6466000000000001e-01,	 3.0203999999999998e-01,	 1.1597428387999192e-02,	 1.7359544219795735e+03,	 3.3692772855430791e-01,	 3.0007726912460021e+02,	 1.0012089790831819e+03,	 3.4765264345483541e+02,	 4.9933589959942069e+00 
2.6915800000000001e-01,	 3.0203999999999998e-01,	 1.1595687032645255e-02,	 1.7359651096593166e+03,	 2.8168819068722073e-01,	 3.0005884502525930e+02,	 1.0009971845777903e+03,	 3.4764197072847895e+02,	 4.9935430088485564e+00 
2.7365600000000001e-01,	 3.0203999999999998e-01,	 1.1594199606831931e-02,	 1.7359741879957405e+03,	 2.3481152097418825e-01,	 3.0004309123013684e+02,	 1.0008162346432041e+03,	 3.4763284459812127e+02,	 4.9937001950524911e+00 
2.7815400000000001e-01,	 3.0203999999999998e-01,	 1.1592940144132351e-02,	 1.7359818085949096e+03,	 1.9536475386252791e-01,	 3.0002974107914707e+02,	 1.0006629916953926e+03,	 3.4762511070468241e+02,	 4.9938332017179921e+00 
2.8265200000000001e-01,	 3.0203999999999998e-01,	 1.1591883366929609e-02,	 1.7359881263283746e+03,	 1.6243726808815084e-01,	 3.0001852847243549e+02,	 1.0005343812782646e+03,	 3.4761861498187051e+02,	 4.9939446827914553e+00 
2.8715000000000002e-01,	 3.0203999999999998e-01,	 1.1591005216732477e-02,	 1.7359932967457121e+03,	 1.3518592354070597e-01,	 3.0000919253397115e+02,	 1.0004274530425572e+03,	 3.4761320636383863e+02,	 4.9940372524060930e+00 
2.9164800000000002e-01,	 3.0203999999999998e-01,	 1.1590281781061820e-02,	 1.7359974632928011e+03,	 1.1283155885847709e-01,	 3.0000148708944238e+02,	 1.0003393194203562e+03,	 3.4760874228149595e+02,	 4.9941133688569179e+00 
2.9614600000000002e-01,	 3.0203999999999998e-01,	 1.1589691562009129e-02,	 1.7360007622961325e+03,	 9.4661936170256547e-02,	 2.9999518506836296e+02,	 1.0002673658348433e+03,	 3.4760509121771770e+02,	 4.9941753119769761e+00 
3.0064400000000002e-01,	 3.0203999999999998e-01,	 1.1589215590741183e-02,	 1.7360033234086300e+03,	 8.0052563851888622e-02,	 2.9999007855525252e+02,	 1.0002092605173909e+03,	 3.4760213274105257e+02,	 4.9942251837321407e+00 
3.0514200000000002e-01,	 3.0203999999999998e-01,	 1.1588835803819780e-02,	 1.7360052604818820e+03,	 6.8449330456791316e-02,	 2.9998598254035306e+02,	 1.0001628266970847e+03,	 3.4759975968194726e+02,	 4.9942648505274381e+00 
3.0964000000000003e-01,	 3.0203999999999998e-01,	 1.1588536714740420e-02,	 1.7360066793700557e+03,	 5.9364757537755358e-02,	 2.9998273299680966e+02,	 1.0001261803125593e+03,	 3.4759787702129074e+02,	 4.9942959814991816e+00 
3.1413799999999997e-01,	 3.0203999999999998e-01,	 1.1588305349108322e-02,	 1.7360076794493832e+03,	 5.2388368022543541e-02,	 2.9998018491444890e+02,	 1.0000977177515697e+03,	 3.4759640075315514e+02,	 4.9943200691329386e+00 
3.1863599999999997e-01,	 3.0203999999999998e-01,	 1.1588129293927715e-02,	 1.7360083464676263e+03,	 4.7164070673954936e-02,	 2.9997821265264497e+02,	 1.0000759485969667e+03,	 3.4759525809062995e+02,	 4.9943384056627984e+00 
3.2313399999999998e-01,	 3.0203999999999998e-01,	 1.1587998300567528e-02,	 1.7360087601405403e+03,	 4.3386334940573340e-02,	 2.9997670738390440e+02,	 1.0000596253882160e+03,	 3.4759438598573922e+02,	 4.9943521261414139e+00 
3.2763199999999998e-01,	 3.0203999999999998e-01,	 1.1587904226651336e-02,	 1.7360089954511832e+03,	 4.0803176513636297e-02,	 2.9997557510324981e+02,	 1.0000477319281265e+03,	 3.4759372997685483e+02,	 4.9943622287038885e+00 
3.3212999999999998e-01,	 3.0203999999999998e-01,	 1.1587812401498936e-02,	 1.7360091243771672e+03,	 3.9117669277948727e-02,	 2.9997474862878187e+02,	 1.0000370520766946e+03,	 3.4759325114196832e+02,	 4.9943694795985722e+00 
3.3662799999999998e-01,	 3.0203999999999998e-01,	 1.1587767961303275e-02,	 1.7360091807459339e+03,	 3.8165919776318592e-02,	 2.9997414147638415e+02,	 1.0000311927749794e+03,	 3.4759289937538864e+02,	 4.9943746960453259e+00 
3.4112599999999998e-01,	 3.0203999999999998e-01,	 1.1587770121698881e-02,	 1.7360092346769115e+03,	 3.8071244164568224e-02,	 2.9997369095921454e+02,	 1.0000298773179132e+03,	 3.4759263835851027e+02,	 4.9943786016084522e+00 
3.4562399999999999e-01,	 3.0203999999999998e-01,	 1.1587760724539391e-02,	 1.7360093507354659e+03,	 3.8509498396965755e-02,	 2.9997337201010737e+02,	 1.0000280030508985e+03,	 3.4759245356831951e+02,	 4.9943815906848386e+00 
3.5012199999999999e-01,	 3.0203999999999998e-01,	 1.1587759193225869e-02,	 1.7360095468083514e+03,	 3.9362514652379929e-02,	 2.9997314170197058e+02,	 1.0000271031146455e+03,	 3.4759232013416641e+02,	 4.9943840720776809e+00 
3.5461999999999999e-01,	 3.0203999999999998e-01,	 1.1587764321562832e-02,	 1.7360098749532031e+03,	 4.0572381545176867e-02,	 2.9997295996806815e+02,	 1.0000269398410660e+03,	 3.4759221484254260e+02,	 4.9943865290933402e+00 
3.5911799999999999e-01,	 3.0203999999999998e-01,	 1.1587773361496752e-02,	 1.7360103561661799e+03,	 4.2078144087535470e-02,	 2.9997280195926487e+02,	 1.0000271932315196e+03,	 3.4759212329656270e+02,	 4.9943892289958027e+00 
3.6361599999999999e-01,	 3.0203999999999998e-01,	 1.1587788069176076e-02,	 1.7360110011062156e+03,	 4.3696195144406008e-02,	 2.9997268543984927e+02,	 1.0000280740629075e+03,	 3.4759205578838407e+02,	 4.9943920545555711e+00 
3.6811400000000000e-01,	 3.0203999999999998e-01,	 1.1587805691240974e-02,	 1.7360118477872797e+03,	 4.5450607201584767e-02,	 2.9997257295337948e+02,	 1.0000292198499552e+03,	 3.4759199061677202e+02,	 4.9943954269540241e+00 
3.7261200000000000e-01,	 3.0203999999999998e-01,	 1.1587823316940565e-02,	 1.7360129137797007e+03,	 4.7245638389583761e-02,	 2.9997244033014101e+02,	 1.0000302988187738e+03,	 3.4759191377844627e+02,	 4.9943995979409470e+00 
3.7711000000000000e-01,	 3.0203999999999998e-01,	 1.1587840626323658e-02,	 1.7360142045825210e+03,	 4.9108704395635285e-02,	 2.9997228411840337e+02,	 1.0000312718500599e+03,	 3.4759182327355882e+02,	 4.9944046120752841e+00 
3.8160800000000000e-01,	 3.0203999999999998e-01,	 1.1587858618339084e-02,	 1.7360157248154987e+03,	 5.1001805690912602e-02,	 2.9997210724368790e+02,	 1.0000322349057490e+03,	 3.4759172079706826e+02,	 4.9944104582922595e+00 
3.8610600000000000e-01,	 3.0203999999999998e-01,	 1.1587876106281553e-02,	 1.7360174692020130e+03,	 5.2789621067815637e-02,	 2.9997190449272347e+02,	 1.0000330681930405e+03,	 3.4759160332853230e+02,	 4.9944171648007591e+00 
3.9060400000000001e-01,	 3.0203999999999998e-01,	 1.1587893088304647e-02,	 1.7360194274987225e+03,	 5.4453993008860072e-02,	 2.9997167763401899e+02,	 1.0000337774480719e+03,	 3.4759147189256356e+02,	 4.9944246874081513e+00 
3.9510200000000001e-01,	 3.0203999999999998e-01,	 1.1587909844556817e-02,	 1.7360215878153508e+03,	 5.5960958540190758e-02,	 2.9997142443381676e+02,	 1.0000343794005221e+03,	 3.4759132519496490e+02,	 4.9944330105003836e+00 
3.9960000000000001e-01,	 3.0203999999999998e-01,	 1.1587925872376750e-02,	 1.7360239274990286e+03,	 5.7260464077562995e-02,	 2.9997114827147300e+02,	 1.0000348419365222e+03,	 3.4759116519362925e+02,	 4.9944420407701928e+00 
4.0409800000000001e-01,	 3.0203999999999998e-01,	 1.1587940923574241e-02,	 1.7360264220478398e+03,	 5.8308114800504990e-02,	 2.9997084955018352e+02,	 1.0000351449813666e+03,	 3.4759099212213965e+02,	 4.9944517043670107e+00 
4.0859600000000001e-01,	 3.0203999999999998e-01,	 1.1587955685435795e-02,	 1.7360290423661631e+03,	 5.9057503349647808e-02,	 2.9997053167238369e+02,	 1.0000353591904957e+03,	 3.4759080795176232e+02,	 4.9944618892557564e+00 
4.1309400000000002e-01,	 3.0203999999999998e-01,	 1.1587969862088616e-02,	 1.7360317480389451e+03,	 5.9463949311814063e-02,	 2.9997020185182458e+02,	 1.0000354830791633e+03,	 3.4759061686194849e+02,	 4.9944724191068799e+00 
4.1759200000000002e-01,	 3.0203999999999998e-01,	 1.1587983548713467e-02,	 1.7360344964516762e+03,	 5.9452952503407083e-02,	 2.9996986606718366e+02,	 1.0000355447930638e+03,	 3.4759042231658623e+02,	 4.9944831215415846e+00 
4.2209000000000002e-01,	 3.0203999999999998e-01,	 1.1587997197361045e-02,	 1.7360372445140042e+03,	 5.9053945069224970e-02,	 2.9996952710455651e+02,	 1.0000355926321686e+03,	 3.4759022592986656e+02,	 4.9944938494003859e+00 
4.2658800000000002e-01,	 3.0203999999999998e-01,	 1.1588009938426109e-02,	 1.7360399413624746e+03,	 5.8222874886104545e-02,	 2.9996918754058686e+02,	 1.0000355601402479e+03,	 3.4759002919463239e+02,	 4.9945044348976841e+00 
4.3108600000000002e-01,	 3.0203999999999998e-01,	 1.1588021368230225e-02,	 1.7360425364279542e+03,	 5.6964641350017664e-02,	 2.9996884878552970e+02,	 1.0000354171819937e+03,	 3.4758983292795176e+02,	 4.9945147208099980e+00 
4.3558400000000003e-01,	 3.0203999999999998e-01,	 1.1588031698853781e-02,	 1.7360449814254123e+03,	 5.5297639509795868e-02,	 2.9996851095810518e+02,	 1.0000351824559058e+03,	 3.4758963719860924e+02,	 4.9945245672388729e+00 
4.4008199999999997e-01,	 3.0203999999999998e-01,	 1.1588040016396439e-02,	 1.7360472232235429e+03,	 5.3244219467451656e-02,	 2.9996817500200694e+02,	 1.0000347802398335e+03,	 3.4758944255336024e+02,	 4.9945338134760178e+00 
4.4457999999999998e-01,	 3.0203999999999998e-01,	 1.1588046121181864e-02,	 1.7360492130731891e+03,	 5.0832245621092488e-02,	 2.9996784132578085e+02,	 1.0000341946645628e+03,	 3.4758924922890895e+02,	 4.9945423158760827e+00 
4.4907799999999998e-01,	 3.0203999999999998e-01,	 1.1588050872834633e-02,	 1.7360509110290236e+03,	 4.8106185330851328e-02,	 2.9996750980609607e+02,	 1.0000334995040486e+03,	 3.4758905715380240e+02,	 4.9945499605511579e+00 
4.5357599999999998e-01,	 3.0203999999999998e-01,	 1.1588051310073238e-02,	 1.7360522766621109e+03,	 4.5116732147900684e-02,	 2.9996718386138514e+02,	 1.0000324506006724e+03,	 3.4758886830860780e+02,	 4.9945566027361998e+00 
4.5807399999999998e-01,	 3.0203999999999998e-01,	 1.1588050209746088e-02,	 1.7360532702617738e+03,	 4.1917192709894940e-02,	 2.9996686283691179e+02,	 1.0000312854107236e+03,	 3.4758868231399032e+02,	 4.9945621336415584e+00 
4.6257199999999998e-01,	 3.0203999999999998e-01,	 1.1588047524384248e-02,	 1.7360538786339430e+03,	 3.8572316404154407e-02,	 2.9996654309207833e+02,	 1.0000299877010874e+03,	 3.4758849706066945e+02,	 4.9945665456225745e+00 
4.6706999999999999e-01,	 3.0203999999999998e-01,	 1.1588042435615578e-02,	 1.7360540869088886e+03,	 3.5151848725825927e-02,	 2.9996622378386337e+02,	 1.0000284840375970e+03,	 3.4758831206021756e+02,	 4.9945698029225083e+00 
4.7156799999999999e-01,	 3.0203999999999998e-01,	 1.1588035066700454e-02,	 1.7360538908460371e+03,	 3.1727260515675398e-02,	 2.9996590305593492e+02,	 1.0000267788694213e+03,	 3.4758812623711441e+02,	 4.9945719087989451e+00 
4.7606599999999999e-01,	 3.0203999999999998e-01,	 1.1588026259682764e-02,	 1.7360533025267598e+03,	 2.8373812841311352e-02,	 2.9996557753196839e+02,	 1.0000249336080224e+03,	 3.4758793763518480e+02,	 4.9945729261201368e+00 
4.8056399999999999e-01,	 3.0203999999999998e-01,	 1.1588015637660395e-02,	 1.7360523358887510e+03,	 2.5162217244144580e-02,	 2.9996524389876470e+02,	 1.0000229046824012e+03,	 3.4758774433482279e+02,	 4.9945729225677304e+00 
4.8506199999999999e-01,	 3.0203999999999998e-01,	 1.1588003451307886e-02,	 1.7360510170857065e+03,	 2.2151710571907929e-02,	 2.9996489902026866e+02,	 1.0000207032708920e+03,	 3.4758754451905179e+02,	 4.9945719994919919e+00 
4.8956000000000000e-01,	 3.0203999999999998e-01,	 1.1587990595885733e-02,	 1.7360493839497717e+03,	 1.9401814159391212e-02,	 2.9996453894350122e+02,	 1.0000183934547169e+03,	 3.4758733589758077e+02,	 4.9945702986420875e+00 
4.9405800000000000e-01,	 3.0203999999999998e-01,	 1.1587976818393944e-02,	 1.7360474755501432e+03,	 1.6961723554115064e-02,	 2.9996416135346431e+02,	 1.0000159456832255e+03,	 3.4758711712912776e+02,	 4.9945679516886887e+00 
4.9855600000000000e-01,	 3.0203999999999998e-01,	 1.1587962482165957e-02,	 1.7360453379237883e+03,	 1.4863714753075727e-02,	 2.9996376491764033e+02,	 1.0000133868694098e+03,	 3.4758688744163760e+02,	 4.9945651021686297e+00 
5.0305400000000000e-01,	 3.0203999999999998e-01,	 1.1587948549153572e-02,	 1.7360430238952044e+03,	 1.3137193831094782e-02,	 2.9996334790141202e+02,	 1.0000107942448877e+03,	 3.4758664583008289e+02,	 4.9945619164942618e+00 
5.0755200000000000e-01,	 3.0203999999999998e-01,	 1.1587934859446338e-02,	 1.7360405822754869e+03,	 1.1796984187221016e-02,	 2.9996291129635284e+02,	 1.0000081573155927e+03,	 3.4758639286893890e+02,	 4.9945585268355472e+00 
5.1205000000000001e-01,	 3.0203999999999998e-01,	 1.1587921853049007e-02,	 1.7360380636840282e+03,	 1.0847392698352340e-02,	 2.9996245771613337e+02,	 1.0000055227662278e+03,	 3.4758613007249636e+02,	 4.9945550570611958e+00 
5.1654800000000001e-01,	 3.0203999999999998e-01,	 1.1587910560117310e-02,	 1.7360355206583367e+03,	 1.0283810834990484e-02,	 2.9996198987383491e+02,	 1.0000029885409369e+03,	 3.4758585901264661e+02,	 4.9945516357316251e+00 
5.2104600000000001e-01,	 3.0203999999999998e-01,	 1.1598370495878037e-02,	 1.7359820106340612e+03,	 4.0934111142995705e-01,	 3.0004142147139862e+02,	 1.0011706959481168e+03,	 3.4763187729741594e+02,	 4.9937366860339862e+00 
5.2554400000000001e-01,	 3.0203999999999998e-01,	 1.1610563615282928e-02,	 1.7359277815588885e+03,	 8.8491582904095012e-01,	 3.0016975305053967e+02,	 1.0026518691058317e+03,	 3.4770621266464121e+02,	 4.9925136332921083e+00 
1.8369600000000000e-01,	 3.0570929999999996e-01,	 1.1598079817121259e-02,	 1.7359058081080411e+03,	 4.0628794601110013e-01,	 3.0012921117974054e+02,	 1.0014385317312012e+03,	 3.4768273072446635e+02,	 4.9927871080530419e+00 
1.8819400000000000e-01,	 3.0569399999999997e-01,	 1.1605672153437862e-02,	 1.7358739933494169e+03,	 6.7467686779245328e-01,	 3.0019909443599494e+02,	 1.0023274250333104e+03,	 3.4772320627010185e+02,	 4.9921146853607921e+00 
1.9269200000000000e-01,	 3.0567869999999997e-01,	 1.1615260198085666e-02,	 1.7358233489683432e+03,	 9.9105819053996114e-01,	 3.0029633038490692e+02,	 1.0034804263942318e+03,	 3.4777951633080420e+02,	 4.9911612109916854e+00 
1.9719000000000000e-01,	 3.0566329999999997e-01,	 1.1622467104724813e-02,	 1.7357854059584693e+03,	 1.2149293260748670e+00,	 3.0036858854965050e+02,	 1.0043446648557168e+03,	 3.4782135566668177e+02,	 4.9904521469490613e+00 
2.0168800000000001e-01,	 3.0564799999999998e-01,	 1.1627480745307400e-02,	 1.7357591549119043e+03,	 1.3600863142070025e+00,	 3.0041849767055066e+02,	 1.0049448674190106e+03,	 3.4785025139297136e+02,	 4.9899624359085264e+00 
2.0618600000000001e-01,	 3.0563269999999998e-01,	 1.1630543535480233e-02,	 1.7357435610096559e+03,	 1.4392105638974213e+00,	 3.0044771089420988e+02,	 1.0053073279043765e+03,	 3.4786716376728612e+02,	 4.9896751934862973e+00 
2.1068400000000001e-01,	 3.0561729999999998e-01,	 1.1631935394936715e-02,	 1.7357371465620645e+03,	 1.4643962532857051e+00,	 3.0046025291204785e+02,	 1.0054696068267806e+03,	 3.4787442444940098e+02,	 4.9895526727660400e+00 
2.1518200000000001e-01,	 3.0560199999999998e-01,	 1.1631948216926983e-02,	 1.7357385233114555e+03,	 1.4471265099892270e+00,	 3.0045673135982696e+02,	 1.0054589305195452e+03,	 3.4787238580780075e+02,	 4.9895858291041497e+00 
2.1967999999999999e-01,	 3.0558669999999999e-01,	 1.1630783724991243e-02,	 1.7357458859352396e+03,	 1.3978716134442997e+00,	 3.0044406655063221e+02,	 1.0053158947864965e+03,	 3.4786505399699570e+02,	 4.9897120417089269e+00 
2.2417799999999999e-01,	 3.0557129999999999e-01,	 1.1628862883481811e-02,	 1.7357576678861658e+03,	 1.3244371320874888e+00,	 3.0042531275368395e+02,	 1.0050871236305704e+03,	 3.4785419691389484e+02,	 4.9899014833767499e+00 
2.2867599999999999e-01,	 3.0555599999999999e-01,	 1.1626443740349091e-02,	 1.7357728436449008e+03,	 1.2362747733632780e+00,	 3.0039879267509116e+02,	 1.0047893304297863e+03,	 3.4783884314068484e+02,	 4.9901651817553798e+00 
2.3317399999999999e-01,	 3.0554070000000000e-01,	 1.1623557727990225e-02,	 1.7357902436431295e+03,	 1.1385793269764073e+00,	 3.0036825262915352e+02,	 1.0044377867236940e+03,	 3.4782116117171830e+02,	 4.9904686972385237e+00 
2.3767199999999999e-01,	 3.0552530000000000e-01,	 1.1620434673754062e-02,	 1.7358088843141284e+03,	 1.0351449621797304e+00,	 3.0033545990236280e+02,	 1.0040582810958439e+03,	 3.4780217395262918e+02,	 4.9907945463373578e+00 
2.4217000000000000e-01,	 3.0551000000000000e-01,	 1.1617226791867585e-02,	 1.7358280040314728e+03,	 9.3182974317025535e-01,	 3.0030179547772542e+02,	 1.0036685923134211e+03,	 3.4778268093605806e+02,	 4.9911290851878398e+00 
2.4666800000000000e-01,	 3.0549470000000001e-01,	 1.1614038696533165e-02,	 1.7358469946864243e+03,	 8.3109511144790871e-01,	 3.0026835198265815e+02,	 1.0032814131206178e+03,	 3.4776331476443545e+02,	 4.9914614910419406e+00 
2.5116600000000000e-01,	 3.0547930000000001e-01,	 1.1610951425590333e-02,	 1.7358653674705579e+03,	 7.3508822915826866e-01,	 3.0023596820939548e+02,	 1.0029065439331932e+03,	 3.4774456121960878e+02,	 4.9917833855595442e+00 
2.5566400000000000e-01,	 3.0546400000000001e-01,	 1.1608027995291096e-02,	 1.7358827515709809e+03,	 6.4516534553831562e-01,	 3.0020530451943102e+02,	 1.0025516269403516e+03,	 3.4772680284816647e+02,	 4.9920882061580683e+00 
2.6016200000000000e-01,	 3.0544869999999996e-01,	 1.1605305216023215e-02,	 1.7358989234681285e+03,	 5.6230662588773017e-01,	 3.0017674663969854e+02,	 1.0022211202191430e+03,	 3.4771026320639436e+02,	 4.9923720931734969e+00 
2.6466000000000001e-01,	 3.0543329999999996e-01,	 1.1602806416237227e-02,	 1.7359137412867785e+03,	 4.8701835885034256e-01,	 3.0015053363686877e+02,	 1.0019178263333840e+03,	 3.4769508093593839e+02,	 4.9926326392986908e+00 
2.6915800000000001e-01,	 3.0541799999999997e-01,	 1.1600542852442481e-02,	 1.7359271333351398e+03,	 4.1945145193753652e-01,	 3.0012678051604053e+02,	 1.0016430909139891e+03,	 3.4768132282834648e+02,	 4.9928686703373328e+00 
2.7365600000000001e-01,	 3.0540269999999997e-01,	 1.1598516079564893e-02,	 1.7359390794201759e+03,	 3.5945639139108365e-01,	 3.0010550833497012e+02,	 1.0013971088483572e+03,	 3.4766900125028366e+02,	 4.9930799421094756e+00 
2.7815400000000001e-01,	 3.0538729999999997e-01,	 1.1596721738160530e-02,	 1.7359496073215705e+03,	 3.0670265179927303e-01,	 3.0008666510468532e+02,	 1.0011793216346678e+03,	 3.4765808623921231e+02,	 4.9932669571815929e+00 
2.8265200000000001e-01,	 3.0537199999999998e-01,	 1.1595149655764844e-02,	 1.7359587792788998e+03,	 2.6075507843880774e-01,	 3.0007013965438301e+02,	 1.0009884727113340e+03,	 3.4764851352873865e+02,	 4.9934308110285031e+00 
2.8715000000000002e-01,	 3.0535669999999998e-01,	 1.1593784338506611e-02,	 1.7359666770208814e+03,	 2.2109582208293788e-01,	 3.0005577815423840e+02,	 1.0008227051761587e+03,	 3.4764019411727804e+02,	 4.9935730116259940e+00 
2.9164800000000002e-01,	 3.0534129999999998e-01,	 1.1592609984017737e-02,	 1.7359734010818752e+03,	 1.8716628415956660e-01,	 3.0004340720852844e+02,	 1.0006800715518177e+03,	 3.4763302764589235e+02,	 4.9936952853052041e+00 
2.9614600000000002e-01,	 3.0532599999999999e-01,	 1.1591609090221368e-02,	 1.7359790579665346e+03,	 1.5839568999140696e-01,	 3.0003284292338253e+02,	 1.0005584437910503e+03,	 3.4762690765346974e+02,	 4.9937994642327137e+00 
3.0064400000000002e-01,	 3.0531069999999999e-01,	 1.1590762922668228e-02,	 1.7359837560539727e+03,	 1.3421155646727076e-01,	 3.0002389607206516e+02,	 1.0004555706955259e+03,	 3.4762172457182328e+02,	 4.9938874314609913e+00 
3.0514200000000002e-01,	 3.0529529999999999e-01,	 1.1590054794341623e-02,	 1.7359876097432914e+03,	 1.1407370050111318e-01,	 3.0001638200520938e+02,	 1.0003693938945819e+03,	 3.4761737146984041e+02,	 4.9939610501941294e+00 
3.0964000000000003e-01,	 3.0528000000000000e-01,	 1.1589467571374247e-02,	 1.7359907271975194e+03,	 9.7474637647055717e-02,	 3.0001012433952121e+02,	 1.0002978446766713e+03,	 3.4761374619340307e+02,	 4.9940220976423237e+00 
3.1413799999999997e-01,	 3.0526470000000000e-01,	 1.1588984750559512e-02,	 1.7359932125098474e+03,	 8.3943783631158370e-02,	 3.0000495540327688e+02,	 1.0002389383384401e+03,	 3.4761075162607790e+02,	 4.9940722673813847e+00 
3.1863599999999997e-01,	 3.0524930000000000e-01,	 1.1588592232031819e-02,	 1.7359951687946975e+03,	 7.3058566813542253e-02,	 3.0000072121867390e+02,	 1.0001909436691889e+03,	 3.4760829857778788e+02,	 4.9941131366388660e+00 
3.2313399999999998e-01,	 3.0523400000000001e-01,	 1.1588276588417845e-02,	 1.7359966910357409e+03,	 6.4436850640055277e-02,	 2.9999728232640064e+02,	 1.0001522362027411e+03,	 3.4760630626438120e+02,	 4.9941461387391186e+00 
3.2763199999999998e-01,	 3.0521870000000001e-01,	 1.1588025374877995e-02,	 1.7359978676486612e+03,	 5.7740794278634475e-02,	 2.9999451126494660e+02,	 1.0001213164928848e+03,	 3.4760470084873651e+02,	 4.9941725884896808e+00 
3.3212999999999998e-01,	 3.0520330000000001e-01,	 1.1587841983420845e-02,	 1.7359987743588470e+03,	 5.2655409957278798e-02,	 2.9999229560662104e+02,	 1.0000981021855312e+03,	 3.4760341720079862e+02,	 4.9941936392258706e+00 
3.3662799999999998e-01,	 3.0518800000000001e-01,	 1.1587690929610771e-02,	 1.7359995040128642e+03,	 4.8907385207431847e-02,	 2.9999054208025973e+02,	 1.0000792196287096e+03,	 3.4760240128696523e+02,	 4.9942103342048556e+00 
3.4112599999999998e-01,	 3.0517269999999996e-01,	 1.1587560389014663e-02,	 1.7360001218101315e+03,	 4.6349398323204019e-02,	 2.9998915406530250e+02,	 1.0000633261057227e+03,	 3.4760159713179604e+02,	 4.9942236651192742e+00 
3.4562399999999999e-01,	 3.0515729999999996e-01,	 1.1587472010226410e-02,	 1.7360006745594687e+03,	 4.4752819025039185e-02,	 2.9998806465964509e+02,	 1.0000520668968392e+03,	 3.4760096597649408e+02,	 4.9942343234273698e+00 
3.5012199999999999e-01,	 3.0514199999999997e-01,	 1.1587408601082577e-02,	 1.7360012302028192e+03,	 4.3940044906010806e-02,	 2.9998721317131458e+02,	 1.0000437558568135e+03,	 3.4760047265957400e+02,	 4.9942430097299502e+00 
3.5461999999999999e-01,	 3.0512669999999997e-01,	 1.1587348887693734e-02,	 1.7360018397190877e+03,	 4.3745610116482564e-02,	 2.9998654643140600e+02,	 1.0000363796847736e+03,	 3.4760008637771602e+02,	 4.9942503132287870e+00 
3.5911799999999999e-01,	 3.0511129999999997e-01,	 1.1587316086288145e-02,	 1.7360025283637776e+03,	 4.4027732533726972e-02,	 2.9998601676617335e+02,	 1.0000317830979196e+03,	 3.4759977951101803e+02,	 4.9942567033966050e+00 
3.6361599999999999e-01,	 3.0509599999999998e-01,	 1.1587311309600456e-02,	 1.7360033301563556e+03,	 4.4759512798416973e-02,	 2.9998560165597547e+02,	 1.0000299870420745e+03,	 3.4759953901270296e+02,	 4.9942624655492791e+00 
3.6811400000000000e-01,	 3.0508069999999998e-01,	 1.1587301965166719e-02,	 1.7360042882573071e+03,	 4.5814879303513009e-02,	 2.9998526571292814e+02,	 1.0000280606845531e+03,	 3.4759934438055990e+02,	 4.9942680184150152e+00 
3.7261200000000000e-01,	 3.0506529999999998e-01,	 1.1587297544317289e-02,	 1.7360054172685927e+03,	 4.7107817847788440e-02,	 2.9998498125797983e+02,	 1.0000267308925190e+03,	 3.4759917957850411e+02,	 4.9942736343992857e+00 
3.7711000000000000e-01,	 3.0504999999999999e-01,	 1.1587297442702569e-02,	 1.7360067319577799e+03,	 4.8515689833888508e-02,	 2.9998473043262118e+02,	 1.0000258859740616e+03,	 3.4759903426005059e+02,	 4.9942795046344743e+00 
3.8160800000000000e-01,	 3.0503469999999999e-01,	 1.1587300216175635e-02,	 1.7360082383122476e+03,	 4.9963832103303740e-02,	 2.9998450126973921e+02,	 1.0000253613997551e+03,	 3.4759890149194013e+02,	 4.9942857459562555e+00 
3.8610600000000000e-01,	 3.0501929999999999e-01,	 1.1587305460412697e-02,	 1.7360099403097088e+03,	 5.1404130029654417e-02,	 2.9998428261151992e+02,	 1.0000250850789257e+03,	 3.4759877480977758e+02,	 4.9942924626842728e+00 
3.9060400000000001e-01,	 3.0500400000000000e-01,	 1.1587312723148535e-02,	 1.7360118312282593e+03,	 5.2809945152982915e-02,	 2.9998406781868027e+02,	 1.0000249958464358e+03,	 3.4759865036702246e+02,	 4.9942996907453043e+00 
3.9510200000000001e-01,	 3.0498870000000000e-01,	 1.1587320775044100e-02,	 1.7360139006186694e+03,	 5.4137543219129634e-02,	 2.9998385092102615e+02,	 1.0000249677036009e+03,	 3.4759852470477307e+02,	 4.9943074497720099e+00 
3.9960000000000001e-01,	 3.0497330000000000e-01,	 1.1587329103065013e-02,	 1.7360161357248480e+03,	 5.5289986152180268e-02,	 2.9998362169913815e+02,	 1.0000249223062486e+03,	 3.4759839190228212e+02,	 4.9943157881275271e+00 
4.0409800000000001e-01,	 3.0495800000000001e-01,	 1.1587337507360492e-02,	 1.7360185121721829e+03,	 5.6233795776845494e-02,	 2.9998338000179416e+02,	 1.0000248419023507e+03,	 3.4759825187192888e+02,	 4.9943246369449090e+00 
4.0859600000000001e-01,	 3.0494270000000001e-01,	 1.1587346718030063e-02,	 1.7360209937412455e+03,	 5.6892280478161229e-02,	 2.9998313279989708e+02,	 1.0000248127399323e+03,	 3.4759810865238620e+02,	 4.9943338339897929e+00 
4.1309400000000002e-01,	 3.0492730000000001e-01,	 1.1587357094508099e-02,	 1.7360235488852190e+03,	 5.7205291552759024e-02,	 2.9998288448973375e+02,	 1.0000248804945694e+03,	 3.4759796479069604e+02,	 4.9943432519032918e+00 
4.1759200000000002e-01,	 3.0491200000000002e-01,	 1.1587368333437502e-02,	 1.7360261431806491e+03,	 5.7141452694076854e-02,	 2.9998262897414355e+02,	 1.0000249986598116e+03,	 3.4759781675438694e+02,	 4.9943528424050356e+00 
4.2209000000000002e-01,	 3.0489669999999996e-01,	 1.1587379147230549e-02,	 1.7360287312003795e+03,	 5.6709573819266078e-02,	 2.9998236387760920e+02,	 1.0000250481937186e+03,	 3.4759766316716548e+02,	 4.9943624945825356e+00 
4.2658800000000002e-01,	 3.0488129999999997e-01,	 1.1587389741013133e-02,	 1.7360312711357526e+03,	 5.5885609583203932e-02,	 2.9998208680378980e+02,	 1.0000250388107729e+03,	 3.4759750264067128e+02,	 4.9943721081042893e+00 
4.3108600000000002e-01,	 3.0486599999999997e-01,	 1.1587399583175902e-02,	 1.7360337168717101e+03,	 5.4679883917819000e-02,	 2.9998179544852769e+02,	 1.0000249169503636e+03,	 3.4759733383994865e+02,	 4.9943815694863591e+00 