TITLE = "Final State"
VARIABLES = "X", "Y", "rho", "u", "v", "T", "p", "c", "M"
ZONE I=102, J=25, DATAPACKING=POINT, STRANDID=55000, SOLUTIONTIME=0.001327
1.1565000000000001e+00,	 2.8413739999999998e-01,	 5.2096082304986059e-02,	 1.5437766602594993e+03,	 1.9175467195845695e+01,	 6.1379480900813712e+02,	 9.1993726915684347e+03,	 4.9721084432202963e+02,	 3.1051127783830461e+00 
1.1579079999999999e+00,	 2.8412319999999996e-01,	 5.1902791919034338e-02,	 1.5442133563288171e+03,	 2.1406626243130148e+01,	 6.1293155581827546e+02,	 9.1523503846620570e+03,	 4.9686107770394625e+02,	 3.1082364728555634e+00 
1.1593270000000000e+00,	 2.8410879999999999e-01,	 5.1679244270959393e-02,	 1.5448233239544147e+03,	 2.4483863562429580e+01,	 6.1194448480415213e+02,	 9.0982552483619183e+03,	 4.9646084151643845e+02,	 3.1120628348091328e+00 
1.1607580000000000e+00,	 2.8409429999999997e-01,	 5.1455364377982447e-02,	 1.5454272128872708e+03,	 2.7508530240382726e+01,	 6.1094623933151013e+02,	 9.0440632576207754e+03,	 4.9605574589530033e+02,	 3.1159240298030726e+00 
1.1621999999999999e+00,	 2.8407959999999999e-01,	 5.1226973989287800e-02,	 1.5460328397521578e+03,	 3.0461587618049087e+01,	 6.0992633944288491e+02,	 8.9888892300205989e+03,	 4.9564152080502311e+02,	 3.1198615109209018e+00 
1.1636530000000000e+00,	 2.8406490000000001e-01,	 5.0998823571413811e-02,	 1.5466435175321949e+03,	 3.3364296682987174e+01,	 6.0888989637891621e+02,	 8.9336485461441353e+03,	 4.9522022186921106e+02,	 3.1238694943599041e+00 
1.1651170000000000e+00,	 2.8404999999999997e-01,	 5.0769897357179961e-02,	 1.5472480101677907e+03,	 3.6232674534049870e+01,	 6.0785247762874792e+02,	 8.8783940023065261e+03,	 4.9479816710711242e+02,	 3.1278858616879281e+00 
1.1665930000000000e+00,	 2.8403509999999998e-01,	 5.0545555521459215e-02,	 1.5478484465358929e+03,	 3.9070317974496177e+01,	 6.0681577918346602e+02,	 8.8240869085316226e+03,	 4.9437604544991626e+02,	 3.1319103803412331e+00 
1.1680809999999999e+00,	 2.8401999999999999e-01,	 5.0323414792079482e-02,	 1.5484342949897600e+03,	 4.1879881216079795e+01,	 6.0579133019073595e+02,	 8.7704745852085271e+03,	 4.9395855714684234e+02,	 3.1358917124012704e+00 
1.1695810000000000e+00,	 2.8400480000000000e-01,	 5.0107143373584004e-02,	 1.5490063368818860e+03,	 4.4655540505161781e+01,	 6.0478133442628962e+02,	 8.7182227406518432e+03,	 4.9354661317928361e+02,	 3.1398247665116950e+00 
1.1710920000000000e+00,	 2.8398940000000000e-01,	 4.9896222991864081e-02,	 1.5495577173939055e+03,	 4.7389371090435972e+01,	 6.0379376992730556e+02,	 8.6673480570470856e+03,	 4.9314348544975689e+02,	 3.1436736707196848e+00 
1.1726160000000001e+00,	 2.8397400000000000e-01,	 4.9694545698924619e-02,	 1.5500901728705023e+03,	 5.0068790587245353e+01,	 6.0282989979217268e+02,	 8.6185349462335016e+03,	 4.9274971182144111e+02,	 3.1474368223992388e+00 
1.1741520000000001e+00,	 2.8395840000000000e-01,	 4.9499688353588867e-02,	 1.5505921608540611e+03,	 5.2685434870781407e+01,	 6.0190337755552923e+02,	 8.5715464405100192e+03,	 4.9237089922282138e+02,	 3.1510533380914314e+00 
1.1756990000000000e+00,	 2.8394269999999999e-01,	 4.9316668469714588e-02,	 1.5510630401207577e+03,	 5.5217299166306383e+01,	 6.0101956441446748e+02,	 8.5273144376972305e+03,	 4.9200927661913408e+02,	 3.1545047235763235e+00 
1.1772600000000000e+00,	 2.8392689999999998e-01,	 4.9146320505783943e-02,	 1.5514958118608752e+03,	 5.7646445203292529e+01,	 6.0018935403416390e+02,	 8.4861212718990719e+03,	 4.9166934395352297e+02,	 3.1577449355297587e+00 
1.1788320000000001e+00,	 2.8391089999999997e-01,	 4.8990025220511019e-02,	 1.5518800161660188e+03,	 5.9948801518049152e+01,	 5.9942870073613722e+02,	 8.4484129520884017e+03,	 4.9135768524515544e+02,	 3.1607066216782322e+00 
1.1804170000000000e+00,	 2.8389480000000000e-01,	 4.8852841099376557e-02,	 1.5522106396179906e+03,	 6.2090464337852737e+01,	 5.9874970025827849e+02,	 8.4152122095951418e+03,	 4.9107931465968824e+02,	 3.1633423500683819e+00 
1.1820150000000000e+00,	 2.8387859999999998e-01,	 4.8737116099920291e-02,	 1.5524759851543972e+03,	 6.4035921105775429e+01,	 5.9817093430279942e+02,	 8.3871627645076587e+03,	 4.9084191269912071e+02,	 3.1655733709561020e+00 
1.1836260000000001e+00,	 2.8386230000000001e-01,	 4.8647019824566762e-02,	 1.5526641475442848e+03,	 6.5740845620471788e+01,	 5.9771505727536703e+02,	 8.3652779164166659e+03,	 4.9065483724201022e+02,	 3.1673085888940427e+00 
1.1852490000000000e+00,	 2.8384579999999998e-01,	 4.8585942388476064e-02,	 1.5527616220718669e+03,	 6.7161306021447274e+01,	 5.9740524156275114e+02,	 8.3504445608935202e+03,	 4.9052765935046631e+02,	 3.1684521176823615e+00 
1.1868860000000001e+00,	 2.8382920000000000e-01,	 4.8560604299365560e-02,	 1.5527581110714377e+03,	 6.8240460939961650e+01,	 5.9726284728853147e+02,	 8.3441003859647226e+03,	 4.9046919610990403e+02,	 3.1689184817067337e+00 
1.1885349999999999e+00,	 2.8381249999999997e-01,	 4.8574877913490661e-02,	 1.5526373611787280e+03,	 6.8925115635194004e+01,	 5.9731814768678100e+02,	 8.3473258060023127e+03,	 4.9049190178647103e+02,	 3.1685874407433907e+00 
1.1901980000000001e+00,	 2.8379559999999998e-01,	 4.8633634335237062e-02,	 1.5523848192664823e+03,	 6.9134773227821952e+01,	 5.9759756386678714e+02,	 8.3613322471180127e+03,	 4.9060661063147421e+02,	 3.1673513286623263e+00 
1.1918740000000001e+00,	 2.8377859999999999e-01,	 4.8744823077949279e-02,	 1.5519888896427180e+03,	 6.8857878985375564e+01,	 5.9812731081160575e+02,	 8.3878773002934959e+03,	 4.9082401427993057e+02,	 3.1651174753005291e+00 
1.1935640000000001e+00,	 2.8376150000000000e-01,	 4.8908097363073791e-02,	 1.5514511625685104e+03,	 6.8011334761977707e+01,	 5.9890922428331942e+02,	 8.4269750408914406e+03,	 4.9114472908212264e+02,	 3.1618809480747747e+00 
1.1952670000000001e+00,	 2.8374420000000000e-01,	 4.9121114722677023e-02,	 1.5507671556536229e+03,	 6.6560855263904003e+01,	 5.9994555303127186e+02,	 8.4783236236200355e+03,	 4.9156947409264990e+02,	 3.1576308488146103e+00 
1.1969840000000000e+00,	 2.8372680000000000e-01,	 4.9390977108550199e-02,	 1.5499333684916801e+03,	 6.4595694557076428e+01,	 6.0126736939950320e+02,	 8.5436842730430308e+03,	 4.9211069576907340e+02,	 3.1522965400077867e+00 
1.1987140000000001e+00,	 2.8370919999999999e-01,	 4.9706370417643489e-02,	 1.5489782241878561e+03,	 6.2086308675927057e+01,	 6.0281461248464518e+02,	 8.6203670980595434e+03,	 4.9274346390296648e+02,	 3.1461036287385737e+00 
1.2004589999999999e+00,	 2.8369159999999999e-01,	 5.0061865566810658e-02,	 1.5479312280175234e+03,	 5.9106084443694513e+01,	 6.0454298383844537e+02,	 8.7069119448851779e+03,	 4.9344934767895342e+02,	 3.1392467642787314e+00 
1.2022180000000000e+00,	 2.8367369999999997e-01,	 5.0442524532120420e-02,	 1.5468162283405754e+03,	 5.5762085967827943e+01,	 6.0640507341252419e+02,	 8.8001399217214475e+03,	 4.9420871504302323e+02,	 3.1319176594210054e+00 
1.2039899999999999e+00,	 2.8365570000000001e-01,	 5.0839444433268120e-02,	 1.5456785871216962e+03,	 5.2161814274497743e+01,	 6.0832795263444279e+02,	 8.8975104386031326e+03,	 4.9499165004978357e+02,	 3.1244132815181200e+00 
1.2057780000000000e+00,	 2.8363759999999999e-01,	 5.1236477916043840e-02,	 1.5445555521100434e+03,	 4.8424782320893591e+01,	 6.1024370600723023e+02,	 8.9952350105581590e+03,	 4.9577045407084620e+02,	 3.1169958958378818e+00 
1.2075790000000000e+00,	 2.8361929999999996e-01,	 5.1618984040833281e-02,	 1.5434821156872731e+03,	 4.4664926518620305e+01,	 6.1208766140436569e+02,	 9.0897725257621332e+03,	 4.9651891657058246e+02,	 3.1099081637119785e+00 
1.2093950000000000e+00,	 2.8360089999999999e-01,	 5.1976626603688861e-02,	 1.5424937133338819e+03,	 4.0973640367573090e+01,	 6.1379980315252647e+02,	 9.1783533177697736e+03,	 4.9721286709711757e+02,	 3.1033746629066399e+00 
1.2112259999999999e+00,	 2.8358230000000001e-01,	 5.2298260556508720e-02,	 1.5416114598770750e+03,	 3.7421467106876037e+01,	 6.1533899324753429e+02,	 9.2583078725051291e+03,	 4.9783589266590968e+02,	 3.0975379734447954e+00 
1.2130719999999999e+00,	 2.8356359999999997e-01,	 5.2578629048914138e-02,	 1.5408545610775200e+03,	 3.4051985617499923e+01,	 6.1667314124447216e+02,	 9.3281222457825679e+03,	 4.9837529220153812e+02,	 3.0925104108479586e+00 
1.2149319999999999e+00,	 2.8354469999999998e-01,	 5.2812508686735926e-02,	 1.5402280908997827e+03,	 3.0885333681630584e+01,	 6.1778948869552733e+02,	 9.3865770619589202e+03,	 4.9882618618941069e+02,	 3.0883256845812554e+00 
1.2168079999999999e+00,	 2.8352569999999999e-01,	 5.3000503771823401e-02,	 1.5397366832581538e+03,	 2.7918091552094268e+01,	 6.1868211840966524e+02,	 9.4336009010656162e+03,	 4.9918642730810831e+02,	 3.0849992705701084e+00 
1.2186990000000000e+00,	 2.8350649999999999e-01,	 5.3142017915253983e-02,	 1.5393726364731624e+03,	 2.5134197003697139e+01,	 6.1936064711045105e+02,	 9.4691628736758230e+03,	 4.9946008924983619e+02,	 3.0824841583435050e+00 
1.2206049999999999e+00,	 2.8348719999999999e-01,	 5.3240999822553148e-02,	 1.5391314264028488e+03,	 2.2506262744901626e+01,	 6.1983491933568246e+02,	 9.4940645307308969e+03,	 4.9965128215092102e+02,	 3.0807405560663415e+00 
1.2225269999999999e+00,	 2.8346769999999999e-01,	 5.3299675280280213e-02,	 1.5389996647689845e+03,	 2.0002682271576102e+01,	 6.2012493955443642e+02,	 9.5089748412292593e+03,	 4.9976816168037226e+02,	 3.0796872764136172e+00 
1.2244640000000000e+00,	 2.8344809999999998e-01,	 5.3323511354683259e-02,	 1.5389687888448188e+03,	 1.7588745171522049e+01,	 6.2024720597648184e+02,	 9.5151030043952942e+03,	 4.9981742744075200e+02,	 3.0792629692604407e+00 
1.2264170000000001e+00,	 2.8342829999999997e-01,	 5.3315461246285660e-02,	 1.5390232983823971e+03,	 1.5249511428479689e+01,	 6.2022520174934630e+02,	 9.5133290226462723e+03,	 4.9980856146470325e+02,	 3.0793767165584058e+00 
1.2283860000000000e+00,	 2.8340830000000000e-01,	 5.3279534742865328e-02,	 1.5391555531036295e+03,	 1.2924750404133823e+01,	 6.2007406681854127e+02,	 9.5046018651274335e+03,	 4.9974766170243890e+02,	 3.0799740281017876e+00 
1.2303710000000001e+00,	 2.8338809999999998e-01,	 5.3218610780167042e-02,	 1.5393544199514047e+03,	 1.0585008844878809e+01,	 6.1980833281340142e+02,	 9.4896650054695911e+03,	 4.9964056628772778e+02,	 3.0809964523525104e+00 
1.2323720000000000e+00,	 2.8336780000000000e-01,	 5.3140397554329075e-02,	 1.5396067935102280e+03,	 8.2628571258944365e+00,	 6.1945529553536267e+02,	 9.4703211467220935e+03,	 4.9949825062244383e+02,	 3.0823510677740162e+00 
1.2343890000000000e+00,	 2.8334739999999997e-01,	 5.3043724513400774e-02,	 1.5399094865461102e+03,	 5.9035402618635349e+00,	 6.1901522824937956e+02,	 9.4463771608357947e+03,	 4.9932079480418173e+02,	 3.0840309851085039e+00 
1.2364230000000000e+00,	 2.8332679999999999e-01,	 5.2931526696929514e-02,	 1.5402520252313943e+03,	 3.5044708839174286e+00,	 6.1850557024684713e+02,	 9.4186351331947535e+03,	 4.9911519788981536e+02,	 3.0859729748284073e+00 
1.2384729999999999e+00,	 2.8330600000000000e-01,	 5.2806935700426459e-02,	 1.5406285643956458e+03,	 1.0590624762732441e+00,	 6.1793651530085253e+02,	 9.3878202117564524e+03,	 4.9888554003008568e+02,	 3.0881410760357801e+00 
1.2405409999999999e+00,	 2.8328500000000001e-01,	 5.2671678178566439e-02,	 1.5410336239049736e+03,	 -1.4374428752856994e+00,	 6.1731646744208274e+02,	 9.3543788651941632e+03,	 4.9863518215381657e+02,	 3.0905045401254663e+00 
1.2426250000000001e+00,	 2.8326380000000001e-01,	 5.2527150669002494e-02,	 1.5414614247807431e+03,	 -3.9868079737957363e+00,	 6.1665366386837434e+02,	 9.3186949852519338e+03,	 4.9836742164661666e+02,	 3.0930323964257771e+00 
1.2447260000000000e+00,	 2.8324250000000001e-01,	 5.2375936944281887e-02,	 1.5419108496002200e+03,	 -6.5917734200845741e+00,	 6.1595048908149226e+02,	 9.2812729937288368e+03,	 4.9808319454701945e+02,	 3.0957176563190028e+00 
1.2468440000000001e+00,	 2.8322110000000000e-01,	 5.2217914030065038e-02,	 1.5423765124360430e+03,	 -9.2480997457603547e+00,	 6.1521452896602318e+02,	 9.2422144127957508e+03,	 4.9778554162284013e+02,	 3.0985316146225839e+00 
1.2489790000000001e+00,	 2.8319939999999999e-01,	 5.2053508828285772e-02,	 1.5428519971501978e+03,	 -1.1954358470832329e+01,	 6.1445390762784666e+02,	 9.2017251655485270e+03,	 4.9747772752860823e+02,	 3.1014419813858911e+00 
1.2511319999999999e+00,	 2.8317759999999997e-01,	 5.1886070636189129e-02,	 1.5433410871590627e+03,	 -1.4709442212645992e+01,	 6.1366642499848399e+02,	 9.1603714132406712e+03,	 4.9715884220406207e+02,	 3.1044629034384306e+00 
1.2533030000000001e+00,	 2.8315550000000000e-01,	 5.1713560992617251e-02,	 1.5438364813056971e+03,	 -1.7508880384374685e+01,	 6.1286064539669360e+02,	 9.1179271077704707e+03,	 4.9683233579366839e+02,	 3.1075589334624087e+00 
1.2554909999999999e+00,	 2.8313329999999998e-01,	 5.1539862901697063e-02,	 1.5443418677341092e+03,	 -2.0352661315640830e+01,	 6.1203324383485892e+02,	 9.0750329135542379e+03,	 4.9649684460693874e+02,	 3.1107468075554587e+00 
1.2576970000000001e+00,	 2.8311100000000000e-01,	 5.1363591853882964e-02,	 1.5448514877559123e+03,	 -2.3233561747510691e+01,	 6.1119045565945635e+02,	 9.0315416168457723e+03,	 4.9615488130271245e+02,	 3.1139997709006630e+00 
1.2599220000000000e+00,	 2.8308839999999996e-01,	 5.1184282879127518e-02,	 1.5453589156124265e+03,	 -2.6145457401783293e+01,	 6.1034085418383995e+02,	 8.9875020319358009e+03,	 4.9580991476373407e+02,	 3.1172835138726902e+00 
1.2621640000000001e+00,	 2.8306559999999997e-01,	 5.1004553112174958e-02,	 1.5458663702900828e+03,	 -2.9087119192992599e+01,	 6.0948264521671172e+02,	 8.9433500141098939e+03,	 4.9546120944966759e+02,	 3.1206075654757539e+00 
1.2644249999999999e+00,	 2.8304269999999998e-01,	 5.0824588428513562e-02,	 1.5463738494732816e+03,	 -3.2054363064702777e+01,	 6.0861554528113788e+02,	 8.8991156111097534e+03,	 4.9510864215664498e+02,	 3.1239730135680945e+00 
1.2667050000000000e+00,	 2.8301959999999998e-01,	 5.0643472039256704e-02,	 1.5468768109104221e+03,	 -3.5040383203912391e+01,	 6.0774522263077472e+02,	 8.8547226711892854e+03,	 4.9475451184568863e+02,	 3.1273562875031331e+00 
1.2690030000000001e+00,	 2.8299629999999998e-01,	 5.0462329555253330e-02,	 1.5473754332879089e+03,	 -3.8041045468010061e+01,	 6.0687244468073993e+02,	 8.8103802280831042e+03,	 4.9439912775219557e+02,	 3.1307558626678214e+00 
1.2713200000000000e+00,	 2.8297279999999997e-01,	 5.0281367485677825e-02,	 1.5478694157609002e+03,	 -4.1051252655467138e+01,	 6.0599775704962815e+02,	 8.7661325811226125e+03,	 4.9404270957967861e+02,	 3.1341696839978566e+00 
1.2736559999999999e+00,	 2.8294910000000001e-01,	 5.0100696952506525e-02,	 1.5483579617467581e+03,	 -4.4064328509304474e+01,	 6.0512261420568484e+02,	 8.7220202017106949e+03,	 4.9368584839865036e+02,	 3.1375921502952413e+00 
1.2760110000000000e+00,	 2.8292519999999999e-01,	 4.9920409591627156e-02,	 1.5488410711481883e+03,	 -4.7073492791564576e+01,	 6.0424728680252451e+02,	 8.6780627574829705e+03,	 4.9332865373328656e+02,	 3.1410221969543555e+00 
1.2783860000000000e+00,	 2.8290110000000002e-01,	 4.9740651969743158e-02,	 1.5493189602973237e+03,	 -5.0070146546191012e+01,	 6.0337225658437762e+02,	 8.6342923234086738e+03,	 4.9297132165770364e+02,	 3.1444584147900057e+00 
1.2807800000000000e+00,	 2.8287679999999998e-01,	 4.9561205482587578e-02,	 1.5497920605841687e+03,	 -5.3045362289637339e+01,	 6.0249732116898986e+02,	 8.5906676759789389e+03,	 4.9261376913701059e+02,	 3.1479014485520693e+00 
1.2831939999999999e+00,	 2.8285230000000000e-01,	 4.9381972900569393e-02,	 1.5502611948410163e+03,	 -5.5987691031545594e+01,	 6.0162245733873408e+02,	 8.5471714069381142e+03,	 4.9225598619234836e+02,	 3.1513519526099882e+00 
1.2856280000000000e+00,	 2.8282760000000001e-01,	 4.9203194972387072e-02,	 1.5507275570038114e+03,	 -5.8884147328609941e+01,	 6.0074672926122321e+02,	 8.5038317054576546e+03,	 4.9189758918648522e+02,	 3.1548134435471007e+00 
1.2880810000000000e+00,	 2.8280279999999997e-01,	 4.9024773632769796e-02,	 1.5511943650813673e+03,	 -6.1719371449409209e+01,	 5.9986746795302224e+02,	 8.4605937936533301e+03,	 4.9153748328140136e+02,	 3.1582977625115740e+00 
1.2905549999999999e+00,	 2.8277769999999997e-01,	 4.8845136949729903e-02,	 1.5516590057794967e+03,	 -6.4475220080128310e+01,	 5.9898880026925963e+02,	 8.4172450557966640e+03,	 4.9117735675450183e+02,	 3.1617865891174826e+00 
1.2930500000000000e+00,	 2.8275240000000001e-01,	 4.8666216129931078e-02,	 1.5521267551241949e+03,	 -6.7131909382503125e+01,	 5.9810662981027497e+02,	 8.3740612756361952e+03,	 4.9081552877888913e+02,	 3.1652989070950590e+00 
1.2955639999999999e+00,	 2.8272690000000000e-01,	 4.8486650574953105e-02,	 1.5525969820089485e+03,	 -6.9665188310763114e+01,	 5.9722355828958712e+02,	 8.3308449677755034e+03,	 4.9045306388208303e+02,	 3.1688233853577419e+00 
1.2981000000000000e+00,	 2.8270109999999998e-01,	 4.8306901241908520e-02,	 1.5530697800337930e+03,	 -7.2050132702724241e+01,	 5.9634163940297651e+02,	 8.2877043878252298e+03,	 4.9009080454492238e+02,	 3.1723512153056719e+00 
1.3006570000000000e+00,	 2.8267520000000002e-01,	 4.8129081647991213e-02,	 1.5535490061994137e+03,	 -7.4257104209739055e+01,	 5.9545970618956233e+02,	 8.2449854056303193e+03,	 4.8972827134773206e+02,	 3.1758890977542773e+00 
1.3032340000000000e+00,	 2.8264909999999999e-01,	 4.7952125907654727e-02,	 1.5540295390759438e+03,	 -7.6251365474587118e+01,	 5.9458766748222820e+02,	 8.2026409256914139e+03,	 4.8936954138265992e+02,	 3.1793951008782786e+00 
1.3058330000000000e+00,	 2.8262270000000000e-01,	 4.7778164489956802e-02,	 1.5545085329516241e+03,	 -7.7996585192170130e+01,	 5.9373443340094786e+02,	 8.1611551678119658e+03,	 4.8901829236043227e+02,	 3.1828339441728528e+00 
1.3084530000000001e+00,	 2.8259610000000002e-01,	 4.7610191995929682e-02,	 1.5549836626097449e+03,	 -7.9452512726726908e+01,	 5.9290868314563033e+02,	 8.1211527831561943e+03,	 4.8867811714420719e+02,	 3.1861712522927212e+00 
1.3110949999999999e+00,	 2.8256929999999997e-01,	 4.7450509925348432e-02,	 1.5554480102980388e+03,	 -8.0574722791641022e+01,	 5.9212491356850046e+02,	 8.0832154703893011e+03,	 4.8835501705139222e+02,	 3.1893469059166084e+00 
1.3137589999999999e+00,	 2.8254229999999997e-01,	 4.7302284854659954e-02,	 1.5558922861593014e+03,	 -8.1313776505591193e+01,	 5.9140284987753398e+02,	 8.0481390192309345e+03,	 4.8805716520895612e+02,	 3.1922810516286582e+00 
1.3164450000000001e+00,	 2.8251500000000002e-01,	 4.7169876724263093e-02,	 1.5563040163631213e+03,	 -8.1617007088864440e+01,	 5.9076583821657164e+02,	 8.0169661974182936e+03,	 4.8779424639713841e+02,	 3.1948770867482303e+00 
1.3191530000000000e+00,	 2.8248760000000001e-01,	 4.7055474318200299e-02,	 1.5566757241851878e+03,	 -8.1443549453857202e+01,	 5.9023051228237068e+02,	 7.9902754257434026e+03,	 4.8757318749660152e+02,	 3.1970683096319794e+00 
1.3218829999999999e+00,	 2.8245989999999999e-01,	 4.6967664997506375e-02,	 1.5569901368898463e+03,	 -8.0749476208455121e+01,	 5.8982539189949500e+02,	 7.9698908221199981e+03,	 4.8740582937278367e+02,	 3.1987361939524575e+00 
1.3246359999999999e+00,	 2.8243200000000002e-01,	 4.6913961683376297e-02,	 1.5572353114670727e+03,	 -7.9443114982007245e+01,	 5.8957591342672345e+02,	 7.9574107958722916e+03,	 4.8730273943776064e+02,	 3.1997776393191000e+00 
1.3274120000000000e+00,	 2.8240379999999998e-01,	 4.6891676508106953e-02,	 1.5573950095367247e+03,	 -7.7519550136394372e+01,	 5.8950646380246360e+02,	 7.9526939436644052e+03,	 4.8727403746055626e+02,	 3.2000947501432675e+00 
1.3302099999999999e+00,	 2.8237540000000000e-01,	 4.6903274217355337e-02,	 1.5574832151498913e+03,	 -7.5010578679998432e+01,	 5.8960490480626095e+02,	 7.9559892215506670e+03,	 4.8731472042670237e+02,	 3.1997565658506755e+00 
1.3330320000000000e+00,	 2.8234680000000001e-01,	 4.6949998095842022e-02,	 1.5574551877225799e+03,	 -7.1888657463505382e+01,	 5.8988040810981488e+02,	 7.9676360605051859e+03,	 4.8742856033411317e+02,	 3.1986501035807695e+00 
1.3358770000000000e+00,	 2.8231790000000001e-01,	 4.7030616436386917e-02,	 1.5573479398571885e+03,	 -6.8191612911359414e+01,	 5.9032685859212586e+02,	 7.9873580262626456e+03,	 4.8761298039065082e+02,	 3.1968799870107918e+00 
1.3387460000000000e+00,	 2.8228880000000001e-01,	 4.7139136782137825e-02,	 1.5571683240492280e+03,	 -6.4017425892911888e+01,	 5.9090214487005323e+02,	 8.0135901928341927e+03,	 4.8785051722577305e+02,	 3.1945926828313604e+00 
1.3416390000000000e+00,	 2.8225950000000000e-01,	 4.7267208046126177e-02,	 1.5569318010908055e+03,	 -5.9456947910828987e+01,	 5.9156917635040634e+02,	 8.0444327406261082e+03,	 4.8812579112115316e+02,	 3.1919367973365387e+00 
1.3445549999999999e+00,	 2.8222989999999998e-01,	 4.7405015809722076e-02,	 1.5566617705609224e+03,	 -5.4622510625842018e+01,	 5.9227982025850440e+02,	 8.0775781622510958e+03,	 4.8841889251960828e+02,	 3.1891063969437097e+00 
1.3474960000000000e+00,	 2.8220010000000001e-01,	 4.7542787086305049e-02,	 1.5563884093628103e+03,	 -4.9632138654995472e+01,	 5.9297802728874240e+02,	 8.1106035996667651e+03,	 4.8870669319267165e+02,	 3.1863274988294972e+00 
1.3504609999999999e+00,	 2.8216999999999998e-01,	 4.7669546539023666e-02,	 1.5561350403025203e+03,	 -4.4599147182554617e+01,	 5.9361854860598987e+02,	 8.1410124871960679e+03,	 4.8897056685655559e+02,	 3.1837785849620519e+00 
1.3534500000000000e+00,	 2.8213969999999999e-01,	 4.7777979076605748e-02,	 1.5559267910735275e+03,	 -3.9620136281971824e+01,	 5.9415963527776819e+02,	 8.1669680710389239e+03,	 4.8919336581911665e+02,	 3.1816276790803557e+00 
1.3564650000000000e+00,	 2.8210910000000000e-01,	 4.7860915135336413e-02,	 1.5557793930117932e+03,	 -3.4766734751817630e+01,	 5.9457410924293310e+02,	 8.1868518185089961e+03,	 4.8936396186299180e+02,	 3.1799804009381449e+00 
1.3595040000000000e+00,	 2.8207830000000000e-01,	 4.7915418520902461e-02,	 1.5557136361715952e+03,	 -3.0086499987412420e+01,	 5.9484284637233509e+02,	 8.1998794266527148e+03,	 4.8947454135810455e+02,	 3.1789284309360513e+00 
1.3625689999999999e+00,	 2.8204720000000000e-01,	 4.7939369573867532e-02,	 1.5557097216456400e+03,	 -2.5601185952363380e+01,	 5.9496831334789931e+02,	 8.2057086478930996e+03,	 4.8952615974156828e+02,	 3.1784212681852519e+00 
1.3656590000000000e+00,	 2.8201579999999998e-01,	 4.7934050902511044e-02,	 1.5557883931839733e+03,	 -2.1301671912936524e+01,	 5.9494321652695328e+02,	 8.2044521660692408e+03,	 4.8951583509094138e+02,	 3.1785166174566357e+00 
1.3687739999999999e+00,	 2.8198419999999996e-01,	 4.7902670102150241e-02,	 1.5559406361895412e+03,	 -1.7204048007300013e+01,	 5.9478842570343409e+02,	 8.1969477728060610e+03,	 4.8945215045150525e+02,	 3.1791376225340668e+00 
1.3719159999999999e+00,	 2.8195239999999999e-01,	 4.7833399484272843e-02,	 1.5561997036039929e+03,	 -1.3418769516080699e+01,	 5.9445468578527823e+02,	 8.1805016985599796e+03,	 4.8931481368252196e+02,	 3.1804832238228506e+00 
1.3750830000000001e+00,	 2.8192020000000001e-01,	 4.7759432323213238e-02,	 1.5563943258443633e+03,	 -1.1052540602924735e+01,	 5.9410846642403271e+02,	 8.1630947026519225e+03,	 4.8917230077089852e+02,	 3.1817696280381349e+00 
1.1565000000000001e+00,	 2.8488340000000001e-01,	 5.1759305251194612e-02,	 1.5445719663273424e+03,	 2.2127136563798018e+01,	 6.1212849744593518e+02,	 9.1150902741120863e+03,	 4.9653547917282532e+02,	 3.1110172722673948e+00 
1.1579079999999999e+00,	 2.8486970000000000e-01,	 5.1562225146707781e-02,	 1.5450325853123834e+03,	 2.4262208540213312e+01,	 6.1121228618100611e+02,	 9.0667922328439836e+03,	 4.9616374206208081e+02,	 3.1143409760043919e+00 
1.1593279999999999e+00,	 2.8485590000000000e-01,	 5.1325201948693167e-02,	 1.5456873645688077e+03,	 2.7120547643875398e+01,	 6.1011692915183585e+02,	 9.0089396996666146e+03,	 4.9571895375774238e+02,	 3.1185518777895775e+00 
1.1607580000000000e+00,	 2.8484199999999998e-01,	 5.1101142518031419e-02,	 1.5463093266622345e+03,	 3.0077108360553186e+01,	 6.0908033705080697e+02,	 8.9543718828711826e+03,	 4.9529766008852681e+02,	 3.1225703996664356e+00 
1.1621999999999999e+00,	 2.8482799999999997e-01,	 5.0879318433930044e-02,	 1.5469179644104424e+03,	 3.3031418244604424e+01,	 6.0805865735875602e+02,	 8.9005470165595252e+03,	 4.9488207620250404e+02,	 3.1265439978616363e+00 
1.1636530000000000e+00,	 2.8481390000000001e-01,	 5.0658631505099805e-02,	 1.5475226112446655e+03,	 3.5944248365129070e+01,	 6.0703445065378492e+02,	 8.8470143163299417e+03,	 4.9446511383193376e+02,	 3.1305342874488837e+00 
1.1651180000000001e+00,	 2.8479959999999999e-01,	 5.0437821538458813e-02,	 1.5481188508302494e+03,	 3.8809010309480492e+01,	 6.0601213158822998e+02,	 8.7936176100228058e+03,	 4.9404856900226247e+02,	 3.1345201936452249e+00 
1.1665939999999999e+00,	 2.8478529999999996e-01,	 5.0219875669341593e-02,	 1.5487062242366260e+03,	 4.1628038259694080e+01,	 6.0499508699793296e+02,	 8.7409254965017444e+03,	 4.9363382448342895e+02,	 3.1384915524165771e+00 
1.1680820000000001e+00,	 2.8477079999999999e-01,	 5.0005204448345782e-02,	 1.5492788119078136e+03,	 4.4401111807412640e+01,	 6.0399279104877189e+02,	 8.6891421045857296e+03,	 4.9322475316737513e+02,	 3.1424110850627986e+00 
1.1695810000000000e+00,	 2.8475620000000001e-01,	 4.9796324994123467e-02,	 1.5498338880136466e+03,	 4.7124013213641732e+01,	 6.0301144395225447e+02,	 8.6387873649579178e+03,	 4.9282390281514444e+02,	 3.1462559677649464e+00 
1.1710929999999999e+00,	 2.8474149999999998e-01,	 4.9593505881777931e-02,	 1.5503643018808052e+03,	 4.9789932544780456e+01,	 6.0206043230836065e+02,	 8.5900330397327962e+03,	 4.9243513224513066e+02,	 3.1499856444799641e+00 
1.1726160000000001e+00,	 2.8472670000000000e-01,	 4.9399995600642246e-02,	 1.5508687156549302e+03,	 5.2386098815142276e+01,	 6.0114484404555719e+02,	 8.5435029608986970e+03,	 4.9206055242825670e+02,	 3.1535818488870819e+00 
1.1741520000000001e+00,	 2.8471180000000001e-01,	 4.9216527007260188e-02,	 1.5513404502144967e+03,	 5.4895599564428792e+01,	 6.0027590727695815e+02,	 8.4994693966502564e+03,	 4.9170479446734208e+02,	 3.1569987303456104e+00 
1.1757000000000000e+00,	 2.8469679999999997e-01,	 4.9045492686587158e-02,	 1.5517722658877888e+03,	 5.7298445718386034e+01,	 5.9946489055472557e+02,	 8.4584890514254894e+03,	 4.9137251759893093e+02,	 3.1601884695153997e+00 
1.1772600000000000e+00,	 2.8468159999999998e-01,	 4.8890078115608540e-02,	 1.5521591289091843e+03,	 5.9568940274082379e+01,	 5.9872343296248664e+02,	 8.4212570633682917e+03,	 4.9106854265672348e+02,	 3.1631058501716907e+00 
1.1788330000000000e+00,	 2.8466629999999998e-01,	 4.8752451087700446e-02,	 1.5524904590361698e+03,	 6.1675986369630976e+01,	 5.9806920030358083e+02,	 8.3883748635583943e+03,	 4.9080017092325994e+02,	 3.1656775465297970e+00 
1.1804180000000000e+00,	 2.8465089999999998e-01,	 4.8636668258959875e-02,	 1.5527566423175463e+03,	 6.3583744393788827e+01,	 5.9751980042527146e+02,	 8.3607657530771612e+03,	 4.9057468906587081e+02,	 3.1678314745137799e+00 
1.1820160000000000e+00,	 2.8463539999999998e-01,	 4.8546782727555637e-02,	 1.5529455549171678e+03,	 6.5248693859471132e+01,	 5.9709659939417804e+02,	 8.3394035284903130e+03,	 4.9040093039876950e+02,	 3.1694795044282063e+00 
1.1836260000000001e+00,	 2.8461969999999998e-01,	 4.8488139334524963e-02,	 1.5530464465766668e+03,	 6.6616862910908750e+01,	 5.9682517518191344e+02,	 8.3255434300434899e+03,	 4.9028945612769667e+02,	 3.1705240912229797e+00 
1.1852499999999999e+00,	 2.8460389999999997e-01,	 4.8463431738887466e-02,	 1.5530466149299614e+03,	 6.7652064972078250e+01,	 5.9672464554125452e+02,	 8.3198994240346601e+03,	 4.9024816204308007e+02,	 3.1708826843598974e+00 
1.1868860000000001e+00,	 2.8458800000000001e-01,	 4.8480459334976550e-02,	 1.5529283239676226e+03,	 6.8286307597783619e+01,	 5.9683239441596959e+02,	 8.3243254438802778e+03,	 4.9029242140445001e+02,	 3.1704119716140644e+00 
1.1885360000000000e+00,	 2.8457199999999999e-01,	 4.8543169421612714e-02,	 1.5526808348882914e+03,	 6.8467469013598460e+01,	 5.9716644823691502e+02,	 8.3397583095819191e+03,	 4.9042961330853274e+02,	 3.1690371877513348e+00 
1.1901980000000001e+00,	 2.8455579999999997e-01,	 4.8654810350619589e-02,	 1.5522918354167434e+03,	 6.8124999926602129e+01,	 5.9774585506451149e+02,	 8.3670486623498182e+03,	 4.9066747778819376e+02,	 3.1666782048933020e+00 
1.1918750000000000e+00,	 2.8453950000000000e-01,	 4.8821401214822736e-02,	 1.5517501381166273e+03,	 6.7250579566802955e+01,	 5.9859835131757404e+02,	 8.4076707036635435e+03,	 4.9101724445617066e+02,	 3.1632427228619702e+00 
1.1935640000000001e+00,	 2.8452309999999997e-01,	 4.9043872771700525e-02,	 1.5510629146228018e+03,	 6.5823124855733425e+01,	 5.9972058440766750e+02,	 8.4618174154163116e+03,	 4.9147730066418580e+02,	 3.1587602650306152e+00 
1.1952670000000001e+00,	 2.8450650000000000e-01,	 4.9316373230062688e-02,	 1.5502380527331356e+03,	 6.3821333203361490e+01,	 6.0108634566374826e+02,	 8.5282108801140967e+03,	 4.9203661023973018e+02,	 3.1533247443704164e+00 
1.1969840000000000e+00,	 2.8448989999999996e-01,	 4.9638986904249338e-02,	 1.5492811804441599e+03,	 6.1331028514214601e+01,	 6.0269144624634441e+02,	 8.6069221446131705e+03,	 4.9269312300383501e+02,	 3.1469784766673565e+00 
1.1987150000000000e+00,	 2.8447299999999998e-01,	 5.0001274264350012e-02,	 1.5482195283436990e+03,	 5.8415408654973064e+01,	 6.0448641084507915e+02,	 8.6955599165933036e+03,	 4.9342625870055093e+02,	 3.1399244289490280e+00 
1.2004589999999999e+00,	 2.8445609999999999e-01,	 5.0393409707411484e-02,	 1.5470909467983238e+03,	 5.5158848795419949e+01,	 6.0640565346468043e+02,	 8.7915798201657708e+03,	 4.9420895140875865e+02,	 3.1324279471751817e+00 
1.2022180000000000e+00,	 2.8443900000000000e-01,	 5.0800592977441585e-02,	 1.5459294824342010e+03,	 5.1675622156403840e+01,	 6.0838550445403985e+02,	 8.8915520891068427e+03,	 4.9501506422652329e+02,	 3.1247390855045101e+00 
1.2039910000000000e+00,	 2.8442170000000000e-01,	 5.1209650760691811e-02,	 1.5447726847234258e+03,	 4.8086386451521491e+01,	 6.1035680775626099e+02,	 8.9921914437995092e+03,	 4.9581639465741944e+02,	 3.1171234908961893e+00 