TITLE = "Final State"
VARIABLES = "X", "Y", "rho", "u", "v", "T", "p", "c", "M"
ZONE I=77, J=25, DATAPACKING=POINT, STRANDID=10000, SOLUTIONTIME=0.000241
2.1589400000000000e-01,	 1.8936299999999998e-01,	 1.1583036375952005e-02,	 1.7359246476380847e+03,	 3.9499376289843141e-01,	 3.0011647302863491e+02,	 1.0000971546326812e+03,	 3.4767535243206891e+02,	 4.9929472435520657e+00 
2.2017450000000000e-01,	 1.8988320000000000e-01,	 1.1587171785885957e-02,	 1.7358914641759720e+03,	 5.1294571563113034e-01,	 3.0018325786813273e+02,	 1.0006768430909115e+03,	 3.4771403433240715e+02,	 4.9922964521550375e+00 
2.2445490000000001e-01,	 1.9040340000000000e-01,	 1.1593189151666671e-02,	 1.7358391493803465e+03,	 6.8275119694784270e-01,	 3.0027474345212113e+02,	 1.0015016377433674e+03,	 3.4776701596498486e+02,	 4.9913856230319373e+00 
2.2873540000000001e-01,	 1.9092370000000000e-01,	 1.1598901233040779e-02,	 1.7357920944923371e+03,	 8.4722581270123021e-01,	 3.0035663045599676e+02,	 1.0022683387200906e+03,	 3.4781443197042677e+02,	 4.9905700905529988e+00 
2.3301580000000000e-01,	 1.9144390000000000e-01,	 1.1604270086350947e-02,	 1.7357513479902932e+03,	 9.9985967429333955e-01,	 3.0042739849762154e+02,	 1.0029685218463466e+03,	 3.4785540442453441e+02,	 4.9898653690334909e+00 
2.3729629999999999e-01,	 1.9196410000000000e-01,	 1.1609266997305630e-02,	 1.7357175887896972e+03,	 1.1364811962125452e+00,	 3.0048626514190926e+02,	 1.0035970190758404e+03,	 3.4788948267017940e+02,	 4.9892797779613769e+00 
2.4157670000000001e-01,	 1.9248430000000000e-01,	 1.1613838526139862e-02,	 1.7356905809509392e+03,	 1.2554668570727348e+00,	 3.0053358639194414e+02,	 1.0041503291915146e+03,	 3.4791687479922859e+02,	 4.9888095712725002e+00 
2.4585720000000000e-01,	 1.9300460000000000e-01,	 1.1617971418864755e-02,	 1.7356697333478767e+03,	 1.3575126701702733e+00,	 3.0057064564341590e+02,	 1.0046315328094801e+03,	 3.4793832521622409e+02,	 4.9884423141435974e+00 
2.5013760000000002e-01,	 1.9352480000000000e-01,	 1.1621566264173759e-02,	 1.7356544688532108e+03,	 1.4422696959392727e+00,	 3.0059821131832183e+02,	 1.0050345513936762e+03,	 3.4795427975969898e+02,	 4.9881699092485512e+00 
2.5441799999999998e-01,	 1.9404500000000000e-01,	 1.1624725058080602e-02,	 1.7356443021117916e+03,	 1.5103050922152119e+00,	 3.0061720810238705e+02,	 1.0053712563259487e+03,	 3.4796527434921916e+02,	 4.9879832476634922e+00 
2.5869850000000000e-01,	 1.9456530000000000e-01,	 1.1627438181846542e-02,	 1.7356385954542347e+03,	 1.5629040076213285e+00,	 3.0062876371078050e+02,	 1.0056445575467343e+03,	 3.4797196210976034e+02,	 4.9878711164286145e+00 
2.6297890000000002e-01,	 1.9508550000000000e-01,	 1.1629651354093804e-02,	 1.7356372948064188e+03,	 1.6012406888122239e+00,	 3.0063398081399248e+02,	 1.0058534276711842e+03,	 3.4797498144454181e+02,	 4.9878241999657202e+00 
2.6725939999999998e-01,	 1.9560569999999999e-01,	 1.1631464711216231e-02,	 1.7356376152612779e+03,	 1.6266665340625877e+00,	 3.0063387439938742e+02,	 1.0060099095951795e+03,	 3.4797491985865020e+02,	 4.9878260715878913e+00 
2.7153980000000000e-01,	 1.9612589999999999e-01,	 1.1632905465570435e-02,	 1.7356412837070188e+03,	 1.6405069146973459e+00,	 3.0062925316448082e+02,	 1.0061190550649563e+03,	 3.4797224537622668e+02,	 4.9878749873393220e+00 
2.7582030000000002e-01,	 1.9664619999999999e-01,	 1.1634003148229179e-02,	 1.7356471029495883e+03,	 1.6441530980169350e+00,	 3.0062090005068103e+02,	 1.0061860345150383e+03,	 3.4796741106299015e+02,	 4.9879610173502833e+00 
2.8010069999999998e-01,	 1.9716639999999999e-01,	 1.1634702165562167e-02,	 1.7356545055025674e+03,	 1.6386970916355668e+00,	 3.0060954870243745e+02,	 1.0062084946440533e+03,	 3.4796084143235709e+02,	 4.9880764511766689e+00 
2.8438120000000000e-01,	 1.9768659999999999e-01,	 1.1635144907440395e-02,	 1.7356631929923626e+03,	 1.6253369642529836e+00,	 3.0059576374509754e+02,	 1.0062006413212640e+03,	 3.4795286317556781e+02,	 4.9882157547535355e+00 
2.8866160000000002e-01,	 1.9820689999999999e-01,	 1.1635341853614851e-02,	 1.7356729268310573e+03,	 1.6053008777848585e+00,	 3.0058003139566273e+02,	 1.0061650104680317e+03,	 3.4794375761202127e+02,	 4.9883742162922511e+00 
2.9294209999999998e-01,	 1.9872709999999999e-01,	 1.1635225207839914e-02,	 1.7356832215447705e+03,	 1.5794052613981371e+00,	 3.0056284160664057e+02,	 1.0060973828183164e+03,	 3.4793380823968243e+02,	 4.9885463816385043e+00 
2.9722250000000000e-01,	 1.9924729999999999e-01,	 1.1634921836758152e-02,	 1.7356940238029624e+03,	 1.5486716679858996e+00,	 3.0054455026740675e+02,	 1.0060099239085665e+03,	 3.4792322098260098e+02,	 4.9887291506483864e+00 
3.0150290000000002e-01,	 1.9976749999999999e-01,	 1.1634434097054541e-02,	 1.7357050316647633e+03,	 1.5139085043977842e+00,	 3.0052547119270639e+02,	 1.0059038911169952e+03,	 3.4791217743103886e+02,	 4.9889190562631800e+00 
3.0578339999999998e-01,	 2.0028779999999999e-01,	 1.1633800423172563e-02,	 1.7357162179835088e+03,	 1.4759802971817533e+00,	 3.0050584766189047e+02,	 1.0057834248509899e+03,	 3.4790081836592827e+02,	 4.9891140058015546e+00 
3.1006380000000000e-01,	 2.0080799999999999e-01,	 1.1632949039186649e-02,	 1.7357273149608441e+03,	 1.4353914865096891e+00,	 3.0048595813759465e+02,	 1.0056432549496623e+03,	 3.4788930495224042e+02,	 4.9893109209283297e+00 
3.1434430000000002e-01,	 2.0132819999999998e-01,	 1.1632018543703418e-02,	 1.7357383173635421e+03,	 1.3927933461392428e+00,	 3.0046595852257565e+02,	 1.0054958878130826e+03,	 3.4787772742631148e+02,	 4.9895084948622506e+00 
3.1862469999999998e-01,	 2.0184849999999999e-01,	 1.1631007564986987e-02,	 1.7357484185867665e+03,	 1.3490317759574109e+00,	 3.0044741525924712e+02,	 1.0053464479013155e+03,	 3.4786699261983256e+02,	 4.9896914040375870e+00 
3.2290520000000000e-01,	 2.0236869999999998e-01,	 1.1629836739888124e-02,	 1.7357591201853265e+03,	 1.3042415993806249e+00,	 3.0042750601877833e+02,	 1.0051786327038288e+03,	 3.4785546667220615e+02,	 4.9898874000492537e+00 
3.2718560000000002e-01,	 2.0288889999999998e-01,	 1.1628619908537412e-02,	 1.7357704704624923e+03,	 1.2584662417854755e+00,	 3.0040646627924423e+02,	 1.0050030727558787e+03,	 3.4784328583588001e+02,	 4.9900946700671849e+00 
3.3146609999999999e-01,	 2.0340909999999998e-01,	 1.1627380104683628e-02,	 1.7357804628368644e+03,	 1.2170591941438895e+00,	 3.0038749511609478e+02,	 1.0048324619180643e+03,	 3.4783230222424982e+02,	 4.9902808865466790e+00 
3.3574650000000000e-01,	 2.0392939999999998e-01,	 1.1626141349521075e-02,	 1.7357901984804566e+03,	 1.1711017945673956e+00,	 3.0036922802690970e+02,	 1.0046643101968575e+03,	 3.4782172591799520e+02,	 4.9904605267491231e+00 
3.4002700000000002e-01,	 2.0444959999999998e-01,	 1.1624730359264847e-02,	 1.7357997885987838e+03,	 1.1207656725094026e+00,	 3.0035095497105135e+02,	 1.0044812688794051e+03,	 3.4781114583538340e+02,	 4.9906398090143176e+00 
3.4430739999999999e-01,	 2.0496979999999998e-01,	 1.1623356183610942e-02,	 1.7358091777228033e+03,	 1.0754050357513054e+00,	 3.0033316336726244e+02,	 1.0043030332744506e+03,	 3.4780084420384156e+02,	 4.9908145416525116e+00 
3.4858790000000001e-01,	 2.0549009999999998e-01,	 1.1621985638636667e-02,	 1.7358183616602780e+03,	 1.0309716244344211e+00,	 3.0031593453761582e+02,	 1.0041270070973164e+03,	 3.4779086813698336e+02,	 4.9909840276315531e+00 
3.5286830000000002e-01,	 2.0601029999999998e-01,	 1.1620553187495022e-02,	 1.7358272105629499e+03,	 9.8719280213246385e-01,	 3.0029931776348621e+02,	 1.0039476923851068e+03,	 3.4778124619958442e+02,	 4.9911474820668440e+00 
3.5714869999999999e-01,	 2.0653049999999998e-01,	 1.1619139400542204e-02,	 1.7358358385310935e+03,	 9.4425125612582184e-01,	 3.0028332892519660e+02,	 1.0037721027885144e+03,	 3.4777198761690590e+02,	 4.9913050997877964e+00 
3.6142920000000001e-01,	 2.0705069999999998e-01,	 1.1617761251160937e-02,	 1.7358441026941869e+03,	 9.0184176904684454e-01,	 3.0026804952661553e+02,	 1.0036019759462171e+03,	 3.4776313961586959e+02,	 4.9914557905225987e+00 
3.6570960000000002e-01,	 2.0757099999999998e-01,	 1.1616434414910521e-02,	 1.7358522001115389e+03,	 8.6043267582922922e-01,	 3.0025339361389035e+02,	 1.0034383773587887e+03,	 3.4775465245177469e+02,	 4.9916008344510479e+00 
3.6999009999999999e-01,	 2.0809119999999998e-01,	 1.1615044897893605e-02,	 1.7358598982658773e+03,	 8.1985356125681186e-01,	 3.0023942632887099e+02,	 1.0032716769009787e+03,	 3.4774656387569314e+02,	 4.9917390197317069e+00 
3.7427050000000001e-01,	 2.0861140000000000e-01,	 1.1613748555428216e-02,	 1.7358673424798039e+03,	 7.8022505534038245e-01,	 3.0022611299121616e+02,	 1.0031152203338615e+03,	 3.4773885383107381e+02,	 4.9918710512228257e+00 
3.7855100000000003e-01,	 2.0913169999999998e-01,	 1.1612504898486602e-02,	 1.7358745419914101e+03,	 7.4161274197080640e-01,	 3.0021344435124377e+02,	 1.0029654779389023e+03,	 3.4773151698623019e+02,	 4.9919970310850266e+00 
3.8283139999999999e-01,	 2.0965190000000000e-01,	 1.1611239892059784e-02,	 1.7358813232372879e+03,	 7.0378191212977104e-01,	 3.0020148486962262e+02,	 1.0028162696717028e+03,	 3.4772459069731383e+02,	 4.9921159226158833e+00 
3.8711190000000001e-01,	 2.1017210000000000e-01,	 1.1610039501435791e-02,	 1.7358877982251961e+03,	 6.6675312350639127e-01,	 3.0019023641315175e+02,	 1.0026750254129995e+03,	 3.4771807607003927e+02,	 4.9922280310938216e+00 
3.9139230000000003e-01,	 2.1069230000000000e-01,	 1.1608913471257603e-02,	 1.7358938740964336e+03,	 6.3046678010847079e-01,	 3.0017969709821108e+02,	 1.0025425790526028e+03,	 3.4771197203660284e+02,	 4.9923331038042891e+00 
3.9567279999999999e-01,	 2.1121260000000000e-01,	 1.1607862882061233e-02,	 1.7358996353385869e+03,	 5.9495802878643733e-01,	 3.0016985965560821e+02,	 1.0024189982611545e+03,	 3.4770627440843941e+02,	 4.9924314430308891e+00 
3.9995320000000001e-01,	 2.1173280000000000e-01,	 1.1606800202542237e-02,	 1.7359048911995365e+03,	 5.5992878511769750e-01,	 3.0016080674375723e+02,	 1.0022969990730602e+03,	 3.4770103108056213e+02,	 4.9925218113658199e+00 
4.0423360000000003e-01,	 2.1225300000000000e-01,	 1.1605855867815722e-02,	 1.7359097346678263e+03,	 5.2538141940651972e-01,	 3.0015251979130312e+02,	 1.0021877821763843e+03,	 3.4769623131700888e+02,	 4.9926046296133988e+00 
4.0851409999999999e-01,	 2.1277330000000000e-01,	 1.1605003960563621e-02,	 1.7359142001217001e+03,	 4.9131948198683201e-01,	 3.0014499471247871e+02,	 1.0020890945055693e+03,	 3.4769187276964647e+02,	 4.9926800296576914e+00 
4.1279450000000001e-01,	 2.1329350000000000e-01,	 1.1604160952504492e-02,	 1.7359180993613368e+03,	 4.5742559359718071e-01,	 3.0013831031649215e+02,	 1.0019939855170165e+03,	 3.4768800110238595e+02,	 4.9927468135934978e+00 
4.1707499999999997e-01,	 2.1381370000000000e-01,	 1.1603414848024289e-02,	 1.7359215533217553e+03,	 4.2367249265719437e-01,	 3.0013247651314543e+02,	 1.0019100864676843e+03,	 3.4768462207143415e+02,	 4.9928052459745436e+00 
4.2135539999999999e-01,	 2.1433389999999999e-01,	 1.1602773919024598e-02,	 1.7359244749725453e+03,	 3.8995623567950449e-01,	 3.0012749390525596e+02,	 1.0018381125690676e+03,	 3.4768173604032023e+02,	 4.9928550706813937e+00 
4.2563590000000001e-01,	 2.1485420000000000e-01,	 1.1602238783034007e-02,	 1.7359269638610508e+03,	 3.5629234091894801e-01,	 3.0012335229061273e+02,	 1.0017780821637668e+03,	 3.4767933711192126e+02,	 4.9928966582965391e+00 
4.2991629999999997e-01,	 2.1537439999999999e-01,	 1.1601710307381378e-02,	 1.7359288438975636e+03,	 3.2236538478740218e-01,	 3.0012013612792487e+02,	 1.0017217170168739e+03,	 3.4767747421738386e+02,	 4.9929287991321605e+00 
4.3419679999999999e-01,	 2.1589459999999999e-01,	 1.1601324734752998e-02,	 1.7359302092117166e+03,	 2.8819310027751921e-01,	 3.0011780455470091e+02,	 1.0016806437607426e+03,	 3.4767612369643189e+02,	 4.9929521034634687e+00 
4.3847720000000001e-01,	 2.1641489999999999e-01,	 1.1601058482227283e-02,	 1.7359311749235053e+03,	 2.5388578933251182e-01,	 3.0011631779838490e+02,	 1.0016526928857112e+03,	 3.4767526251741293e+02,	 4.9929672330437649e+00 
4.4275769999999998e-01,	 2.1693509999999999e-01,	 1.1600797082780931e-02,	 1.7359315108229780e+03,	 2.1913968964078895e-01,	 3.0011571397187072e+02,	 1.0016281080129039e+03,	 3.4767491276027715e+02,	 4.9929732084285678e+00 
4.4703809999999999e-01,	 2.1745529999999999e-01,	 1.1600658245591970e-02,	 1.7359314443118369e+03,	 1.8410696392710246e-01,	 3.0011600192753156e+02,	 1.0016170816598018e+03,	 3.4767507955416795e+02,	 4.9929706100901488e+00 
4.5131850000000001e-01,	 2.1797549999999999e-01,	 1.1600611411713313e-02,	 1.7359308941599129e+03,	 1.4879554363982997e-01,	 3.0011706792975895e+02,	 1.0016165956538854e+03,	 3.4767569701887777e+02,	 4.9929601505700631e+00 
4.5559899999999998e-01,	 2.1849579999999999e-01,	 1.1600668387997465e-02,	 1.7359300464269359e+03,	 1.1342305675970830e-01,	 3.0011884708688763e+02,	 1.0016274529066384e+03,	 3.4767672756469500e+02,	 4.9929429050132885e+00 
4.5987939999999999e-01,	 2.1901599999999999e-01,	 1.1600711618738112e-02,	 1.7359287789913947e+03,	 7.7865073042826236e-02,	 3.0012135189416296e+02,	 1.0016395452099201e+03,	 3.4767817842555905e+02,	 4.9929184184028124e+00 
4.6415990000000001e-01,	 2.1953619999999999e-01,	 1.1600873484287030e-02,	 1.7359272778760605e+03,	 4.2363738476284579e-02,	 3.0012443992265690e+02,	 1.0016638274370292e+03,	 3.4767996709762991e+02,	 4.9928884108112266e+00 
4.6844029999999998e-01,	 2.2005649999999999e-01,	 1.1601119393193787e-02,	 1.7359257513676926e+03,	 7.3306212111766741e-03,	 3.0012799145308963e+02,	 1.0016969136198700e+03,	 3.4768202423154963e+02,	 4.9928544773631360e+00 
4.7272080000000000e-01,	 2.2057669999999999e-01,	 1.1601323627765159e-02,	 1.7359240328354354e+03,	 -2.7183537764244835e-02,	 3.0013201187717584e+02,	 1.0017279668893715e+03,	 3.4768435294553700e+02,	 4.9928160940857698e+00 
4.7700120000000001e-01,	 2.2109689999999999e-01,	 1.1601588833230456e-02,	 1.7359225435083245e+03,	 -6.0881425906890746e-02,	 3.0013625836488268e+02,	 1.0017650398277968e+03,	 3.4768681258337932e+02,	 4.9927764923774092e+00 
4.8128169999999998e-01,	 2.2161709999999998e-01,	 1.1601870344778057e-02,	 1.7359213706297992e+03,	 -9.3815298066487751e-02,	 3.0014043391648119e+02,	 1.0018032846498977e+03,	 3.4768923111685586e+02,	 4.9927383933884997e+00 
4.8556210000000000e-01,	 2.2213739999999998e-01,	 1.1602181485114368e-02,	 1.7359209324424814e+03,	 -1.2530631998425795e-01,	 3.0014442454364007e+02,	 1.0018434713293283e+03,	 3.4769154252398363e+02,	 4.9927039477680584e+00 
4.8984260000000002e-01,	 2.2265759999999998e-01,	 1.1602370114880384e-02,	 1.7359206751797567e+03,	 -1.5527053802773749e-01,	 3.0014821600439882e+02,	 1.0018724150439017e+03,	 3.4769373855790724e+02,	 4.9926716808987956e+00 
4.9412299999999998e-01,	 2.2317779999999998e-01,	 1.1602592851274676e-02,	 1.7359216084586769e+03,	 -1.8319190186271284e-01,	 3.0015153336999026e+02,	 1.0019027218125572e+03,	 3.4769565998205059e+02,	 4.9926467825753642e+00 
4.9840350000000000e-01,	 2.2369809999999998e-01,	 1.1602780189520398e-02,	 1.7359237195781138e+03,	 -2.0864206627101736e-01,	 3.0015418815416979e+02,	 1.0019277605593793e+03,	 3.4769719763019447e+02,	 4.9926307831875167e+00 
5.0268389999999996e-01,	 2.2421829999999998e-01,	 1.1602823357352986e-02,	 1.7359270752196353e+03,	 -2.3158918147486351e-01,	 3.0015608325545986e+02,	 1.0019378141589765e+03,	 3.4769829526666553e+02,	 4.9926246815112334e+00 
5.0696430000000003e-01,	 2.2473849999999998e-01,	 1.1602793124472186e-02,	 1.7359320096878546e+03,	 -2.5170185335293088e-01,	 3.0015706648075775e+02,	 1.0019384855136340e+03,	 3.4769886474617812e+02,	 4.9926307041665980e+00 
5.1124480000000005e-01,	 2.2525869999999998e-01,	 1.1602684914352953e-02,	 1.7359384970941278e+03,	 -2.6879843551411564e-01,	 3.0015697986796420e+02,	 1.0019288521070724e+03,	 3.4769881458048900e+02,	 4.9926500899907209e+00 
5.1552520000000002e-01,	 2.2577899999999998e-01,	 1.1602507548209771e-02,	 1.7359468765692950e+03,	 -2.8249797067992310e-01,	 3.0015567304431863e+02,	 1.0019091738430777e+03,	 3.4769805767400760e+02,	 4.9926850646457064e+00 
5.1980570000000004e-01,	 2.2629919999999998e-01,	 1.1602110429243738e-02,	 1.7359569183736883e+03,	 -2.9310766572591379e-01,	 3.0015319356324221e+02,	 1.0018666053648236e+03,	 3.4769662156499459e+02,	 4.9927345721824077e+00 
5.2408610000000000e-01,	 2.2681939999999998e-01,	 1.1601675196800606e-02,	 1.7359688148018126e+03,	 -3.0040255057350923e-01,	 3.0014944704466780e+02,	 1.0018165172779126e+03,	 3.4769445157989389e+02,	 4.9927999509496228e+00 
5.2836660000000002e-01,	 2.2733969999999998e-01,	 1.1601147301358916e-02,	 1.7359825139434056e+03,	 -3.0442912350641205e-01,	 3.0014444903322459e+02,	 1.0017542517346042e+03,	 3.4769155670852371e+02,	 4.9928809231674594e+00 
5.3264699999999998e-01,	 2.2785989999999998e-01,	 1.1600438824295761e-02,	 1.7359976532624592e+03,	 -3.0529988146840814e-01,	 3.0013836269874048e+02,	 1.0016727626843987e+03,	 3.4768803144286198e+02,	 4.9929750900655065e+00 
5.3692750000000000e-01,	 2.2838010000000000e-01,	 1.1611790619754390e-02,	 1.7359958194635778e+03,	 -2.8934307794702974e-01,	 3.0016555232773248e+02,	 1.0027437962796541e+03,	 3.4770377967045528e+02,	 4.9927436659495141e+00 
5.4120789999999996e-01,	 2.2890030000000000e-01,	 1.1631355185141797e-02,	 1.7359841742483038e+03,	 -4.5524079573505732e-01,	 3.0022327500125476e+02,	 1.0046264624864975e+03,	 3.4773721026699678e+02,	 4.9922302896663897e+00 
2.1455240000000000e-01,	 1.9405780000000000e-01,	 1.1583365627529305e-02,	 1.7359731758723597e+03,	 1.8139252992367799e-01,	 3.0002361869446798e+02,	 9.9981614953817382e+02,	 3.4762156388045463e+02,	 4.9938593163519664e+00 
2.1884200000000001e-01,	 1.9455639999999999e-01,	 1.1585460864253954e-02,	 1.7359544216892043e+03,	 2.5006481898781147e-01,	 3.0006002827311238e+02,	 1.0001183548682307e+03,	 3.4764265617104599e+02,	 4.9935024050847385e+00 
2.2313150000000001e-01,	 1.9505499999999998e-01,	 1.1588711934293224e-02,	 1.7359235723854003e+03,	 3.5539493915619697e-01,	 3.0011293710457306e+02,	 1.0005754023011818e+03,	 3.4767330429846766e+02,	 4.9929735395361003e+00 
2.2742100000000001e-01,	 1.9555349999999999e-01,	 1.1592157901490759e-02,	 1.7358940168143949e+03,	 4.6431831364083875e-01,	 3.0016454299576571e+02,	 1.0010450339053650e+03,	 3.4770319507833256e+02,	 4.9924593834158983e+00 
2.3171050000000001e-01,	 1.9605209999999998e-01,	 1.1595620522782625e-02,	 1.7358663182898365e+03,	 5.7281951196201963e-01,	 3.0021350650802469e+02,	 1.0015073913162352e+03,	 3.4773155298373632e+02,	 4.9919726809592682e+00 
2.3599999999999999e-01,	 1.9655059999999999e-01,	 1.1599031681962149e-02,	 1.7358410325129203e+03,	 6.7754038352700907e-01,	 3.0025874397187556e+02,	 1.0019529671063175e+03,	 3.4775775084072302e+02,	 4.9915240150551821e+00 
2.4028949999999999e-01,	 1.9704919999999998e-01,	 1.1602329058949954e-02,	 1.7358184105876708e+03,	 7.7610453611966168e-01,	 3.0029959631842684e+02,	 1.0023741642748922e+03,	 3.4778140749892179e+02,	 4.9911195557390791e+00 
2.4457899999999999e-01,	 1.9754769999999999e-01,	 1.1605495150275588e-02,	 1.7357985540819818e+03,	 8.6757436224671114e-01,	 3.0033601894350534e+02,	 1.0027693050227015e+03,	 3.4780249765006118e+02,	 4.9907599359473869e+00 
2.4886849999999999e-01,	 1.9804629999999998e-01,	 1.1608462501556656e-02,	 1.7357814295514481e+03,	 9.5096506097679434e-01,	 3.0036796896916672e+02,	 1.0031324009231283e+03,	 3.4782099693503812e+02,	 4.9904453881300173e+00 
2.5315799999999999e-01,	 1.9854479999999999e-01,	 1.1611225077401482e-02,	 1.7357668890152447e+03,	 1.0257386342057617e+00,	 3.0039547937622837e+02,	 1.0034630236233744e+03,	 3.4783692486196765e+02,	 4.9901751885035273e+00 
2.5744760000000000e-01,	 1.9904339999999998e-01,	 1.1613787923123210e-02,	 1.7357549158138538e+03,	 1.0917863842629891e+00,	 3.0041872892609069e+02,	 1.0037621910138326e+03,	 3.4785038527667507e+02,	 4.9899477840133946e+00 
2.6173710000000000e-01,	 1.9954189999999999e-01,	 1.1616106720740748e-02,	 1.7357456315620993e+03,	 1.1491105752356152e+00,	 3.0043798722093698e+02,	 1.0040269600609499e+03,	 3.4786153454481450e+02,	 4.9897612686739619e+00 
2.6602660000000000e-01,	 2.0004049999999998e-01,	 1.1618197285923802e-02,	 1.7357376959910127e+03,	 1.1979692431539990e+00,	 3.0045356144733512e+02,	 1.0042597125667995e+03,	 3.4787055072172217e+02,	 4.9896092261799652e+00 
2.7031610000000000e-01,	 2.0053900000000000e-01,	 1.1620057463128341e-02,	 1.7357320291234691e+03,	 1.2387404171846852e+00,	 3.0046571723056331e+02,	 1.0044611404759288e+03,	 3.4787758774304393e+02,	 4.9894920866003662e+00 
2.7460560000000001e-01,	 2.0103759999999998e-01,	 1.1621708502186303e-02,	 1.7357281302581155e+03,	 1.2718785774061772e+00,	 3.0047474042368862e+02,	 1.0046340285612456e+03,	 3.4788281120600857e+02,	 4.9894060308240489e+00 
2.7889510000000001e-01,	 2.0153610000000000e-01,	 1.1623118960519789e-02,	 1.7357257802432000e+03,	 1.2977431590398922e+00,	 3.0048092951201642e+02,	 1.0047766507390669e+03,	 3.4788639398031478e+02,	 4.9893479463889863e+00 
2.8318460000000001e-01,	 2.0203469999999998e-01,	 1.1624311384156469e-02,	 1.7357246789838437e+03,	 1.3168739957170881e+00,	 3.0048455190124167e+02,	 1.0048918455869144e+03,	 3.4788849091227195e+02,	 4.9893147484718527e+00 
2.8747410000000001e-01,	 2.0253320000000000e-01,	 1.1625322007798512e-02,	 1.7357248291358192e+03,	 1.3298676934690536e+00,	 3.0048585044300489e+02,	 1.0049835544137562e+03,	 3.4788924261022692e+02,	 4.9893044279487588e+00 
2.9176360000000001e-01,	 2.0303179999999998e-01,	 1.1626111766383472e-02,	 1.7357259842945978e+03,	 1.3371008106642739e+00,	 3.0048508031747906e+02,	 1.0050492514269355e+03,	 3.4788879680128588e+02,	 4.9893141580461000e+00 
2.9605310000000001e-01,	 2.0353030000000000e-01,	 1.1626719623725357e-02,	 1.7357280121658177e+03,	 1.3391426081290785e+00,	 3.0048246212443655e+02,	 1.0050930415498624e+03,	 3.4788728118192387e+02,	 4.9893417283148542e+00 
3.0034270000000002e-01,	 2.0402889999999999e-01,	 1.1627147464834097e-02,	 1.7357307360532777e+03,	 1.3364906386123359e+00,	 3.0047820576628567e+02,	 1.0051157893096052e+03,	 3.4788481724759293e+02,	 4.9893848898794575e+00 
3.0463220000000002e-01,	 2.0452740000000000e-01,	 1.1627427217068689e-02,	 1.7357341621422411e+03,	 1.3296724494001437e+00,	 3.0047249311197385e+02,	 1.0051208630643234e+03,	 3.4788151026041544e+02,	 4.9894421527195298e+00 
3.0892170000000002e-01,	 2.0502599999999999e-01,	 1.1627532288320155e-02,	 1.7357381695927556e+03,	 1.3190018664807228e+00,	 3.0046551460068054e+02,	 1.0051066015705643e+03,	 3.4787747044113121e+02,	 4.9895115902501432e+00 
3.1321120000000002e-01,	 2.0552460000000000e-01,	 1.1627489195710418e-02,	 1.7357425518641617e+03,	 1.3049595686175759e+00,	 3.0045743394170813e+02,	 1.0050758455270892e+03,	 3.4787279253640230e+02,	 4.9895912518867265e+00 
3.1750070000000002e-01,	 2.0602309999999999e-01,	 1.1627338415821389e-02,	 1.7357480120082023e+03,	 1.2880491086899357e+00,	 3.0044753649401457e+02,	 1.0050297041299378e+03,	 3.4786706280444315e+02,	 4.9896890953891866e+00 
3.2179020000000003e-01,	 2.0652170000000000e-01,	 1.1627041949354036e-02,	 1.7357532102654991e+03,	 1.2685078338362603e+00,	 3.0043749940346879e+02,	 1.0049705042187999e+03,	 3.4786125213545023e+02,	 4.9897873451838670e+00 
3.2607969999999997e-01,	 2.0702019999999999e-01,	 1.1626638965740975e-02,	 1.7357582944674409e+03,	 1.2465520814927213e+00,	 3.0042773779022758e+02,	 1.0049030210819092e+03,	 3.4785560085257987e+02,	 4.9898829796760396e+00 
3.3036919999999997e-01,	 2.0751879999999998e-01,	 1.1626133317485113e-02,	 1.7357639384428360e+03,	 1.2198390291186343e+00,	 3.0041672118364966e+02,	 1.0048224694261306e+03,	 3.4784922290715332e+02,	 4.9899906418301567e+00 
3.3465869999999998e-01,	 2.0801729999999999e-01,	 1.1625576597087562e-02,	 1.7357699074834998e+03,	 1.1936376322009985e+00,	 3.0040522229825820e+02,	 1.0047358940480131e+03,	 3.4784256562687949e+02,	 4.9901032519407380e+00 
3.3894829999999998e-01,	 2.0851589999999998e-01,	 1.1624885310164784e-02,	 1.7357761687494262e+03,	 1.1691480492902979e+00,	 3.0039325118264060e+02,	 1.0046361136111525e+03,	 3.4783563481352149e+02,	 4.9902206351720606e+00 
3.4323779999999998e-01,	 2.0901439999999999e-01,	 1.1624127192528875e-02,	 1.7357825121890182e+03,	 1.1410364021648325e+00,	 3.0038099161925879e+02,	 1.0045295979553956e+03,	 3.4782853685691953e+02,	 4.9903406514906941e+00 
3.4752729999999998e-01,	 2.0951299999999998e-01,	 1.1623327746932583e-02,	 1.7357890601436959e+03,	 1.1116536052929487e+00,	 3.0036852528844202e+02,	 1.0044188249075083e+03,	 3.4782131903901615e+02,	 4.9904629794064466e+00 
3.5181679999999999e-01,	 2.1001149999999999e-01,	 1.1622458191833279e-02,	 1.7357956941302982e+03,	 1.0818613768563090e+00,	 3.0035596444153856e+02,	 1.0043016833654696e+03,	 3.4781404634622976e+02,	 4.9905863478145776e+00 
3.5610629999999999e-01,	 2.1051009999999998e-01,	 1.1621550033638923e-02,	 1.7358024103168264e+03,	 1.0506583595855183e+00,	 3.0034339003018300e+02,	 1.0041811671852392e+03,	 3.4780676564734654e+02,	 4.9907100716138135e+00 
3.6039579999999999e-01,	 2.1100859999999999e-01,	 1.1620598552979013e-02,	 1.7358091169433535e+03,	 1.0180515656458895e+00,	 3.0033081054348065e+02,	 1.0040568974082184e+03,	 3.4779948185728767e+02,	 4.9908338167078172e+00 
3.6468529999999999e-01,	 2.1150719999999998e-01,	 1.1619644097714425e-02,	 1.7358159389885368e+03,	 9.8554558755339194e-01,	 3.0031829126241348e+02,	 1.0039325787746154e+03,	 3.4779223277612010e+02,	 4.9909574026855505e+00 
3.6897479999999999e-01,	 2.1200569999999999e-01,	 1.1618642336337203e-02,	 1.7358227643247476e+03,	 9.5250566512965906e-01,	 3.0030592400615939e+02,	 1.0038046881168395e+03,	 3.4778507157403266e+02,	 4.9910797430289877e+00 
3.7326429999999999e-01,	 2.1250429999999998e-01,	 1.1617631455553133e-02,	 1.7358294551682234e+03,	 9.1905893626079249e-01,	 3.0029376702237846e+02,	 1.0036767195364537e+03,	 3.4777803198552152e+02,	 4.9911999575197719e+00 
3.7755379999999999e-01,	 2.1300279999999999e-01,	 1.1616637894584579e-02,	 1.7358361218271705e+03,	 8.8530307462276026e-01,	 3.0028186827529123e+02,	 1.0035511173043375e+03,	 3.4777114179282978e+02,	 4.9913179645604089e+00 
3.8184340000000000e-01,	 2.1350139999999998e-01,	 1.1615629046118774e-02,	 1.7358426609072949e+03,	 8.5113621726807576e-01,	 3.0027030152439505e+02,	 1.0034253106984161e+03,	 3.4776444371790615e+02,	 4.9914328532800338e+00 
3.8613290000000000e-01,	 2.1399989999999999e-01,	 1.1614632265144958e-02,	 1.7358490192618594e+03,	 8.1661532535049541e-01,	 3.0025911971891196e+02,	 1.0033018395035701e+03,	 3.4775796843455834e+02,	 4.9915440303515339e+00 
3.9042240000000000e-01,	 2.1449849999999998e-01,	 1.1613655257465390e-02,	 1.7358551001517578e+03,	 7.8178455243121603e-01,	 3.0024838111446411e+02,	 1.0031815635373425e+03,	 3.4775174969145951e+02,	 4.9916507328567477e+00 
3.9471190000000000e-01,	 2.1499699999999999e-01,	 1.1612724917794916e-02,	 1.7358609964241778e+03,	 7.4669107866180284e-01,	 3.0023812850357132e+02,	 1.0030669482804383e+03,	 3.4774581228423546e+02,	 4.9917528714973365e+00 
3.9900140000000001e-01,	 2.1549559999999998e-01,	 1.1611807331509370e-02,	 1.7358666135864914e+03,	 7.1116510392915822e-01,	 3.0022843647748095e+02,	 1.0029553127797676e+03,	 3.4774019942503185e+02,	 4.9918495535886489e+00 
4.0329090000000001e-01,	 2.1599420000000000e-01,	 1.1610930565560408e-02,	 1.7358718064454763e+03,	 6.7525040823169546e-01,	 3.0021935576399892e+02,	 1.0028492501093250e+03,	 3.4773494050780243e+02,	 4.9919399392135633e+00 
4.0758040000000001e-01,	 2.1649269999999998e-01,	 1.1610125116289643e-02,	 1.7358767012220551e+03,	 6.3898283728939409e-01,	 3.0021092439115978e+02,	 1.0027515204355146e+03,	 3.4773005757227310e+02,	 4.9920240745000086e+00 
4.1186990000000001e-01,	 2.1699130000000000e-01,	 1.1609354366853977e-02,	 1.7358811988999291e+03,	 6.0217459625722869e-01,	 3.0020320819463456e+02,	 1.0026591802073298e+03,	 3.4772558876303742e+02,	 4.9921011264132229e+00 
4.1615940000000001e-01,	 2.1748979999999998e-01,	 1.1608644106891771e-02,	 1.7358852571262300e+03,	 5.6482324004467499e-01,	 3.0019624803944794e+02,	 1.0025745925046868e+03,	 3.4772155776333062e+02,	 4.9921706326846724e+00 
4.2044900000000002e-01,	 2.1798840000000000e-01,	 1.1607999881624285e-02,	 1.7358887960511172e+03,	 5.2694139436516763e-01,	 3.0019008374800580e+02,	 1.0024983683897711e+03,	 3.4771798765204437e+02,	 4.9922320319148836e+00 
4.2473850000000002e-01,	 2.1848689999999998e-01,	 1.1607446491871547e-02,	 1.7358919325501374e+03,	 4.8856182170403767e-01,	 3.0018473138388379e+02,	 1.0024327025390369e+03,	 3.4771488774688692e+02,	 4.9922855260828314e+00 
4.2902800000000002e-01,	 2.1898550000000000e-01,	 1.1606943796316146e-02,	 1.7358946108530499e+03,	 4.4950271651156576e-01,	 3.0018023159592764e+02,	 1.0023742632825340e+03,	 3.4771228160312938e+02,	 4.9923306161293173e+00 
4.3331750000000002e-01,	 2.1948399999999998e-01,	 1.1606512590248648e-02,	 1.7358966835013107e+03,	 4.0986159849403470e-01,	 3.0017659361140659e+02,	 1.0023248767213731e+03,	 3.4771017457608730e+02,	 4.9923668008959892e+00 
4.3760700000000002e-01,	 2.1998260000000000e-01,	 1.1606187284396951e-02,	 1.7358983663749791e+03,	 3.6977525274432704e-01,	 3.0017379622717817e+02,	 1.0022874431553591e+03,	 3.4770855439442551e+02,	 4.9923948773201401e+00 
4.4189650000000003e-01,	 2.2048109999999999e-01,	 1.1605909376989743e-02,	 1.7358995666853721e+03,	 3.2910660137260805e-01,	 3.0017183545368783e+02,	 1.0022568967072459e+03,	 3.4770741875427677e+02,	 4.9924146114050503e+00 
4.4618600000000003e-01,	 2.2097970000000000e-01,	 1.1605711203844505e-02,	 1.7359003120428547e+03,	 2.8803802244531590e-01,	 3.0017070696424838e+02,	 1.0022360150785595e+03,	 3.4770676515445069e+02,	 4.9924261185106715e+00 
4.5047549999999997e-01,	 2.2147819999999999e-01,	 1.1605579113770196e-02,	 1.7359005843641801e+03,	 2.4671156798913724e-01,	 3.0017033663168041e+02,	 1.0022233716732037e+03,	 3.4770655066453548e+02,	 4.9924299630773108e+00 