TITLE = "Final State"
VARIABLES = "X", "Y", "rho", "u", "v", "T", "p", "c", "M"
ZONE I=102, J=27, DATAPACKING=POINT, STRANDID=46000, SOLUTIONTIME=0.001110
1.0567150000000001e+00,	 2.6685149999999996e-01,	 4.8001627961480442e-02,	 1.4679276831985444e+03,	 -3.1227076056594154e+01,	 7.1939140012119015e+02,	 9.9346173898041252e+03,	 5.3828416914566560e+02,	 2.7276666768117437e+00 
1.0574060000000001e+00,	 2.6683689999999999e-01,	 4.8034943899948772e-02,	 1.4678557816099647e+03,	 -3.1227893518986242e+01,	 7.1951883370070277e+02,	 9.9432736432169659e+03,	 5.3833184308294221e+02,	 2.7272916171715158e+00 
1.0581020000000001e+00,	 2.6682220000000001e-01,	 4.8073345677415710e-02,	 1.4677574608996608e+03,	 -3.1238577467986474e+01,	 7.1966412762279390e+02,	 9.9532323142885016e+03,	 5.3838619356899380e+02,	 2.7268341373998868e+00 
1.0588010000000001e+00,	 2.6680739999999997e-01,	 4.8109634312896429e-02,	 1.4676597047046644e+03,	 -3.1261383332935406e+01,	 7.1980687788561863e+02,	 9.9627213905915523e+03,	 5.3843958719867112e+02,	 2.7263831227324955e+00 
1.0595049999999999e+00,	 2.6679249999999999e-01,	 4.8147879532024720e-02,	 1.4675646610317012e+03,	 -3.1273292392123249e+01,	 7.1994972584751713e+02,	 9.9726200577787749e+03,	 5.3849301207162807e+02,	 2.7259366450383498e+00 
1.0602130000000001e+00,	 2.6677750000000000e-01,	 4.8188254233664352e-02,	 1.4674572451584013e+03,	 -3.1256204269336557e+01,	 7.2011447335685261e+02,	 9.9832666277567496e+03,	 5.3855462075394314e+02,	 2.7254247251111221e+00 
1.0609249999999999e+00,	 2.6676250000000001e-01,	 4.8234018259783532e-02,	 1.4673446812430197e+03,	 -3.1203826909475225e+01,	 7.2029368170338637e+02,	 9.9952344660370691e+03,	 5.3862162918302806e+02,	 2.7248746556088608e+00 
1.0616410000000001e+00,	 2.6674739999999997e-01,	 4.8272608572237752e-02,	 1.4672403128233393e+03,	 -3.1222082263627883e+01,	 7.2044704462205345e+02,	 1.0005361155622068e+04,	 5.3867896703749670e+02,	 2.7243916313089285e+00 
1.0623620000000000e+00,	 2.6673209999999997e-01,	 4.8308543351922459e-02,	 1.4671395840654452e+03,	 -3.1245455079857532e+01,	 7.2059023726034900e+02,	 1.0014799379655051e+04,	 5.3873249701634893e+02,	 2.7239349201998873e+00 
1.0630869999999999e+00,	 2.6671679999999998e-01,	 4.8353311188992165e-02,	 1.4670262602477947e+03,	 -3.1214104586953756e+01,	 7.2076674934220750e+02,	 1.0026535605662859e+04,	 5.3879847554828632e+02,	 2.7233898433339321e+00 
1.0638170000000000e+00,	 2.6670139999999998e-01,	 4.8395595731711712e-02,	 1.4669153775941486e+03,	 -3.1204360081929966e+01,	 7.2093492107238217e+02,	 1.0037645193246066e+04,	 5.3886132902144573e+02,	 2.7228660734365926e+00 
1.0645500000000001e+00,	 2.6668589999999998e-01,	 4.8436173689327983e-02,	 1.4668065339691525e+03,	 -3.1208739806423118e+01,	 7.2109557441539289e+02,	 1.0048300063080505e+04,	 5.3892136568295268e+02,	 2.7223609948604137e+00 
1.0652889999999999e+00,	 2.6667029999999997e-01,	 4.8479251066728367e-02,	 1.4666929895582348e+03,	 -3.1204273791331598e+01,	 7.2126666645790851e+02,	 1.0059622905376089e+04,	 5.3898529596613866e+02,	 2.7218272975044560e+00 
1.0660320000000001e+00,	 2.6665459999999996e-01,	 4.8521503669778782e-02,	 1.4665789315880434e+03,	 -3.1206264393911550e+01,	 7.2143669473994578e+02,	 1.0070763954707176e+04,	 5.3904882125293523e+02,	 2.7212950735828687e+00 
1.0667800000000001e+00,	 2.6663880000000001e-01,	 4.8564551603817410e-02,	 1.4664643661746240e+03,	 -3.1209845765743921e+01,	 7.2160800515859887e+02,	 1.0082092163241690e+04,	 5.3911281799623043e+02,	 2.7207597175335447e+00 
1.0675319999999999e+00,	 2.6662290000000000e-01,	 4.8607348063141105e-02,	 1.4663478965774634e+03,	 -3.1217805719389695e+01,	 7.2178106557436308e+02,	 1.0093396867968533e+04,	 5.3917746077634206e+02,	 2.7202178712636558e+00 
1.0682890000000000e+00,	 2.6660689999999998e-01,	 4.8651819871712736e-02,	 1.4662270517777329e+03,	 -3.1216533308587493e+01,	 7.2196252502453910e+02,	 1.0105171366380639e+04,	 5.3924523250223115e+02,	 2.7196518980350826e+00 
1.0690510000000000e+00,	 2.6659080000000002e-01,	 4.8697914640403808e-02,	 1.4661082688939427e+03,	 -3.1210206248003239e+01,	 7.2214236916622872e+02,	 1.0117265057309016e+04,	 5.3931239253744411e+02,	 2.7190927739291384e+00 
1.0698179999999999e+00,	 2.6657459999999999e-01,	 4.8744757264912487e-02,	 1.4659851075572601e+03,	 -3.1204518474614012e+01,	 7.2232846700606274e+02,	 1.0129606627083876e+04,	 5.3938187911675129e+02,	 2.7185139726068890e+00 
1.0705899999999999e+00,	 2.6655829999999997e-01,	 4.8788557505748426e-02,	 1.4658680957499178e+03,	 -3.1239088070834022e+01,	 7.2250001385579276e+02,	 1.0141116574790556e+04,	 5.3944592461219747e+02,	 2.7179757208009545e+00 
1.0713660000000000e+00,	 2.6654180000000000e-01,	 4.8830575345317734e-02,	 1.4657494973596536e+03,	 -3.1265762564096505e+01,	 7.2267062866853507e+02,	 1.0152247177132571e+04,	 5.3950961459886912e+02,	 2.7174361369334972e+00 
1.0721480000000001e+00,	 2.6652529999999997e-01,	 4.8884690749634689e-02,	 1.4656102986600386e+03,	 -3.1217213152475772e+01,	 7.2289030248386302e+02,	 1.0166587629871905e+04,	 5.3959160709007222e+02,	 2.7167633854395317e+00 
1.0729350000000000e+00,	 2.6650869999999999e-01,	 4.8935914390187032e-02,	 1.4654727709225563e+03,	 -3.1190130301596554e+01,	 7.2310012967621219e+02,	 1.0180194711432172e+04,	 5.3966991273119891e+02,	 2.7161133381211435e+00 
1.0737260000000000e+00,	 2.6649200000000001e-01,	 4.8983299576051909e-02,	 1.4653437256355655e+03,	 -3.1215056890209407e+01,	 7.2328870323088904e+02,	 1.0192709717503278e+04,	 5.3974027701107582e+02,	 2.7155211963438339e+00 
1.0745229999999999e+00,	 2.6647509999999996e-01,	 4.9031561506620316e-02,	 1.4652108298815601e+03,	 -3.1210030874831599e+01,	 7.2348356070456748e+02,	 1.0205500991663383e+04,	 5.3981297643511982e+02,	 2.7149091520026452e+00 
1.0753260000000000e+00,	 2.6645819999999998e-01,	 4.9086418434206823e-02,	 1.4650713693310929e+03,	 -3.1195335626275931e+01,	 7.2369875242969533e+02,	 1.0219957895962561e+04,	 5.3989325099516918e+02,	 2.7142466507366265e+00 
1.0761330000000000e+00,	 2.6644109999999999e-01,	 4.9132973515634518e-02,	 1.4649408935230890e+03,	 -3.1229654094547008e+01,	 7.2388639150591894e+02,	 1.0232303143103889e+04,	 5.3996323764696751e+02,	 2.7136546173969318e+00 
1.0769460000000000e+00,	 2.6642389999999999e-01,	 4.9185351411496547e-02,	 1.4648056574694183e+03,	 -3.1234787950392214e+01,	 7.2408968076763699e+02,	 1.0246087829689261e+04,	 5.4003905135455250e+02,	 2.7130234998683034e+00 
1.0777639999999999e+00,	 2.6640659999999999e-01,	 4.9239212605313304e-02,	 1.4646583351848856e+03,	 -3.1221939465950747e+01,	 7.2431241671169118e+02,	 1.0260463201895409e+04,	 5.4012210519601547e+02,	 2.7123331194836147e+00 
1.0785880000000001e+00,	 2.6638919999999999e-01,	 4.9295529669753882e-02,	 1.4645099649064323e+03,	 -3.1198734298563160e+01,	 7.2453817725137060e+02,	 1.0275400283227214e+04,	 5.4020627381918962e+02,	 2.7116350077542126e+00 
1.0794170000000001e+00,	 2.6637169999999999e-01,	 4.9352311067489912e-02,	 1.4643572268330877e+03,	 -3.1173825522646062e+01,	 7.2476852406293983e+02,	 1.0290506615604298e+04,	 5.4029213879366228e+02,	 2.7109204531162607e+00 
1.0802520000000000e+00,	 2.6635409999999998e-01,	 4.9407541762266999e-02,	 1.4642096836932010e+03,	 -3.1182940409446651e+01,	 7.2498777456099720e+02,	 1.0305139306603032e+04,	 5.4037385478927695e+02,	 2.7102378863522105e+00 
1.0810919999999999e+00,	 2.6633629999999997e-01,	 4.9458205725936344e-02,	 1.4640681016498347e+03,	 -3.1223035058392874e+01,	 7.2519084939177674e+02,	 1.0318596014404406e+04,	 5.4044953099344286e+02,	 2.7095980557753760e+00 
1.0819380000000001e+00,	 2.6631840000000001e-01,	 4.9515350052575305e-02,	 1.4639181642606411e+03,	 -3.1221333883328320e+01,	 7.2541697927725170e+02,	 1.0333739460756569e+04,	 5.4053378623816855e+02,	 2.7088983078002520e+00 
1.0827899999999999e+00,	 2.6630039999999999e-01,	 4.9575037560392707e-02,	 1.4637553874404994e+03,	 -3.1193680216462770e+01,	 7.2566494344411797e+02,	 1.0349732673307137e+04,	 5.4062616176966549e+02,	 2.7081333333945712e+00 
1.0836479999999999e+00,	 2.6628229999999997e-01,	 4.9636162621367573e-02,	 1.4635950244769581e+03,	 -3.1163292954268872e+01,	 7.2590888024463129e+02,	 1.0365977110144819e+04,	 5.4071702156403376e+02,	 2.7073805659349923e+00 
1.0845110000000000e+00,	 2.6626410000000000e-01,	 4.9694255786034300e-02,	 1.4634388867509588e+03,	 -3.1172787325249260e+01,	 7.2614040802134468e+02,	 1.0381419326539733e+04,	 5.4080324521582475e+02,	 2.7066606360529026e+00 
1.0853800000000000e+00,	 2.6624569999999997e-01,	 4.9750128666225107e-02,	 1.4632870202286795e+03,	 -3.1191542724109567e+01,	 7.2636176889966987e+02,	 1.0396259787118675e+04,	 5.4088566974278410e+02,	 2.7059682018848044e+00 
1.0862560000000001e+00,	 2.6622720000000000e-01,	 4.9811135986631901e-02,	 1.4631226296322916e+03,	 -3.1176903255468883e+01,	 7.2661032692746767e+02,	 1.0412570376837071e+04,	 5.4097820625952261e+02,	 2.7052009508727117e+00 
1.0871370000000000e+00,	 2.6620859999999996e-01,	 4.9870763683020583e-02,	 1.4629661993470581e+03,	 -3.1181686470791369e+01,	 7.2684484145539386e+02,	 1.0428399705996308e+04,	 5.4106549996356375e+02,	 2.7044756415108875e+00 
1.0880250000000000e+00,	 2.6618979999999998e-01,	 4.9928287113325406e-02,	 1.4628099084226765e+03,	 -3.1196483634374154e+01,	 7.2707503250991806e+02,	 1.0443734816709601e+04,	 5.4115117064000606e+02,	 2.7037593273144038e+00 
1.0889190000000000e+00,	 2.6617089999999999e-01,	 4.9990072860268180e-02,	 1.4626463918533886e+03,	 -3.1181301974634952e+01,	 7.2732235274335471e+02,	 1.0460215746128311e+04,	 5.4124320120653670e+02,	 2.7029969499788136e+00 
1.0898190000000001e+00,	 2.6615190000000000e-01,	 5.0053987910041717e-02,	 1.4624803392202477e+03,	 -3.1148769117301256e+01,	 7.2757561126567521e+02,	 1.0477236679828187e+04,	 5.4133742526162905e+02,	 2.7022185161763543e+00 
1.0907249999999999e+00,	 2.6613280000000000e-01,	 5.0116252791114632e-02,	 1.4623167535219818e+03,	 -3.1134453012806130e+01,	 7.2782180345400116e+02,	 1.0493819512673712e+04,	 5.4142900459110365e+02,	 2.7014588214294335e+00 
1.0916380000000001e+00,	 2.6611350000000000e-01,	 5.0172357008475471e-02,	 1.4621657943318291e+03,	 -3.1176766181534177e+01,	 7.2804062735996672e+02,	 1.0508725709933287e+04,	 5.4151039038163390e+02,	 2.7007757616903327e+00 
1.0925570000000000e+00,	 2.6609400000000000e-01,	 5.0230438009173053e-02,	 1.4620117742701082e+03,	 -3.1182025276372414e+01,	 7.2826768260957829e+02,	 1.0524172088721329e+04,	 5.4159482467510441e+02,	 2.7000706016666163e+00 
1.0934820000000001e+00,	 2.6607449999999999e-01,	 5.0296314606773584e-02,	 1.4618462948167171e+03,	 -3.1143313121197124e+01,	 7.2852495185758323e+02,	 1.0541697075318627e+04,	 5.4169047864497600e+02,	 2.6992868711678137e+00 
1.0944140000000000e+00,	 2.6605479999999998e-01,	 5.0354329328804286e-02,	 1.4616920926168511e+03,	 -3.1156396103386214e+01,	 7.2875236426348613e+02,	 1.0557150922319846e+04,	 5.4177501763216651e+02,	 2.6985816274141228e+00 
1.0953530000000000e+00,	 2.6603489999999996e-01,	 5.0413823770066063e-02,	 1.4615296095222948e+03,	 -3.1148362677711120e+01,	 7.2899310093456165e+02,	 1.0573115942736707e+04,	 5.4186449545152254e+02,	 2.6978359048446046e+00 
1.0962980000000000e+00,	 2.6601500000000000e-01,	 5.0478431431974835e-02,	 1.4613712485222252e+03,	 -3.1123370578822289e+01,	 7.2923732239468143e+02,	 1.0590212543442965e+04,	 5.4195525341377459e+02,	 2.6970909955746678e+00 
1.0972510000000000e+00,	 2.6599479999999998e-01,	 5.0535687572141830e-02,	 1.4612113000781630e+03,	 -3.1128134934999842e+01,	 7.2947047858386316e+02,	 1.0605614505200503e+04,	 5.4204188510359813e+02,	 2.6963651028436764e+00 
1.0982099999999999e+00,	 2.6597460000000001e-01,	 5.0601441567801345e-02,	 1.4610487544736643e+03,	 -3.1089076753762157e+01,	 7.2972152529142363e+02,	 1.0623068555769825e+04,	 5.4213514873033398e+02,	 2.6955999560778672e+00 
1.0991759999999999e+00,	 2.6595419999999997e-01,	 5.0658784914770626e-02,	 1.4608995880320483e+03,	 -3.1111373672166096e+01,	 7.2994016515061708e+02,	 1.0638293494451304e+04,	 5.4221636017271987e+02,	 2.6949220501548936e+00 
1.1001479999999999e+00,	 2.6593359999999999e-01,	 5.0715183707458367e-02,	 1.4607490798267720e+03,	 -3.1130008292051556e+01,	 7.3015936875969351e+02,	 1.0653335457563988e+04,	 5.4229776880514009e+02,	 2.6942407508566015e+00 
1.1011280000000001e+00,	 2.6591290000000001e-01,	 5.0776562873071578e-02,	 1.4605930348897418e+03,	 -3.1123939200837100e+01,	 7.3039618910603167e+02,	 1.0669688382271848e+04,	 5.4238570627405056e+02,	 2.6935160571033028e+00 
1.1021150000000000e+00,	 2.6589199999999996e-01,	 5.0835772108698329e-02,	 1.4604381469556693e+03,	 -3.1124432959173365e+01,	 7.3062647964957250e+02,	 1.0685498055952299e+04,	 5.4247120538872741e+02,	 2.6928060922410921e+00 
1.1031089999999999e+00,	 2.6587099999999997e-01,	 5.0900822603708457e-02,	 1.4602708183138277e+03,	 -3.1081041527771202e+01,	 7.3088213478307307e+02,	 1.0702915208913642e+04,	 5.4256610573964292e+02,	 2.6920250576594635e+00 
1.1041110000000001e+00,	 2.6584989999999997e-01,	 5.0965818182957950e-02,	 1.4601068590124269e+03,	 -3.1048687767397535e+01,	 7.3113179107413100e+02,	 1.0720242421454530e+04,	 5.4265876327625926e+02,	 2.6912620610879614e+00 
1.1051190000000000e+00,	 2.6582859999999997e-01,	 5.1023554757190934e-02,	 1.4599544166172589e+03,	 -3.1074483394278538e+01,	 7.3135248284525937e+02,	 1.0735626402637659e+04,	 5.4274065773702057e+02,	 2.6905761742088314e+00 
1.1061350000000001e+00,	 2.6580709999999996e-01,	 5.1083640466547668e-02,	 1.4597949834913484e+03,	 -3.1074810374684805e+01,	 7.3158746412923529e+02,	 1.0751722139815653e+04,	 5.4282784117947563e+02,	 2.6898504123293443e+00 
1.1071590000000000e+00,	 2.6578550000000001e-01,	 5.1147474309538463e-02,	 1.4596316435701874e+03,	 -3.1062086368528206e+01,	 7.3183513357740867e+02,	 1.0768801838541523e+04,	 5.4291971706719028e+02,	 2.6890939356829344e+00 
1.1081900000000000e+00,	 2.6576369999999999e-01,	 5.1206811477962078e-02,	 1.4594780353448505e+03,	 -3.1085441276944547e+01,	 7.3206094475159682e+02,	 1.0784621551903690e+04,	 5.4300347082376652e+02,	 2.6883972586755451e+00 
1.1092290000000000e+00,	 2.6574169999999997e-01,	 5.1268060802233610e-02,	 1.4593215674691896e+03,	 -3.1093093214528665e+01,	 7.3229315605963302e+02,	 1.0800946215228092e+04,	 5.4308958493051546e+02,	 2.6876832358821257e+00 
1.1102749999999999e+00,	 2.6571960000000000e-01,	 5.1332380832125914e-02,	 1.4591565552725658e+03,	 -3.1082282856923211e+01,	 7.3254251668114443e+02,	 1.0818179451912874e+04,	 5.4318204355075920e+02,	 2.6869216044851103e+00 
1.1113290000000000e+00,	 2.6569729999999997e-01,	 5.1396619779653249e-02,	 1.4589895496813906e+03,	 -3.1068477851428860e+01,	 7.3279207817986605e+02,	 1.0835407793688621e+04,	 5.4327456089847601e+02,	 2.6861561562758074e+00 
1.1123909999999999e+00,	 2.6567489999999999e-01,	 5.1463741115275734e-02,	 1.4588206181706846e+03,	 -3.1046634730300440e+01,	 7.3304826009189651e+02,	 1.0853351250659045e+04,	 5.4336951617846785e+02,	 2.6853750619399355e+00 
1.1134599999999999e+00,	 2.6565230000000001e-01,	 5.1525962902197665e-02,	 1.4586551260091805e+03,	 -3.1056159883790443e+01,	 7.3329065984260433e+02,	 1.0870066656764369e+04,	 5.4345934774601869e+02,	 2.6846271064163423e+00 
1.1145380000000000e+00,	 2.6562949999999996e-01,	 5.1591487876547687e-02,	 1.4584847327675116e+03,	 -3.1045990037746744e+01,	 7.3354418890577347e+02,	 1.0887653008702237e+04,	 5.4355328787072131e+02,	 2.6838493256331875e+00 
1.1156239999999999e+00,	 2.6560659999999997e-01,	 5.1659860365122622e-02,	 1.4583108062426550e+03,	 -3.1025555048320161e+01,	 7.3380753622370514e+02,	 1.0905995975384958e+04,	 5.4365084876591425e+02,	 2.6830470447720889e+00 
1.1167170000000000e+00,	 2.6558349999999997e-01,	 5.1724003070362075e-02,	 1.4581455640547670e+03,	 -3.1037400560440283e+01,	 7.3405035371188183e+02,	 1.0923150528184480e+04,	 5.4374078857196071e+02,	 2.6822998771759141e+00 
1.1178189999999999e+00,	 2.6556019999999997e-01,	 5.1789332279586861e-02,	 1.4579794206395868e+03,	 -3.1049540782743826e+01,	 7.3429615561206197e+02,	 1.0940609159246438e+04,	 5.4383181865703125e+02,	 2.6815459357448943e+00 
1.1189300000000000e+00,	 2.6553670000000001e-01,	 5.1856935387828637e-02,	 1.4578047492904234e+03,	 -3.1043965956595564e+01,	 7.3455681513950719e+02,	 1.0958779216258277e+04,	 5.4392833446064242e+02,	 2.6807488417500460e+00 
1.1200479999999999e+00,	 2.6551310000000000e-01,	 5.1927463391135284e-02,	 1.4576231279595854e+03,	 -3.1020129242621465e+01,	 7.3483074595697963e+02,	 1.0977776003833817e+04,	 5.4402974584345031e+02,	 2.6799144278856839e+00 
1.1211750000000000e+00,	 2.6548929999999998e-01,	 5.1996544356751120e-02,	 1.4574456734723763e+03,	 -3.1015621780555442e+01,	 7.3509442220663175e+02,	 1.0996324482577083e+04,	 5.4412734305069398e+02,	 2.6791075168031515e+00 
1.1223110000000001e+00,	 2.6546530000000002e-01,	 5.2065022742445510e-02,	 1.4572707186144210e+03,	 -3.1025892540467250e+01,	 7.3535303107142227e+02,	 1.1014680058415381e+04,	 5.4422304761346948e+02,	 2.6783153793092844e+00 
1.1234550000000001e+00,	 2.6544109999999999e-01,	 5.2132488408681538e-02,	 1.4570957893672103e+03,	 -3.1050890477848650e+01,	 7.3560997153952553e+02,	 1.1032806478483346e+04,	 5.4431811808033365e+02,	 2.6775272631044840e+00 
1.1246069999999999e+00,	 2.6541670000000001e-01,	 5.2203875769935647e-02,	 1.4569101938052481e+03,	 -3.1037684750033719e+01,	 7.3588598442299110e+02,	 1.1052059554604517e+04,	 5.4442022702986867e+02,	 2.6766837340974741e+00 
1.1257690000000000e+00,	 2.6539219999999997e-01,	 5.2278779299753685e-02,	 1.4567197550735855e+03,	 -3.1030362295665626e+01,	 7.3617478811006117e+02,	 1.1072261030784406e+04,	 5.4452704734488498e+02,	 2.6758087074301153e+00 
1.1269389999999999e+00,	 2.6536739999999998e-01,	 5.2348268479315715e-02,	 1.4565348555302207e+03,	 -3.1044310904275960e+01,	 7.3644321240610748e+02,	 1.1091020865761202e+04,	 5.4462631111385178e+02,	 2.6749821382998493e+00 
1.1281180000000000e+00,	 2.6534249999999998e-01,	 5.2426526097006404e-02,	 1.4563388859177664e+03,	 -3.1013111410571405e+01,	 7.3673995479403061e+02,	 1.1112076993352255e+04,	 5.4473602591092481e+02,	 2.6740824826996783e+00 
1.1293070000000001e+00,	 2.6531739999999998e-01,	 5.2502968600930837e-02,	 1.4561427724721925e+03,	 -3.0999806064491082e+01,	 7.3703257383094910e+02,	 1.1132699322722528e+04,	 5.4484419454336444e+02,	 2.6731912112295180e+00 
1.1305040000000000e+00,	 2.6529209999999998e-01,	 5.2577501808253477e-02,	 1.4559489665688443e+03,	 -3.1008341961045769e+01,	 7.3731750331809496e+02,	 1.1152813202083082e+04,	 5.4494950004922998e+02,	 2.6723194203239489e+00 
1.1317100000000000e+00,	 2.6526659999999996e-01,	 5.2653681288570647e-02,	 1.4557527199440583e+03,	 -3.1011672046061090e+01,	 7.3760801490490758e+02,	 1.1173373203749015e+04,	 5.4505684766538741e+02,	 2.6714332772966518e+00 
1.1329260000000001e+00,	 2.6524090000000000e-01,	 5.2731331642066198e-02,	 1.4555510225689873e+03,	 -3.1006814096607840e+01,	 7.3790799178127850e+02,	 1.1194401781627601e+04,	 5.4516767064102498e+02,	 2.6705201430431829e+00 
1.1341509999999999e+00,	 2.6521499999999998e-01,	 5.2811324216272139e-02,	 1.4553409112171889e+03,	 -3.0983219906979411e+01,	 7.3822093650319925e+02,	 1.1216138223917822e+04,	 5.4528326043155357e+02,	 2.6695678839685733e+00 
1.1353850000000001e+00,	 2.6518900000000001e-01,	 5.2893964822570069e-02,	 1.4551359462310415e+03,	 -3.0960762836495682e+01,	 7.3853075148614266e+02,	 1.1238404074938262e+04,	 5.4539767008496767e+02,	 2.6686312815723596e+00 
1.1366289999999999e+00,	 2.6516269999999997e-01,	 5.2969986180292195e-02,	 1.4549361395248457e+03,	 -3.0975441053543328e+01,	 7.3882201866664968e+02,	 1.1258995020977971e+04,	 5.4550520845195263e+02,	 2.6677395771887480e+00 
1.1378830000000000e+00,	 2.6513619999999999e-01,	 5.3048922305239318e-02,	 1.4547379375911651e+03,	 -3.0980425132923010e+01,	 7.3911664574793895e+02,	 1.1280269776127738e+04,	 5.4561396575987453e+02,	 2.6668448290331628e+00 
1.1391460000000000e+00,	 2.6510950000000000e-01,	 5.3127875019856483e-02,	 1.4545361800583696e+03,	 -3.0978488991118020e+01,	 7.3941719712013048e+02,	 1.1301651991968871e+04,	 5.4572488760142517e+02,	 2.6659330795985872e+00 
1.1404190000000001e+00,	 2.6508260000000000e-01,	 5.3206903198442908e-02,	 1.4543343428007797e+03,	 -3.0969847028030681e+01,	 7.3971883445270851e+02,	 1.1323080544092898e+04,	 5.4583618756554426e+02,	 2.6650194469536643e+00 
1.1417010000000001e+00,	 2.6505550000000000e-01,	 5.3285756253995675e-02,	 1.4541395017280777e+03,	 -3.0958357297690071e+01,	 7.4001069256358869e+02,	 1.1344335613584151e+04,	 5.4594385753452877e+02,	 2.6641366014685421e+00 
1.1429940000000001e+00,	 2.6502819999999999e-01,	 5.3362266979170160e-02,	 1.4539522687974086e+03,	 -3.0953660373300892e+01,	 7.4029204748052825e+02,	 1.1364943810281165e+04,	 5.4604763265075451e+02,	 2.6632872953926756e+00 
1.1442969999999999e+00,	 2.6500059999999998e-01,	 5.3434875181167102e-02,	 1.4537690884871108e+03,	 -3.0954958928362625e+01,	 7.4056337434134355e+02,	 1.1384578769044805e+04,	 5.4614769033582729e+02,	 2.6624640867010627e+00 
1.1456100000000000e+00,	 2.6497290000000001e-01,	 5.3509619117210000e-02,	 1.4535936033969674e+03,	 -3.0919755495698936e+01,	 7.4083383461595099e+02,	 1.1404666918691584e+04,	 5.4624741020823853e+02,	 2.6616554879489596e+00 
1.1469330000000000e+00,	 2.6494489999999998e-01,	 5.3576550805645023e-02,	 1.4534312732599301e+03,	 -3.0904897713261938e+01,	 7.4107683095597690e+02,	 1.1422677725422955e+04,	 5.4633698848647248e+02,	 2.6609214430704271e+00 
1.1482660000000000e+00,	 2.6491680000000001e-01,	 5.3643358496030059e-02,	 1.4532857811930553e+03,	 -3.0858694416571048e+01,	 7.4130559876870598e+02,	 1.1440451858311597e+04,	 5.4642130813362792e+02,	 2.6602428298515051e+00 
1.1496100000000000e+00,	 2.6488839999999997e-01,	 5.3695344251503768e-02,	 1.4531759993509877e+03,	 -3.0871548567469212e+01,	 7.4147167833750177e+02,	 1.1454104358802191e+04,	 5.4648251388545191e+02,	 2.6597445407064901e+00 
1.1509640000000001e+00,	 2.6485969999999998e-01,	 5.3740927223494321e-02,	 1.4530826977647141e+03,	 -3.0866679075358384e+01,	 7.4161574283923210e+02,	 1.1466055328587572e+04,	 5.4653560081350463e+02,	 2.6593153250650863e+00 
1.1523289999999999e+00,	 2.6483089999999998e-01,	 5.3784015005249132e-02,	 1.4530175582036177e+03,	 -3.0811002268127428e+01,	 7.4173238723271584e+02,	 1.1477053324957951e+04,	 5.4657857981425968e+02,	 2.6589849041351683e+00 
1.1537040000000001e+00,	 2.6480179999999998e-01,	 5.3809999604623682e-02,	 1.4529927645658772e+03,	 -3.0789081186013650e+01,	 7.4178411967601562e+02,	 1.1483399077145299e+04,	 5.4659764016059569e+02,	 2.6588459832834137e+00 
1.1550910000000001e+00,	 2.6477249999999997e-01,	 5.3827924442077749e-02,	 1.4529950959231151e+03,	 -3.0739096563939178e+01,	 7.4179318413976489e+02,	 1.1487364724177494e+04,	 5.4660097981105957e+02,	 2.6588320666171388e+00 
1.1564880000000000e+00,	 2.6474300000000001e-01,	 5.3832135072602205e-02,	 1.4530182330478144e+03,	 -3.0666017094774254e+01,	 7.4176613109491245e+02,	 1.1487844336120697e+04,	 5.4659101250752838e+02,	 2.6589200473838832e+00 
1.0567150000000001e+00,	 2.6755519999999999e-01,	 4.9690420227951837e-02,	 1.4854462227915678e+03,	 -3.2323705080384670e+01,	 6.9563488723775822e+02,	 9.9445231131117871e+03,	 5.2932165755069218e+02,	 2.8069848384001896e+00 
1.0574060000000001e+00,	 2.6754089999999997e-01,	 4.9725766861124836e-02,	 1.4853714930065091e+03,	 -3.2305951670537112e+01,	 6.9576939449925521e+02,	 9.9535212508746754e+03,	 5.2937282962858296e+02,	 2.8065716372057383e+00 
1.0581020000000001e+00,	 2.6752650000000000e-01,	 4.9767090007479746e-02,	 1.4852689269013499e+03,	 -3.2290696600787641e+01,	 6.9592748366996204e+02,	 9.9640563017509594e+03,	 5.2943296690900650e+02,	 2.8060585352442384e+00 
1.0588010000000001e+00,	 2.6751199999999997e-01,	 4.9806906880316852e-02,	 1.4851705500902062e+03,	 -3.2291264222231625e+01,	 6.9607712820627751e+02,	 9.9741724621100129e+03,	 5.2948988554934579e+02,	 2.8055711637687959e+00 
1.0595049999999999e+00,	 2.6749750000000000e-01,	 4.9846628867003570e-02,	 1.4850743798132821e+03,	 -3.2299795875287089e+01,	 6.9622214451697801e+02,	 9.9842066738691083e+03,	 5.2954503796554548e+02,	 2.8050977458898214e+00 
1.0602130000000001e+00,	 2.6748279999999997e-01,	 4.9885594995356684e-02,	 1.4849705001976088e+03,	 -3.2308439363420341e+01,	 6.9637325517575528e+02,	 9.9941802358062650e+03,	 5.2960250206567935e+02,	 2.8045976359335478e+00 
1.0609249999999999e+00,	 2.6746809999999999e-01,	 4.9928054251007700e-02,	 1.4848595573612001e+03,	 -3.2288507473000777e+01,	 6.9653868460688022e+02,	 1.0005062832186752e+04,	 5.2966540413534528e+02,	 2.8040543400479954e+00 
1.0616420000000000e+00,	 2.6745320000000000e-01,	 4.9971623913371198e-02,	 1.4847523442884758e+03,	 -3.2271498846016399e+01,	 6.9670716368705439e+02,	 1.0016215880198228e+04,	 5.2972945811146292e+02,	 2.8035122364241860e+00 
1.0623620000000000e+00,	 2.6743829999999996e-01,	 5.0011744046125642e-02,	 1.4846512984005522e+03,	 -3.2279373538165217e+01,	 6.9686000496219867e+02,	 1.0026456570101853e+04,	 5.2978756005883372e+02,	 2.8030144134924879e+00 
1.0630869999999999e+00,	 2.6742329999999997e-01,	 5.0053799291554353e-02,	 1.4845423689605159e+03,	 -3.2280032000065390e+01,	 6.9702141695079160e+02,	 1.0037212248265345e+04,	 5.2984891320847044e+02,	 2.8024843319117112e+00 
1.0638170000000000e+00,	 2.6740819999999998e-01,	 5.0097624710824532e-02,	 1.4844315936076541e+03,	 -3.2271675209641799e+01,	 6.9719012058115197e+02,	 1.0048431977414850e+04,	 5.2991303033956422e+02,	 2.8019359059074480e+00 
1.0645510000000000e+00,	 2.6739299999999999e-01,	 5.0140558602094633e-02,	 1.4843205102395682e+03,	 -3.2270151850165547e+01,	 6.9735824156461899e+02,	 1.0059468692651795e+04,	 5.2997691831434474e+02,	 2.8013885231121090e+00 
1.0652889999999999e+00,	 2.6737770000000000e-01,	 5.0184460263619647e-02,	 1.4842084190241151e+03,	 -3.2270875953522491e+01,	 6.9752767275978704e+02,	 1.0070722683661555e+04,	 5.3004129639424218e+02,	 2.8008368736303413e+00 
1.0660320000000001e+00,	 2.6736230000000000e-01,	 5.0228593161710071e-02,	 1.4840954828013473e+03,	 -3.2273366157878421e+01,	 6.9769829802563368e+02,	 1.0082044623886635e+04,	 5.3010612027914351e+02,	 2.8002814819582342e+00 
1.0667800000000001e+00,	 2.6734680000000000e-01,	 5.0273157717154633e-02,	 1.4839805883962238e+03,	 -3.2277465050625167e+01,	 6.9787207616945761e+02,	 1.0093503162607227e+04,	 5.3017213385719799e+02,	 2.7997163169852568e+00 
1.0675319999999999e+00,	 2.6733119999999999e-01,	 5.0317930050628158e-02,	 1.4838663814484826e+03,	 -3.2286961174601650e+01,	 6.9804416640763804e+02,	 1.0104983449617357e+04,	 5.3023749814671180e+02,	 2.7991562380293140e+00 
1.0682900000000000e+00,	 2.6731549999999998e-01,	 5.0363533816056759e-02,	 1.4837513983815661e+03,	 -3.2296550963632065e+01,	 6.9821694014113086e+02,	 1.0116645084842796e+04,	 5.3030311394053183e+02,	 2.7985935106992073e+00 
1.0690519999999999e+00,	 2.6729979999999998e-01,	 5.0410014894126179e-02,	 1.4836328849617362e+03,	 -3.2302453215677914e+01,	 6.9839495005479148e+02,	 1.0128563463524319e+04,	 5.3037070983380909e+02,	 2.7980136703916525e+00 
1.0698179999999999e+00,	 2.6728389999999996e-01,	 5.0457195717975495e-02,	 1.4835083056246649e+03,	 -3.2302897817944512e+01,	 6.9858222070869067e+02,	 1.0140761665101361e+04,	 5.3044181301998469e+02,	 2.7974038243777013e+00 
1.0705899999999999e+00,	 2.6726790000000000e-01,	 5.0505595969327813e-02,	 1.4833894681330755e+03,	 -3.2311011830399345e+01,	 6.9876693710216250e+02,	 1.0153172980030688e+04,	 5.3051193706525896e+02,	 2.7968104391909523e+00 
1.0713670000000000e+00,	 2.6725179999999998e-01,	 5.0550680465360355e-02,	 1.4832735461120164e+03,	 -3.2342201760314055e+01,	 6.9893789639781869e+02,	 1.0164722623610136e+04,	 5.3057683023319282e+02,	 2.7962512198532190e+00 
1.0721480000000001e+00,	 2.6723559999999996e-01,	 5.0599579436482418e-02,	 1.4831429462366018e+03,	 -3.2351735234152692e+01,	 6.9912883347567890e+02,	 1.0177334723590388e+04,	 5.3064929723792989e+02,	 2.7956236925646438e+00 
1.0729350000000000e+00,	 2.6721929999999999e-01,	 5.0651457971669783e-02,	 1.4830089095235232e+03,	 -3.2337987875104112e+01,	 6.9933174341726624e+02,	 1.0190726123009645e+04,	 5.3072629749972577e+02,	 2.7949650322449711e+00 
1.0737270000000001e+00,	 2.6720289999999997e-01,	 5.0703686256677885e-02,	 1.4828794789666131e+03,	 -3.2336432343633049e+01,	 6.9953248405258353e+02,	 1.0204162323095246e+04,	 5.3080246356174075e+02,	 2.7943201309664700e+00 
1.0745240000000000e+00,	 2.6718639999999999e-01,	 5.0753404649240635e-02,	 1.4827474693987699e+03,	 -3.2343581637963872e+01,	 6.9972809883061495e+02,	 1.0217024447876442e+04,	 5.3087667423144558e+02,	 2.7936812054327200e+00 
1.0753260000000000e+00,	 2.6716980000000001e-01,	 5.0807464189531415e-02,	 1.4826104338509501e+03,	 -3.2341374115674242e+01,	 6.9993650229889272e+02,	 1.0230953249102582e+04,	 5.3095572515400579e+02,	 2.7930071488990058e+00 
1.0761330000000000e+00,	 2.6715309999999998e-01,	 5.0859660884680975e-02,	 1.4824792505115770e+03,	 -3.2352886843187001e+01,	 7.0013600948446378e+02,	 1.0244383134960266e+04,	 5.3103139054271162e+02,	 2.7923626767065688e+00 
1.0769460000000000e+00,	 2.6713629999999999e-01,	 5.0912085621233685e-02,	 1.4823438501717333e+03,	 -3.2370465354043532e+01,	 7.0033801099982634e+02,	 1.0257901493524992e+04,	 5.3110799095177526e+02,	 2.7917057847713660e+00 
1.0777639999999999e+00,	 2.6711930000000000e-01,	 5.0965839298755693e-02,	 1.4822026590000817e+03,	 -3.2381171628072892e+01,	 7.0054758423966064e+02,	 1.0271804801822289e+04,	 5.3118745093745144e+02,	 2.7910228759135847e+00 
1.0785880000000001e+00,	 2.6710230000000001e-01,	 5.1021950310276662e-02,	 1.4820588553151490e+03,	 -3.2379585867845705e+01,	 7.0076318792265317e+02,	 1.0286278357128729e+04,	 5.3126918497162433e+02,	 2.7903228059974725e+00 