TITLE = "Final State"
VARIABLES = "X", "Y", "rho", "u", "v", "T", "p", "c", "M"
ZONE I=102, J=27, DATAPACKING=POINT, STRANDID=77000, SOLUTIONTIME=0.001858
1.0567150000000001e+00,	 2.6685149999999996e-01,	 4.8001622575188245e-02,	 1.4679277472566291e+03,	 -3.1227077598206144e+01,	 7.1939137378760483e+02,	 9.9346159113743342e+03,	 5.3828415929362109e+02,	 2.7276668457735727e+00 
1.0574060000000001e+00,	 2.6683689999999999e-01,	 4.8034938337424143e-02,	 1.4678558478751097e+03,	 -3.1227895112972554e+01,	 7.1951880641269736e+02,	 9.9432721146675922e+03,	 5.3833183287472968e+02,	 2.7272917920168895e+00 
1.0581020000000001e+00,	 2.6682220000000001e-01,	 4.8073339888005856e-02,	 1.4677575299731220e+03,	 -3.1238579116882530e+01,	 7.1966409909592085e+02,	 9.9532307210962081e+03,	 5.3838618289840861e+02,	 2.7268343197779408e+00 
1.0588010000000001e+00,	 2.6680739999999997e-01,	 4.8109628286029313e-02,	 1.4676597767253411e+03,	 -3.1261385068380164e+01,	 7.1980684805878741e+02,	 9.9627197296976556e+03,	 5.3843957604293803e+02,	 2.7263833130158779e+00 
1.0595049999999999e+00,	 2.6679249999999999e-01,	 4.8147873256299711e-02,	 1.4675647361481176e+03,	 -3.1273294200681587e+01,	 7.1994969465694771e+02,	 9.9726183258741112e+03,	 5.3849300040699143e+02,	 2.7259368436202402e+00 
1.0602130000000001e+00,	 2.6677750000000000e-01,	 4.8188247696386050e-02,	 1.4674573235283851e+03,	 -3.1256206145868696e+01,	 7.2011444073043549e+02,	 9.9832648210999814e+03,	 5.3855460855372462e+02,	 2.7254249324121989e+00 
1.0609249999999999e+00,	 2.6676250000000001e-01,	 4.8234011448275341e-02,	 1.4673447630277615e+03,	 -3.1203828876259600e+01,	 7.2029364757135249e+02,	 9.9952325808938986e+03,	 5.3862161642139188e+02,	 2.7248748720538125e+00 
1.0616410000000001e+00,	 2.6674739999999997e-01,	 4.8272601475181746e-02,	 1.4672403981936523e+03,	 -3.1222084328575306e+01,	 7.2044700891397224e+02,	 1.0005359188726847e+04,	 5.3867895368801283e+02,	 2.7243918573510695e+00 
1.0623620000000000e+00,	 2.6673209999999997e-01,	 4.8308535956167270e-02,	 1.4671396732027288e+03,	 -3.1245457238851799e+01,	 7.2059019989751232e+02,	 1.0014797327177388e+04,	 5.3873248304962169e+02,	 2.7239351563235767e+00 
1.0630869999999999e+00,	 2.6671679999999998e-01,	 4.8353303478206759e-02,	 1.4670263533435350e+03,	 -3.1214106834353078e+01,	 7.2076671023690960e+02,	 1.0026533462764550e+04,	 5.3879846093199387e+02,	 2.7233900900464865e+00 
1.0638170000000000e+00,	 2.6670139999999998e-01,	 4.8395587696797540e-02,	 1.4669154748368155e+03,	 -3.1204362561804430e+01,	 7.2093488016626884e+02,	 1.0037642957199087e+04,	 5.3886131373385024e+02,	 2.7228663312014105e+00 
1.0645500000000001e+00,	 2.6668589999999998e-01,	 4.8436165313821458e-02,	 1.4668066355803685e+03,	 -3.1208742275120194e+01,	 7.2109553160647965e+02,	 1.0048297729012154e+04,	 5.3892134968601749e+02,	 2.7223612642692445e+00 
1.0652889999999999e+00,	 2.6667029999999997e-01,	 4.8479242325488378e-02,	 1.4666930957851550e+03,	 -3.1204276353348398e+01,	 7.2126662160239880e+02,	 1.0059620465929702e+04,	 5.3898527920641459e+02,	 2.7218275792829441e+00 
1.0660320000000001e+00,	 2.6665459999999996e-01,	 4.8521494545056471e-02,	 1.4665790426664903e+03,	 -3.1206267103053307e+01,	 7.2143664773609294e+02,	 1.0070761404705803e+04,	 5.3904880369257808e+02,	 2.7212953683573944e+00 
1.0667800000000001e+00,	 2.6663880000000001e-01,	 4.8564542076854317e-02,	 1.4664644823562016e+03,	 -3.1209848579010135e+01,	 7.2160795589845088e+02,	 1.0082089497178269e+04,	 5.3911279959511978e+02,	 2.7207600259664644e+00 
1.0675319999999999e+00,	 2.6662290000000000e-01,	 4.8607338113272495e-02,	 1.4663480181301493e+03,	 -3.1217808693442457e+01,	 7.2178101393756401e+02,	 1.0093394079772130e+04,	 5.3917744148974668e+02,	 2.7202181940742531e+00 
1.0682890000000000e+00,	 2.6660689999999998e-01,	 4.8651809476636942e-02,	 1.4662271789899587e+03,	 -3.1216536412798668e+01,	 7.2196247088285327e+02,	 1.0105168449472489e+04,	 5.3924521228258993e+02,	 2.7196522359886908e+00 
1.0690510000000000e+00,	 2.6659080000000002e-01,	 4.8697903774817586e-02,	 1.4661084020666303e+03,	 -3.1210209468808102e+01,	 7.2214231237421905e+02,	 1.0117262004262655e+04,	 5.3931237133065963e+02,	 2.7190931278507167e+00 
1.0698179999999999e+00,	 2.6657459999999999e-01,	 4.8744745902793818e-02,	 1.4659852470121536e+03,	 -3.1204521873028945e+01,	 7.2232840741360110e+02,	 1.0129603430234198e+04,	 5.3938185686711279e+02,	 2.7185143433675734e+00 
1.0705899999999999e+00,	 2.6655829999999997e-01,	 4.8788545620033270e-02,	 1.4658682418234830e+03,	 -3.1239091594809274e+01,	 7.2249995130998707e+02,	 1.0141113226341660e+04,	 5.3944590126266110e+02,	 2.7179761093087937e+00 
1.0713660000000000e+00,	 2.6654180000000000e-01,	 4.8830562906476319e-02,	 1.4657496504169621e+03,	 -3.1265766247060490e+01,	 7.2267056298669104e+02,	 1.0152243668289268e+04,	 5.3950959008148470e+02,	 2.7174365442023816e+00 
1.0721480000000001e+00,	 2.6652529999999997e-01,	 4.8884677726325432e-02,	 1.4656104590946507e+03,	 -3.1217217047132269e+01,	 7.2289023347515194e+02,	 1.0166583950879285e+04,	 5.3959158133476603e+02,	 2.7167638125259592e+00 
1.0729350000000000e+00,	 2.6650869999999999e-01,	 4.8935900751221353e-02,	 1.4654729391234839e+03,	 -3.1190134360260927e+01,	 7.2310005717160652e+02,	 1.0180190853343644e+04,	 5.3966988567508758e+02,	 2.7161137860554794e+00 
1.0737260000000000e+00,	 2.6649200000000001e-01,	 4.8983285286946787e-02,	 1.4653439020145138e+03,	 -3.1215061108113574e+01,	 7.2328862703716447e+02,	 1.0192705670414201e+04,	 5.3974024858202461e+02,	 2.7155216662522115e+00 
1.0745229999999999e+00,	 2.6647509999999996e-01,	 4.9031546530917798e-02,	 1.4652110148834834e+03,	 -3.1210035303593763e+01,	 7.2348348061568140e+02,	 1.0205496744860617e+04,	 5.3981294655674833e+02,	 2.7149096450833472e+00 
1.0753260000000000e+00,	 2.6645819999999998e-01,	 4.9086402734279021e-02,	 1.4650715634178941e+03,	 -3.1195340273018296e+01,	 7.2369866823931898e+02,	 1.0219953438262000e+04,	 5.3989321959134463e+02,	 2.7142471682083293e+00 
1.0761330000000000e+00,	 2.6644109999999999e-01,	 4.9132957057418734e-02,	 1.4649410971731445e+03,	 -3.1229659029978926e+01,	 7.2388630300720433e+02,	 1.0232298464609816e+04,	 5.3996320464036978e+02,	 2.7136551605404087e+00 
1.0769460000000000e+00,	 2.6642389999999999e-01,	 4.9185334154510679e-02,	 1.4648058711976441e+03,	 -3.1234793113545130e+01,	 7.2408958773383597e+02,	 1.0246082918329799e+04,	 5.4003901666141394e+02,	 2.7130240700364108e+00 
1.0777639999999999e+00,	 2.6640659999999999e-01,	 4.9239194506953590e-02,	 1.4646585595377462e+03,	 -3.1221944887313889e+01,	 7.2431231889580181e+02,	 1.0260458044921057e+04,	 5.4012206872520210e+02,	 2.7123337181231779e+00 
1.0785880000000001e+00,	 2.6638919999999999e-01,	 4.9295510686612844e-02,	 1.4645102004502548e+03,	 -3.1198740001101960e+01,	 7.2453807440535707e+02,	 1.0275394867727264e+04,	 5.4020623547886100e+02,	 2.7116356363601088e+00 
1.0794170000000001e+00,	 2.6637169999999999e-01,	 4.9352291159825229e-02,	 1.4643574741569041e+03,	 -3.1173831734205464e+01,	 7.2476841595547921e+02,	 1.0290500929689080e+04,	 5.4029209849830499e+02,	 2.7109211131990310e+00 
1.0802520000000000e+00,	 2.6635409999999998e-01,	 4.9407520879727843e-02,	 1.4642099434362781e+03,	 -3.1182946588248235e+01,	 7.2498766089266189e+02,	 1.0305133335337188e+04,	 5.4037381242759784e+02,	 2.7102385796241113e+00 
1.0810919999999999e+00,	 2.6633629999999997e-01,	 4.9458183814375126e-02,	 1.4640683744797975e+03,	 -3.1223041660857529e+01,	 7.2519072983615376e+02,	 1.0318589741805179e+04,	 5.4044948644394037e+02,	 2.7095987840949878e+00 
1.0819380000000001e+00,	 2.6631840000000001e-01,	 4.9515327063777329e-02,	 1.4639184508727324e+03,	 -3.1221340880838497e+01,	 7.2541685356389598e+02,	 1.0333732872231227e+04,	 5.4053373940143797e+02,	 2.7088990729182165e+00 
1.0827899999999999e+00,	 2.6630039999999999e-01,	 4.9575013440072632e-02,	 1.4637556885774688e+03,	 -3.1193687601543044e+01,	 7.2566481126033409e+02,	 1.0349725752472512e+04,	 5.4062611253067735e+02,	 2.7081341372249694e+00 
1.0836479999999999e+00,	 2.6628229999999997e-01,	 4.9636137314742243e-02,	 1.4635953409181604e+03,	 -3.1163300701718171e+01,	 7.2590874126068286e+02,	 1.0365969840439669e+04,	 5.4071696980065667e+02,	 2.7073814105128506e+00 
1.0845110000000000e+00,	 2.6626410000000000e-01,	 4.9694229220994049e-02,	 1.4634392193588408e+03,	 -3.1172795466467157e+01,	 7.2614026181539862e+02,	 1.0381411686685185e+04,	 5.4080319077135835e+02,	 2.7066615237483322e+00 
1.0853800000000000e+00,	 2.6624569999999997e-01,	 4.9750100771927687e-02,	 1.4632873698906330e+03,	 -3.1191551225249583e+01,	 7.2636161505852715e+02,	 1.0396251756167179e+04,	 5.4088561246383745e+02,	 2.7059691350926927e+00 
1.0862560000000001e+00,	 2.6622720000000000e-01,	 4.9811106698555818e-02,	 1.4631229972655324e+03,	 -3.1176912648401391e+01,	 7.2661016509103058e+02,	 1.0412561935258735e+04,	 5.4097814601403263e+02,	 2.7052019319217084e+00 
1.0871370000000000e+00,	 2.6620859999999996e-01,	 4.9870732924368680e-02,	 1.4629665859344045e+03,	 -3.1181695785089307e+01,	 7.2684467116798101e+02,	 1.0428390830905699e+04,	 5.4106543658232738e+02,	 2.7044766730146899e+00 
1.0880250000000000e+00,	 2.6618979999999998e-01,	 4.9928254787791566e-02,	 1.4628103150388372e+03,	 -3.1196493524829933e+01,	 7.2707485320699629e+02,	 1.0443725479512874e+04,	 5.4115110391374833e+02,	 2.7037604123095966e+00 
1.0889190000000000e+00,	 2.6617089999999999e-01,	 4.9990038887253528e-02,	 1.4626468195849670e+03,	 -3.1181312413783598e+01,	 7.2732216397410184e+02,	 1.0460205922572986e+04,	 5.4124313096939841e+02,	 2.7029980912546021e+00 
1.0898190000000001e+00,	 2.6615190000000000e-01,	 5.0053952197696497e-02,	 1.4624807892219619e+03,	 -3.1148780012391072e+01,	 7.2757541250727411e+02,	 1.0477226342406468e+04,	 5.4133735132060713e+02,	 2.7022197167890152e+00 
1.0907249999999999e+00,	 2.6613280000000000e-01,	 5.0116215246923543e-02,	 1.4623172270110840e+03,	 -3.1134464630230688e+01,	 7.2782159416983484e+02,	 1.0493808633831295e+04,	 5.4142892674751238e+02,	 2.7014600846060652e+00 
1.0916380000000001e+00,	 2.6611350000000000e-01,	 5.0172317538025389e-02,	 1.4621662925894411e+03,	 -3.1176778276584656e+01,	 7.2804040698524636e+02,	 1.0508714261805857e+04,	 5.4151030842521186e+02,	 2.7007770908398046e+00 
1.0925570000000000e+00,	 2.6609400000000000e-01,	 5.0230396501595873e-02,	 1.4620122986542044e+03,	 -3.1182038004698292e+01,	 7.2826745050911654e+02,	 1.0524160038070771e+04,	 5.4159473837138535e+02,	 2.7000720004291212e+00 
1.0934820000000001e+00,	 2.6607449999999999e-01,	 5.0296270952450824e-02,	 1.4618468467478510e+03,	 -3.1143326705263554e+01,	 7.2852470742588343e+02,	 1.0541684388824999e+04,	 5.4169038777208596e+02,	 2.6992883432028973e+00 
1.0944140000000000e+00,	 2.6605479999999998e-01,	 5.0354283422387236e-02,	 1.4616926735757347e+03,	 -3.1156410324948105e+01,	 7.2875210686115452e+02,	 1.0557137568822382e+04,	 5.4177492195208924e+02,	 2.6985831766377655e+00 
1.0953530000000000e+00,	 2.6603489999999996e-01,	 5.0413775481554866e-02,	 1.4615302211180956e+03,	 -3.1148377491135399e+01,	 7.2899282981084764e+02,	 1.0573101883054978e+04,	 5.4186439468765536e+02,	 2.6978375355421997e+00 
1.0962980000000000e+00,	 2.6601500000000000e-01,	 5.0478380632949932e-02,	 1.4613718923990168e+03,	 -3.1123386399521614e+01,	 7.2923703683203075e+02,	 1.0590197738944962e+04,	 5.4195514730140962e+02,	 2.6970927120679762e+00 
1.0972510000000000e+00,	 2.6599479999999998e-01,	 5.0535634138813235e-02,	 1.4612119779943246e+03,	 -3.1128151386557647e+01,	 7.2947017782777721e+02,	 1.0605598918852396e+04,	 5.4204177336335817e+02,	 2.6963669097251906e+00 
1.0982099999999999e+00,	 2.6597460000000001e-01,	 5.0601385352933632e-02,	 1.4610494682552508e+03,	 -3.1089094308591960e+01,	 7.2972120853143701e+02,	 1.0623052142948171e+04,	 5.4213503106439214e+02,	 2.6956018581387093e+00 
1.0991759999999999e+00,	 2.6595419999999997e-01,	 5.0658725781270730e-02,	 1.4609003395955074e+03,	 -3.1111391838476003e+01,	 7.2993983154837474e+02,	 1.0638276214496336e+04,	 5.4221623626899270e+02,	 2.6949240524755336e+00 
1.1001479999999999e+00,	 2.6593359999999999e-01,	 5.0715121519369813e-02,	 1.4607498711732089e+03,	 -3.1130028544096149e+01,	 7.3015901752349282e+02,	 1.0653317269527482e+04,	 5.4229763837153951e+02,	 2.6942428585881020e+00 
1.1011280000000001e+00,	 2.6591290000000001e-01,	 5.0776497474812610e-02,	 1.4605938681642208e+03,	 -3.1123959772190098e+01,	 7.3039581934060936e+02,	 1.0669669238566670e+04,	 5.4238556898177819e+02,	 2.6935182756773659e+00 
1.1021150000000000e+00,	 2.6589199999999996e-01,	 5.0835703283650356e-02,	 1.4604390244972215e+03,	 -3.1124453883187087e+01,	 7.3062609008170625e+02,	 1.0685477891704519e+04,	 5.4247106076669127e+02,	 2.6928084282684903e+00 
1.1031089999999999e+00,	 2.6587099999999997e-01,	 5.0900750158872882e-02,	 1.4602717425051685e+03,	 -3.1081063780449220e+01,	 7.3088172434278124e+02,	 1.0702893965529014e+04,	 5.4256595339563876e+02,	 2.6920275173963248e+00 
1.1041110000000001e+00,	 2.6584989999999997e-01,	 5.0965741953538105e-02,	 1.4601078322838998e+03,	 -3.1048711441816508e+01,	 7.3113135882508220e+02,	 1.0720220049364898e+04,	 5.4265860286484531e+02,	 2.6912646506792024e+00 
1.1051190000000000e+00,	 2.6582859999999997e-01,	 5.1023474564385891e-02,	 1.4599554415494001e+03,	 -3.1074508442021930e+01,	 7.3135202770849241e+02,	 1.0735602848639975e+04,	 5.4274048885725836e+02,	 2.6905789004047960e+00 
1.1061350000000001e+00,	 2.6580709999999996e-01,	 5.1083556096805358e-02,	 1.4597960628649378e+03,	 -3.1074836746956681e+01,	 7.3158698487743709e+02,	 1.0751697338993325e+04,	 5.4282766338032343e+02,	 2.6898532823811276e+00 
1.1071590000000000e+00,	 2.6578550000000001e-01,	 5.1147385541073426e-02,	 1.4596327802731007e+03,	 -3.1062114440679395e+01,	 7.3183462895861828e+02,	 1.0768775723512224e+04,	 5.4291952988873607e+02,	 2.6890969570944483e+00 
1.1081900000000000e+00,	 2.6576369999999999e-01,	 5.1206718077194645e-02,	 1.4594792324245054e+03,	 -3.1085470396005192e+01,	 7.3206041338540399e+02,	 1.0784594052850483e+04,	 5.4300327375428651e+02,	 2.6884004395575416e+00 
1.1092290000000000e+00,	 2.6574169999999997e-01,	 5.1267962495893091e-02,	 1.4593228281756403e+03,	 -3.1093123785814626e+01,	 7.3229259639964425e+02,	 1.0800917249768470e+04,	 5.4308937740053477e+02,	 2.6876865849560234e+00 
1.1102749999999999e+00,	 2.6571960000000000e-01,	 5.1332277371545894e-02,	 1.4591578829001423e+03,	 -3.1082315463395638e+01,	 7.3254192734103151e+02,	 1.0818148944486649e+04,	 5.4318182505215736e+02,	 2.6869251302096573e+00 
1.1113290000000000e+00,	 2.6569729999999997e-01,	 5.1396510902913951e-02,	 1.4589909477269528e+03,	 -3.1068511585124611e+01,	 7.3279145764458735e+02,	 1.0835375664846280e+04,	 5.4327433087340307e+02,	 2.6861598677159111e+00 
1.1123909999999999e+00,	 2.6567489999999999e-01,	 5.1463626553369668e-02,	 1.4588220902795197e+03,	 -3.1046671908675350e+01,	 7.3304760685612939e+02,	 1.0853317418692568e+04,	 5.4336927407402459e+02,	 2.6853789685057983e+00 
1.1134599999999999e+00,	 2.6565230000000001e-01,	 5.1525842354217873e-02,	 1.4586566760720700e+03,	 -3.1056196868501551e+01,	 7.3328997211865317e+02,	 1.0870031031036271e+04,	 5.4345909290157704e+02,	 2.6846312183380485e+00 
1.1145380000000000e+00,	 2.6562949999999996e-01,	 5.1591360947263049e-02,	 1.4584863649667248e+03,	 -3.1046029075910504e+01,	 7.3354346449875015e+02,	 1.0887615470066079e+04,	 5.4355301947931252e+02,	 2.6838536545254326e+00 
1.1156239999999999e+00,	 2.6560659999999997e-01,	 5.1659726750050101e-02,	 1.4583125247282537e+03,	 -3.1025596366668218e+01,	 7.3380677346827258e+02,	 1.0905956431496559e+04,	 5.4365056621720385e+02,	 2.6830516011310825e+00 
1.1167170000000000e+00,	 2.6558349999999997e-01,	 5.1723862464271991e-02,	 1.4581473731228916e+03,	 -3.1037444710533187e+01,	 7.3404955086007863e+02,	 1.0923108887856248e+04,	 5.4374049121947678e+02,	 2.6823046720855483e+00 
1.1178189999999999e+00,	 2.6556019999999997e-01,	 5.1789184355362665e-02,	 1.4579813248507985e+03,	 -3.1049588158309547e+01,	 7.3429531082076028e+02,	 1.0940565323041974e+04,	 5.4383150582377004e+02,	 2.6815509808093561e+00 
1.1189300000000000e+00,	 2.6553670000000001e-01,	 5.1856779709269746e-02,	 1.4578067536195852e+03,	 -3.1044013302904109e+01,	 7.3455592593445454e+02,	 1.0958733051228664e+04,	 5.4392800523902224e+02,	 2.6807541502528585e+00 
1.1200479999999999e+00,	 2.6551310000000000e-01,	 5.1927299498774809e-02,	 1.4576252374785661e+03,	 -3.1020179858257379e+01,	 7.3482980983897380e+02,	 1.0977727371209179e+04,	 5.4402939931725643e+02,	 2.6799200135744758e+00 
1.1211750000000000e+00,	 2.6548929999999998e-01,	 5.1996371916242096e-02,	 1.4574478932084442e+03,	 -3.1015675202985427e+01,	 7.3509343730005889e+02,	 1.0996273281310681e+04,	 5.4412697852964743e+02,	 2.6791133921988339e+00 
1.1223110000000001e+00,	 2.6546530000000002e-01,	 5.2064841328380025e-02,	 1.4572730539713016e+03,	 -3.1025948703011970e+01,	 7.3535199500387648e+02,	 1.1014626160181200e+04,	 5.4422266422480288e+02,	 2.6783215585061626e+00 
1.1234550000000001e+00,	 2.6544109999999999e-01,	 5.2132297641097704e-02,	 1.4570982458203059e+03,	 -3.1050951276465529e+01,	 7.3560888215923433e+02,	 1.1032749767654903e+04,	 5.4431771503410505e+02,	 2.6775337599683948e+00 
1.1246069999999999e+00,	 2.6541670000000001e-01,	 5.2203675142547964e-02,	 1.4569127773327016e+03,	 -3.1037745554657548e+01,	 7.3588483890622297e+02,	 1.1051999875748463e+04,	 5.4441980329388582e+02,	 2.6766905642010990e+00 
1.1257690000000000e+00,	 2.6539219999999997e-01,	 5.2278568240712198e-02,	 1.4567224718781249e+03,	 -3.1030426625548145e+01,	 7.3617358336918937e+02,	 1.1072198210487293e+04,	 5.4452660178883730e+02,	 2.6758158875772753e+00 
1.1269389999999999e+00,	 2.6536739999999998e-01,	 5.2348046596994338e-02,	 1.4565377116322766e+03,	 -3.1044379892862345e+01,	 7.3644194624934948e+02,	 1.1090954787022609e+04,	 5.4462584292936106e+02,	 2.6749896834959195e+00 
1.1281180000000000e+00,	 2.6534249999999998e-01,	 5.2426292889581713e-02,	 1.4563418876871983e+03,	 -3.1013183548373103e+01,	 7.3673862461162344e+02,	 1.1112007501074348e+04,	 5.4473553415083995e+02,	 2.6740904088062623e+00 
1.1293070000000001e+00,	 2.6531739999999998e-01,	 5.2502723560706142e-02,	 1.4561459264895188e+03,	 -3.0999881239742216e+01,	 7.3703117675150543e+02,	 1.1132626262084290e+04,	 5.4484367815439339e+02,	 2.6731995352856077e+00 
1.1305040000000000e+00,	 2.6529209999999998e-01,	 5.2577244414586402e-02,	 1.4559522795964244e+03,	 -3.1008420972464208e+01,	 7.3731603643830044e+02,	 1.1152736415167634e+04,	 5.4494895796538924e+02,	 2.6723281598213631e+00 
1.1317100000000000e+00,	 2.6526659999999996e-01,	 5.2653411076633953e-02,	 1.4557561987005179e+03,	 -3.1011756474844660e+01,	 7.3760647571756090e+02,	 1.1173292547759516e+04,	 5.4505627897237980e+02,	 2.6714424488100574e+00 
1.1329260000000001e+00,	 2.6524090000000000e-01,	 5.2731048127888022e-02,	 1.4555546742014453e+03,	 -3.1006902169026510e+01,	 7.3790637753474857e+02,	 1.1194317105313794e+04,	 5.4516707433666750e+02,	 2.6705297641721413e+00 
1.1341509999999999e+00,	 2.6521499999999998e-01,	 5.2811026666806177e-02,	 1.4553447434495147e+03,	 -3.0983310989998024e+01,	 7.3821924334254686e+02,	 1.1216049305130478e+04,	 5.4528263510880481e+02,	 2.6695779753303714e+00 
1.1353850000000001e+00,	 2.6518900000000001e-01,	 5.2893652692517029e-02,	 1.4551399661175155e+03,	 -3.0960858703798870e+01,	 7.3852897660611029e+02,	 1.1238310747901416e+04,	 5.4539701471888156e+02,	 2.6686418609236369e+00 
1.1366289999999999e+00,	 2.6516269999999997e-01,	 5.2969659048498555e-02,	 1.4549403542204548e+03,	 -3.0975541922869127e+01,	 7.3882015964582740e+02,	 1.1258897158068579e+04,	 5.4550452215257781e+02,	 2.6677506618920410e+00 
1.1378830000000000e+00,	 2.6513619999999999e-01,	 5.3048579709187818e-02,	 1.4547423542929841e+03,	 -3.0980532419713509e+01,	 7.3911470014988811e+02,	 1.1280167233658523e+04,	 5.4561324764171752e+02,	 2.6668564363293839e+00 
1.1391460000000000e+00,	 2.6510950000000000e-01,	 5.3127516479769599e-02,	 1.4545408061735416e+03,	 -3.0978600637237225e+01,	 7.3941516228364094e+02,	 1.1301544620031113e+04,	 5.4572413669809021e+02,	 2.6659452273142690e+00 
1.1404190000000001e+00,	 2.6508260000000000e-01,	 5.3206528205219025e-02,	 1.4543391857007564e+03,	 -3.0969963859069964e+01,	 7.3971670761263590e+02,	 1.1322968185043814e+04,	 5.4583540287070002e+02,	 2.6650321531955323e+00 
1.1417010000000001e+00,	 2.6505550000000000e-01,	 5.3285364356995046e-02,	 1.4541445684852670e+03,	 -3.0958478604309281e+01,	 7.4000847129938290e+02,	 1.1344218128552688e+04,	 5.4594303816362560e+02,	 2.6641498832705373e+00 
1.1429940000000001e+00,	 2.6502819999999999e-01,	 5.3361857858860634e-02,	 1.4539575662215091e+03,	 -3.0953789618521235e+01,	 7.4028973001860425e+02,	 1.1364821099660543e+04,	 5.4604677795726423e+02,	 2.6633011683236378e+00 
1.1442969999999999e+00,	 2.6500059999999998e-01,	 5.3434448608057641e-02,	 1.4537746230847074e+03,	 -3.0955093647404617e+01,	 7.4056095928798254e+02,	 1.1384450759433308e+04,	 5.4614679981319534e+02,	 2.6624785648519951e+00 
1.1456100000000000e+00,	 2.6497290000000001e-01,	 5.3509174817491262e-02,	 1.4535993814117337e+03,	 -3.0919896440530174e+01,	 7.4083132049667802e+02,	 1.1404533520799148e+04,	 5.4624648332541892e+02,	 2.6616705850679740e+00 
1.1469330000000000e+00,	 2.6494489999999998e-01,	 5.3576088710347095e-02,	 1.4534373002781294e+03,	 -3.0905045283065718e+01,	 7.4107421708100787e+02,	 1.1422538916418758e+04,	 5.4633602498459356e+02,	 2.6609371707466205e+00 
1.1482660000000000e+00,	 2.6491680000000001e-01,	 5.3642878606984232e-02,	 1.4532920622019724e+03,	 -3.0858848884339665e+01,	 7.4130288504757959e+02,	 1.1440307632922490e+04,	 5.4642030798172880e+02,	 2.6602591973243244e+00 
1.1496100000000000e+00,	 2.6488839999999997e-01,	 5.3694846795862276e-02,	 1.4531825385453799e+03,	 -3.0871710223986319e+01,	 7.4146886533674683e+02,	 1.1453954789028823e+04,	 5.4648147725976071e+02,	 2.6597615555782990e+00 
1.1509640000000001e+00,	 2.6485969999999998e-01,	 5.3740412497121276e-02,	 1.4530894987527417e+03,	 -3.0866848243588827e+01,	 7.4161283171375135e+02,	 1.1465900499389509e+04,	 5.4653452813180218e+02,	 2.6593329921020743e+00 
1.1523289999999999e+00,	 2.6483089999999998e-01,	 5.3783483436612281e-02,	 1.4530246235110606e+03,	 -3.0811179068701520e+01,	 7.4172937997615952e+02,	 1.1476893360966917e+04,	 5.4657747179760031e+02,	 2.6590032248084676e+00 
1.1537040000000001e+00,	 2.6480179999999998e-01,	 5.3809453182676159e-02,	 1.4530000342541016e+03,	 -3.0789265263813199e+01,	 7.4178102621656319e+02,	 1.1483234578508132e+04,	 5.4659650042239252e+02,	 2.6588648314552232e+00 
1.1550910000000001e+00,	 2.6477249999999997e-01,	 5.3827361233319951e-02,	 1.4530026942250156e+03,	 -3.0739287881942008e+01,	 7.4178999308151026e+02,	 1.1487195114327640e+04,	 5.4659980412120296e+02,	 2.6588516908659585e+00 
1.1564880000000000e+00,	 2.6474300000000001e-01,	 5.3831561654743773e-02,	 1.4530260311664802e+03,	 -3.0666215391306228e+01,	 7.4176287893154972e+02,	 1.1487671601829401e+04,	 5.4658981428268419e+02,	 2.6589401475584817e+00 
1.0567150000000001e+00,	 2.6755519999999999e-01,	 4.9690414641658104e-02,	 1.4854462828043943e+03,	 -3.2323707130304570e+01,	 6.9563486204548894e+02,	 9.9445216349904022e+03,	 5.2932164796605662e+02,	 2.8069850026616487e+00 
1.0574060000000001e+00,	 2.6754089999999997e-01,	 4.9725761092168884e-02,	 1.4853715550843049e+03,	 -3.2305953779643190e+01,	 6.9576936838923837e+02,	 9.9535197225886677e+03,	 5.2937281969574190e+02,	 2.8065718071921939e+00 
1.0581020000000001e+00,	 2.6752650000000000e-01,	 4.9767084005232144e-02,	 1.4852689916017412e+03,	 -3.2290698784876504e+01,	 6.9592745637716962e+02,	 9.9640547092493871e+03,	 5.2943295652739027e+02,	 2.8060587125358105e+00 
1.0588010000000001e+00,	 2.6751199999999997e-01,	 4.9806900633456670e-02,	 1.4851706175436875e+03,	 -3.2291266507734242e+01,	 6.9607709966920220e+02,	 9.9741708022225812e+03,	 5.2948987469559677e+02,	 2.8055713487358624e+00 
1.0595049999999999e+00,	 2.6749750000000000e-01,	 4.9846622363303915e-02,	 1.4850744501596043e+03,	 -3.2299798257622804e+01,	 6.9622211466983708e+02,	 9.9842049431633186e+03,	 5.2954502661471042e+02,	 2.8050979389266533e+00 
1.0602130000000001e+00,	 2.6748279999999997e-01,	 4.9885588222895599e-02,	 1.4849705735829230e+03,	 -3.2308441867910318e+01,	 6.9637322395373917e+02,	 9.9941784309070663e+03,	 5.2960249019326898e+02,	 2.8045978374427261e+00 
1.0609249999999999e+00,	 2.6746809999999999e-01,	 4.9928047196791558e-02,	 1.4848596339385954e+03,	 -3.2288510107930882e+01,	 6.9653865194115735e+02,	 1.0005060949385705e+04,	 5.2966539171542956e+02,	 2.8040545504500733e+00 
1.0616420000000000e+00,	 2.6745320000000000e-01,	 4.9971616563578840e-02,	 1.4847524242199358e+03,	 -3.2271501615463762e+01,	 6.9670712950289317e+02,	 1.0016213915571245e+04,	 5.2972944511578953e+02,	 2.8035124561708833e+00 
1.0623620000000000e+00,	 2.6743829999999996e-01,	 5.0011736386810085e-02,	 1.4846513818542321e+03,	 -3.2279376427789252e+01,	 6.9685996918247383e+02,	 1.0026454519746239e+04,	 5.2978754645807226e+02,	 2.8030146430560263e+00 
1.0630869999999999e+00,	 2.6742329999999997e-01,	 5.0053791309081955e-02,	 1.4845424561159796e+03,	 -3.2280035146571869e+01,	 6.9702137950172391e+02,	 1.0037210108280227e+04,	 5.2984889897479877e+02,	 2.8024845717780411e+00 
1.0638170000000000e+00,	 2.6740819999999998e-01,	 5.0097616389316396e-02,	 1.4844316846539616e+03,	 -3.2271678538319165e+01,	 6.9719008137448122e+02,	 1.0048429743235460e+04,	 5.2991301543966438e+02,	 2.8019361566008802e+00 
1.0645510000000000e+00,	 2.6739299999999999e-01,	 5.0140549922444919e-02,	 1.4843206053795043e+03,	 -3.2270155207357504e+01,	 6.9735820049870699e+02,	 1.0059466358913603e+04,	 5.2997690270974977e+02,	 2.8013887852083674e+00 
1.0652889999999999e+00,	 2.6737770000000000e-01,	 5.0184451208905620e-02,	 1.4842085184679818e+03,	 -3.2270879438607352e+01,	 6.9752762974615825e+02,	 1.0070720245595290e+04,	 5.3004128005152154e+02,	 2.8008371477022420e+00 
1.0660320000000001e+00,	 2.6736230000000000e-01,	 5.0228583712278174e-02,	 1.4840955867766650e+03,	 -3.2273369818030218e+01,	 6.9769825295649878e+02,	 1.0082042075897773e+04,	 5.3010610315754184e+02,	 2.8002817686472956e+00 
1.0667800000000001e+00,	 2.6734680000000000e-01,	 5.0273147851764372e-02,	 1.4839806971429548e+03,	 -3.2277468869269313e+01,	 6.9787202893064091e+02,	 1.0093500498674162e+04,	 5.3017211591357659e+02,	 2.7997166169653953e+00 
1.0675319999999999e+00,	 2.6733119999999999e-01,	 5.0317919746980334e-02,	 1.4838664952195263e+03,	 -3.2286965178279083e+01,	 6.9804411687762251e+02,	 1.0104980663407625e+04,	 5.3023747933509981e+02,	 2.7991565520166555e+00 
1.0682900000000000e+00,	 2.6731549999999998e-01,	 5.0363523050057556e-02,	 1.4837515174467828e+03,	 -3.2296555138337382e+01,	 6.9821688818946723e+02,	 1.0116642169509571e+04,	 5.3030309421161382e+02,	 2.7985938394566534e+00 
1.0690519999999999e+00,	 2.6729979999999998e-01,	 5.0410003641163610e-02,	 1.4836330096017864e+03,	 -3.2302457547935873e+01,	 6.9839489554985369e+02,	 1.0128560412073404e+04,	 5.3037068913790984e+02,	 2.7980140147022130e+00 
1.0698179999999999e+00,	 2.6728389999999996e-01,	 5.0457183951094567e-02,	 1.4835084361400354e+03,	 -3.2302902340982186e+01,	 6.9858216350536190e+02,	 1.0140758469847942e+04,	 5.3044179130239934e+02,	 2.7974041850878941e+00 
1.0705899999999999e+00,	 2.6726790000000000e-01,	 5.0505583660011039e-02,	 1.4833896048402989e+03,	 -3.2311016520798752e+01,	 6.9876687704889741e+02,	 1.0153169632899278e+04,	 5.3051191426869184e+02,	 2.7968108171930623e+00 
1.0713670000000000e+00,	 2.6725179999999998e-01,	 5.0550667584744365e-02,	 1.4832736893439724e+03,	 -3.2342206636678696e+01,	 6.9893783333518911e+02,	 1.0164719116452166e+04,	 5.3057680629718141e+02,	 2.7962516160924054e+00 
1.0721480000000001e+00,	 2.6723559999999996e-01,	 5.0599565951146286e-02,	 1.4831430963492937e+03,	 -3.2351740343549615e+01,	 6.9912876722757949e+02,	 1.0177331046836072e+04,	 5.3064927209627751e+02,	 2.7956241080462578e+00 
1.0729350000000000e+00,	 2.6721929999999999e-01,	 5.0651443847830727e-02,	 1.4830090668892226e+03,	 -3.2337993206629754e+01,	 6.9933167380638179e+02,	 1.0190722267014156e+04,	 5.3072627108570384e+02,	 2.7949654680078306e+00 
1.0737270000000001e+00,	 2.6720289999999997e-01,	 5.0703671461139785e-02,	 1.4828796439714333e+03,	 -3.2336437896371415e+01,	 6.9953241090102460e+02,	 1.0204158278409886e+04,	 5.3080243580818421e+02,	 2.7943205880837798e+00 
1.0745240000000000e+00,	 2.6718639999999999e-01,	 5.0753389146485917e-02,	 1.4827476424565953e+03,	 -3.2343587455915007e+01,	 6.9972802194358621e+02,	 1.0217020204401182e+04,	 5.3087664506473698e+02,	 2.7936816850658595e+00 
1.0753260000000000e+00,	 2.6716980000000001e-01,	 5.0807447940640099e-02,	 1.4826106153950761e+03,	 -3.2341380229582711e+01,	 6.9993642147056028e+02,	 1.0230948795644761e+04,	 5.3095569449674838e+02,	 2.7930076522559264e+00 
1.0761330000000000e+00,	 2.6715309999999998e-01,	 5.0859643851225420e-02,	 1.4824794409939823e+03,	 -3.2352893315188496e+01,	 7.0013592450310330e+02,	 1.0244378460558533e+04,	 5.3103135831485099e+02,	 2.7923632050560543e+00 
1.0769460000000000e+00,	 2.6713629999999999e-01,	 5.0912067762654611e-02,	 1.4823440500741706e+03,	 -3.2370472178241350e+01,	 7.0033792164453530e+02,	 1.0257896586538356e+04,	 5.3110795707005673e+02,	 2.7917063394449748e+00 
1.0777639999999999e+00,	 2.6711930000000000e-01,	 5.0965820573107737e-02,	 1.4822028688280166e+03,	 -3.2381178837090040e+01,	 7.0054749028305889e+02,	 1.0271799650158620e+04,	 5.3118741531633827e+02,	 2.7910234582968787e+00 
1.0785880000000001e+00,	 2.6710230000000001e-01,	 5.1021930672713343e-02,	 1.4820590755989012e+03,	 -3.2379593496699925e+01,	 7.0076308912257355e+02,	 1.0286272947844360e+04,	 5.3126914751999982e+02,	 2.7903234175518130e+00 