TITLE = "Final State"
VARIABLES = "X", "Y", "rho", "u", "v", "T", "p", "c", "M"
ZONE I=77, J=27, DATAPACKING=POINT, STRANDID=18000, SOLUTIONTIME=0.000434
-7.7777780000000005e-02,	 1.0000000000000000e-04,	 1.1521929919264443e-02,	 1.7360198623857780e+03,	 1.0601667374006747e+00,	 2.9993687348776621e+02,	 9.9422579569762104e+02,	 3.4757130669655936e+02,	 4.9947166312464715e+00 
-7.2222220000000004e-02,	 1.0000000000000000e-04,	 1.1523328618070414e-02,	 1.7360136561632719e+03,	 8.1201784668658494e-01,	 2.9995460806662800e+02,	 9.9440528265651108e+02,	 3.4758158209145080e+02,	 4.9945507343268423e+00 
-6.6666669999999997e-02,	 1.0000000000000000e-04,	 1.1526935711717118e-02,	 1.7359959234549706e+03,	 5.0857316402262642e-01,	 2.9999148638814245e+02,	 9.9483885345085901e+02,	 3.4760294837659512e+02,	 4.9941923854724104e+00 
-6.1111110000000003e-02,	 1.0000000000000000e-04,	 1.1531393479246796e-02,	 1.7359709171966210e+03,	 2.8597731469081922e-01,	 3.0003233683121675e+02,	 9.9535910524951555e+02,	 3.4762661446668551e+02,	 4.9937803048114988e+00 
-5.5555559999999997e-02,	 1.0000000000000000e-04,	 1.1536384805225734e-02,	 1.7359423588390446e+03,	 1.2398402216667556e-01,	 3.0008227162727565e+02,	 9.9595567388013058e+02,	 3.4765554125185287e+02,	 4.9932825952256268e+00 
-5.0000000000000003e-02,	 1.0000000000000000e-04,	 1.1541538106978111e-02,	 1.7359128220614111e+03,	 9.9376471919283629e-03,	 3.0013559410860444e+02,	 9.9657762044454853e+02,	 3.4768642783600302e+02,	 4.9927540539737514e+00 
-4.4444440000000002e-02,	 1.0000000000000000e-04,	 1.1546583598781020e-02,	 1.7358837652928764e+03,	 -6.6923160603661380e-02,	 3.0018784798096959e+02,	 9.9718686460744652e+02,	 3.4771669277605696e+02,	 4.9922359284053419e+00 
-3.8888890000000002e-02,	 1.0000000000000000e-04,	 1.1551393824178821e-02,	 1.7358560458666329e+03,	 -1.1608188038897042e-01,	 3.0023762627271174e+02,	 9.9776771184025370e+02,	 3.4774552143384921e+02,	 4.9917423597307549e+00 
-3.3333330000000001e-02,	 1.0000000000000000e-04,	 1.1555809971091005e-02,	 1.7358306286031022e+03,	 -1.4384791436308636e-01,	 3.0028329545455404e+02,	 9.9830099126404139e+02,	 3.4777196823495711e+02,	 4.9912896757414513e+00 
-2.7777779999999998e-02,	 1.0000000000000000e-04,	 1.1559750837887246e-02,	 1.7358079615488050e+03,	 -1.5574399042721587e-01,	 3.0032402996373639e+02,	 9.9877691019773852e+02,	 3.4779555569428697e+02,	 4.9908859964317278e+00 
-2.2222220000000001e-02,	 1.0000000000000000e-04,	 1.1563182163350550e-02,	 1.7357882395918166e+03,	 -1.5626296017315106e-01,	 3.0035948716305336e+02,	 9.9919133474824650e+02,	 3.4781608600679368e+02,	 4.9905347005475678e+00 
-1.6666670000000001e-02,	 1.0000000000000000e-04,	 1.1566100266058218e-02,	 1.7357714835460972e+03,	 -1.4895452487806110e-01,	 3.0038963735779066e+02,	 9.9954381673563944e+02,	 3.4783354252144028e+02,	 4.9902360691115382e+00 
-1.1111110000000000e-02,	 1.0000000000000000e-04,	 1.1568522989444894e-02,	 1.7357575911993877e+03,	 -1.3657846754344122e-01,	 3.0041466734968958e+02,	 9.9983649330949868e+02,	 3.4784803384922532e+02,	 4.9899882352795037e+00 
-5.5555559999999997e-03,	 1.0000000000000000e-04,	 1.1545841288737148e-02,	 1.7358397753898100e+03,	 3.3584689020057086e+00,	 3.0028054426292516e+02,	 9.9743066295112885e+02,	 3.4777037509019385e+02,	 4.9913481672687228e+00 
0.0000000000000000e+00,	 1.0000000000000000e-04,	 1.1620076645710836e-02,	 1.7326144186611418e+03,	 3.1223990340936240e+01,	 3.0484328930346942e+02,	 1.0190971081422416e+03,	 3.5040258880551175e+02,	 4.9454421852668959e+00 
4.0447620000000004e-03,	 1.1838100000000000e-03,	 1.2051065638805772e-02,	 1.7196012161478418e+03,	 8.6032796494298381e+01,	 3.2439130123899486e+02,	 1.1246686495178108e+03,	 3.6146278171634413e+02,	 4.7632898801667807e+00 
8.0895240000000007e-03,	 2.2676189999999998e-03,	 1.2731895761608273e-02,	 1.7018553270598989e+03,	 1.4015596992118645e+02,	 3.4919873885653010e+02,	 1.2790740215528990e+03,	 3.7502940412489727e+02,	 4.5532878615535726e+00 
1.2134290000000001e-02,	 3.3514290000000000e-03,	 1.3515654986492903e-02,	 1.6867662928208449e+03,	 1.8237249729308348e+02,	 3.6787622502546583e+02,	 1.4304370680218933e+03,	 3.8492830491790693e+02,	 4.4075653737862650e+00 
1.6179050000000000e-02,	 4.4352380000000002e-03,	 1.4339258674285250e-02,	 1.6745277492036221e+03,	 2.1497811720269499e+02,	 3.8176327726461739e+02,	 1.5748920366102209e+03,	 3.9212638142480989e+02,	 4.3054255515870095e+00 
2.0223809999999998e-02,	 5.5190480000000004e-03,	 1.5164444181595165e-02,	 1.6646963046550591e+03,	 2.4044256479973768e+02,	 3.9221164168142889e+02,	 1.7111060019199620e+03,	 3.9745615489105461e+02,	 4.2318403427508926e+00 
2.4268570000000000e-02,	 6.6028570000000002e-03,	 1.5967781443285700e-02,	 1.6567244629710112e+03,	 2.6076511008657258e+02,	 4.0025154192254439e+02,	 1.8386858368549140e+03,	 4.0150919301982691e+02,	 4.1770422497853801e+00 
2.8313330000000001e-02,	 7.6866670000000003e-03,	 1.6734463979530982e-02,	 1.6501596439455561e+03,	 2.7737585339800523e+02,	 4.0658358221848499e+02,	 1.9574540742562824e+03,	 4.0467269859575237e+02,	 4.1349697320662617e+00 
3.2358100000000001e-02,	 8.7704759999999993e-03,	 1.7454904594628340e-02,	 1.6446701359926990e+03,	 2.9124754887988922e+02,	 4.1166963170932945e+02,	 2.0672654564771010e+03,	 4.0719590517331716e+02,	 4.1018559814324407e+00 
3.6402860000000002e-02,	 9.8542859999999986e-03,	 1.8123283265950526e-02,	 1.6400176763550705e+03,	 3.0303131525222000e+02,	 4.1581919567754653e+02,	 2.1680602649394418e+03,	 4.0924299428556753e+02,	 4.0752774577379105e+00 
4.0447619999999997e-02,	 1.0938099999999999e-02,	 1.8737837375612555e-02,	 1.6360200935807122e+03,	 3.1317516737526182e+02,	 4.1925970657501222e+02,	 2.2601253629497960e+03,	 4.1093255612583454e+02,	 4.0535245314850483e+00 
4.4492379999999998e-02,	 1.2021899999999999e-02,	 1.9300244199501285e-02,	 1.6325369997205935e+03,	 3.2199935387641221e+02,	 4.2216520452651719e+02,	 2.3440948285745271e+03,	 4.1235399283428046e+02,	 4.0353419724022519e+00 
4.8537139999999999e-02,	 1.3105710000000000e-02,	 1.9814045122412964e-02,	 1.6294670113206439e+03,	 3.2973398562727050e+02,	 4.2466151823650762e+02,	 2.4207279979921623e+03,	 4.1357134531545137e+02,	 4.0198488173994109e+00 
5.2581900000000001e-02,	 1.4189519999999999e-02,	 2.0283469687227267e-02,	 1.6267345625833477e+03,	 3.3655941867857655e+02,	 4.2683830361680532e+02,	 2.4907811482355605e+03,	 4.1462995941688126e+02,	 4.0064292431866413e+00 
5.6626669999999997e-02,	 1.5273330000000000e-02,	 2.0712783669729104e-02,	 1.6242738023937768e+03,	 3.4264669470437241e+02,	 4.2876395007461826e+02,	 2.5549750886734105e+03,	 4.1556419167485939e+02,	 3.9946216800981738e+00 
6.0671429999999998e-02,	 1.6357139999999999e-02,	 2.1106975412227717e-02,	 1.6220423437117890e+03,	 3.4810099948498043e+02,	 4.3048695857900793e+02,	 2.6140623431349209e+03,	 4.1639833682298104e+02,	 3.9841040080767138e+00 
6.4716190000000007e-02,	 1.7440950000000000e-02,	 2.1470843141917148e-02,	 1.6200089380828870e+03,	 3.5300258773372911e+02,	 4.3204374020725652e+02,	 2.6687430030604473e+03,	 4.1715057363536687e+02,	 3.9746387980784896e+00 
6.8760950000000001e-02,	 1.8524759999999998e-02,	 2.1808546477334757e-02,	 1.6181484305276870e+03,	 3.5742105459880372e+02,	 4.3346197131498320e+02,	 2.7196164561337696e+03,	 4.1783468400345936e+02,	 3.9660480246716885e+00 
7.2805709999999996e-02,	 1.9608569999999999e-02,	 2.2123447442544221e-02,	 1.6164401045246000e+03,	 3.6141840244337823e+02,	 4.3476239485871326e+02,	 2.7671628135474480e+03,	 4.1846098477865058e+02,	 3.9581993009631189e+00 
7.6850479999999999e-02,	 2.0692380000000000e-02,	 2.2418122301769192e-02,	 1.6148667697317510e+03,	 3.6504997817769004e+02,	 4.3596028556841964e+02,	 2.8117460906097222e+03,	 4.1903707613575807e+02,	 3.9509953349164086e+00 
8.0895239999999993e-02,	 2.1776190000000001e-02,	 2.2694454769174109e-02,	 1.6134142688296661e+03,	 3.6836467567506247e+02,	 4.3706654822115661e+02,	 2.8536273513643400e+03,	 4.1956839903103355e+02,	 3.9443663149484789e+00 
8.4940000000000002e-02,	 2.2859999999999998e-02,	 2.2953754779015696e-02,	 1.6120708527922209e+03,	 3.7140468238124151e+02,	 4.3808887786926346e+02,	 2.8929831400219700e+03,	 4.2005881253873412e+02,	 3.9382619229605846e+00 
8.8984759999999996e-02,	 2.3943809999999999e-02,	 2.3196949859959771e-02,	 1.6108263083892089e+03,	 3.7420568052498277e+02,	 4.3903334469191623e+02,	 2.9299373057767125e+03,	 4.2051136684430185e+02,	 3.9326414656363000e+00 
9.3029520000000004e-02,	 2.5027620000000000e-02,	 2.3424741848539665e-02,	 1.6096716843474569e+03,	 3.7679694750568513e+02,	 4.3990528702694337e+02,	 2.9645851752004323e+03,	 4.2092873809408076e+02,	 3.9274687473030370e+00 
9.7074289999999994e-02,	 2.6111429999999998e-02,	 2.3637796835528031e-02,	 1.6085989433752982e+03,	 3.7920201882176957e+02,	 4.4071000968287751e+02,	 2.9970214253245726e+03,	 4.2131356652503200e+02,	 3.9227081234783383e+00 
1.0111900000000000e-01,	 2.7195239999999999e-02,	 2.3836805288841842e-02,	 1.6076014878185729e+03,	 3.8143798722327654e+02,	 4.4145258022686710e+02,	 3.0273459024238805e+03,	 4.2166836147263689e+02,	 3.9183259618660600e+00 
1.0516380000000000e-01,	 2.8279050000000000e-02,	 2.4022479442961063e-02,	 1.6066735992258600e+03,	 3.8351812377484498e+02,	 4.4213796661734557e+02,	 3.0556638582843138e+03,	 4.2199556951344232e+02,	 3.9142899238926634e+00 
1.0920860000000000e-01,	 2.9362860000000001e-02,	 2.4195624888040758e-02,	 1.6058089812839421e+03,	 3.8545772678994138e+02,	 4.4277145314217148e+02,	 3.0820976415588198e+03,	 4.2229777475229196e+02,	 3.9105668332914925e+00 
1.1325330000000000e-01,	 3.0446669999999999e-02,	 2.4356889669617174e-02,	 1.6050027743111659e+03,	 3.8726786313114246e+02,	 4.4335709687013207e+02,	 3.1067437335617419e+03,	 4.2257696429305213e+02,	 3.9071305942810386e+00 
1.1729810000000000e-01,	 3.1530480000000000e-02,	 2.4506983185455786e-02,	 1.6042506391418090e+03,	 3.8895597842290351e+02,	 4.4389915015629146e+02,	 3.1297100454674801e+03,	 4.2283520901716514e+02,	 3.9039539686038482e+00 
1.2134290000000000e-01,	 3.2614290000000004e-02,	 2.4646955795944347e-02,	 1.6035473679808881e+03,	 3.9053063384870109e+02,	 4.4440342058906714e+02,	 3.1511611732534980e+03,	 4.2307531172135452e+02,	 3.9010019715233621e+00 
1.2538759999999999e-01,	 3.3698100000000002e-02,	 2.4777691570200891e-02,	 1.6028892365751740e+03,	 3.9199715191149983e+02,	 4.4487451448765421e+02,	 3.1712341317738919e+03,	 4.2329949474641978e+02,	 3.8982469311548438e+00 
1.2943240000000000e-01,	 3.4781900000000004e-02,	 2.4900041636559789e-02,	 1.6022724314943039e+03,	 3.9336165401726498e+02,	 4.4531663181290367e+02,	 3.1900605496598073e+03,	 4.2350978052404298e+02,	 3.8956635384611293e+00 
1.3347709999999999e-01,	 3.5865710000000002e-02,	 2.5014918686516258e-02,	 1.6016931152553491e+03,	 3.9463253856617939e+02,	 4.4573376109574895e+02,	 3.2077799088234906e+03,	 4.2370808547011001e+02,	 3.8932289360146752e+00 
1.3752190000000000e-01,	 3.6949520000000000e-02,	 2.5122843520289508e-02,	 1.6011486896209390e+03,	 3.9581590881373012e+02,	 4.4612792985720500e+02,	 3.2244685390089999e+03,	 4.2389538964052912e+02,	 3.8909306308697893e+00 
1.4156669999999999e-01,	 3.8033330000000004e-02,	 2.5224512943540611e-02,	 1.6006355725325175e+03,	 3.9692166084609562e+02,	 4.4650174247342045e+02,	 3.2402303442000270e+03,	 4.2407294438979136e+02,	 3.8887536956554682e+00 
1.4561140000000000e-01,	 3.9117140000000002e-02,	 2.5320323310122610e-02,	 1.6001515702518229e+03,	 3.9795719994882364e+02,	 4.4685619243593931e+02,	 3.2551197112449177e+03,	 4.2424123356519573e+02,	 3.8866921654613340e+00 
1.4965619999999999e-01,	 4.0200950000000006e-02,	 2.5410530120308882e-02,	 1.5996950509930177e+03,	 3.9892836750971003e+02,	 4.4719155321217966e+02,	 3.2691681169087001e+03,	 4.2440039795417420e+02,	 3.8847437183287932e+00 
1.5370100000000000e-01,	 4.1284760000000004e-02,	 2.5495593031617018e-02,	 1.5992633742239977e+03,	 3.9984329379315579e+02,	 4.4750923724394835e+02,	 3.2824419918515173e+03,	 4.2455111781028796e+02,	 3.8829001797351856e+00 
1.5774569999999999e-01,	 4.2368570000000001e-02,	 2.5575731250238532e-02,	 1.5988551952147382e+03,	 4.0070715746033807e+02,	 4.4780950799622951e+02,	 3.2949688072163199e+03,	 4.2469352705666597e+02,	 3.8811597400357902e+00 
1.6179050000000000e-01,	 4.3452380000000006e-02,	 2.5651111936048351e-02,	 1.5984693087216356e+03,	 4.0152409719110489e+02,	 4.4809244186842284e+02,	 3.3067681952491330e+03,	 4.2482767026725872e+02,	 3.8795211868609756e+00 
1.6583519999999999e-01,	 4.4536190000000003e-02,	 2.5722047825343201e-02,	 1.5981043512374558e+03,	 4.0229861651682131e+02,	 4.4835874246965477e+02,	 3.3178834127569489e+03,	 4.2495388871005713e+02,	 3.8779804963576678e+00 
1.6988000000000000e-01,	 4.5620000000000001e-02,	 2.5788667872118257e-02,	 1.5977594359651821e+03,	 4.0303251325720794e+02,	 4.4860876955391086e+02,	 3.3283317319264388e+03,	 4.2507235988418364e+02,	 3.8765347219686834e+00 
1.7392479999999999e-01,	 4.6703810000000005e-02,	 2.5851420700311670e-02,	 1.5974325175476788e+03,	 4.0372970137312825e+02,	 4.4884442930731313e+02,	 3.3381833929520403e+03,	 4.2518399311819826e+02,	 3.8751728586184950e+00 
1.7796950000000000e-01,	 4.7787620000000003e-02,	 2.5910579231661724e-02,	 1.5971226082397125e+03,	 4.0439134352537030e+02,	 4.4906689023732082e+02,	 3.3474808011793152e+03,	 4.2528934711530252e+02,	 3.8738879757153128e+00 
1.8201429999999999e-01,	 4.8871430000000000e-02,	 2.5966400648625817e-02,	 1.5968286793348670e+03,	 4.0501820063849698e+02,	 4.4927729358553586e+02,	 3.3562643598818950e+03,	 4.2538896682186044e+02,	 3.8726729753289342e+00 
1.8605900000000000e-01,	 4.9955240000000005e-02,	 2.6019269542610815e-02,	 1.5965494080662093e+03,	 4.0561251953608587e+02,	 4.4947726811010199e+02,	 3.3645948063007368e+03,	 4.2548362717286625e+02,	 3.8715188857756564e+00 
1.9010379999999999e-01,	 5.1039050000000002e-02,	 2.6069332212394800e-02,	 1.5962839992308477e+03,	 4.0617505679565858e+02,	 4.4966756640792596e+02,	 3.3724957255529225e+03,	 4.2557368761360436e+02,	 3.8704208877645696e+00 
1.9414860000000000e-01,	 5.2122860000000000e-02,	 2.6116991006157390e-02,	 1.5960305680561587e+03,	 4.0670979117876641e+02,	 4.4984991808486302e+02,	 3.3800313056056530e+03,	 4.2565996936414609e+02,	 3.8693693730655885e+00 
1.9819329999999999e-01,	 5.3206670000000005e-02,	 2.6162391792566971e-02,	 1.5957884959474627e+03,	 4.0721834418537298e+02,	 4.5002477463952755e+02,	 3.3872231250484015e+03,	 4.2574268829043586e+02,	 3.8683617837032052e+00 
2.0223810000000000e-01,	 5.4290480000000002e-02,	 2.6205563316337801e-02,	 1.5955574510358883e+03,	 4.0770171672853587e+02,	 4.5019205828321049e+02,	 3.3940736858967689e+03,	 4.2582180967990087e+02,	 3.8673981443579044e+00 
2.0628289999999999e-01,	 5.5374290000000000e-02,	 2.6246787328994020e-02,	 1.5953358839279094e+03,	 4.0816413166905210e+02,	 4.5035281444562452e+02,	 3.4006267828316195e+03,	 4.2589782986831318e+02,	 3.8664727724653698e+00 
2.1032760000000000e-01,	 5.6458100000000004e-02,	 2.6286088044358467e-02,	 1.5951236589059918e+03,	 4.0860683614686849e+02,	 4.5050680320953165e+02,	 3.4068832373678406e+03,	 4.2597063709078486e+02,	 3.8655870107890564e+00 
2.1437239999999999e-01,	 5.7541900000000000e-02,	 2.6323480372627647e-02,	 1.5949203598830850e+03,	 4.0903103440339680e+02,	 4.5065389000083246e+02,	 3.4128434783102030e+03,	 4.2604016938255955e+02,	 3.8647410932092443e+00 
2.1841710000000000e-01,	 5.8625710000000004e-02,	 2.6359168921291420e-02,	 1.5947252213643305e+03,	 4.0943934392412973e+02,	 4.5079464635428906e+02,	 3.4185379104484450e+03,	 4.2610669846415510e+02,	 3.8639322646039735e+00 
2.2246189999999999e-01,	 5.9709520000000002e-02,	 2.6393057932490839e-02,	 1.5945384253205214e+03,	 4.0983098588560154e+02,	 4.5092863577880814e+02,	 3.4239503948824868e+03,	 4.2617001947951610e+02,	 3.8631622730995172e+00 
2.2650670000000001e-01,	 6.0793330000000000e-02,	 2.6425433252874345e-02,	 1.5943587807933332e+03,	 4.1020842512192007e+02,	 4.5105699899032049e+02,	 3.4291262909077514e+03,	 4.2623067282403497e+02,	 3.8624248887939485e+00 
2.3055139999999999e-01,	 6.1877140000000004e-02,	 2.6456358175760183e-02,	 1.5941861754068841e+03,	 4.1057158260597350e+02,	 4.5117998356238240e+02,	 3.4340753735411008e+03,	 4.2628877659398438e+02,	 3.8617186853669079e+00 
2.3459620000000000e-01,	 6.2960950000000002e-02,	 2.6485825872386071e-02,	 1.5940206660222887e+03,	 4.1091946843490393e+02,	 4.5129761499243796e+02,	 3.4387966529403134e+03,	 4.2634434387557678e+02,	 3.8610430421777839e+00 
2.3864099999999999e-01,	 6.4044760000000006e-02,	 2.6514139319883057e-02,	 1.5938609155965157e+03,	 4.1125446261330006e+02,	 4.5141132282675312e+02,	 3.4433400964424104e+03,	 4.2639805082764781e+02,	 3.8603901451696427e+00 
2.4268570000000000e-01,	 6.5128569999999997e-02,	 2.6541366398528769e-02,	 1.5937067647454455e+03,	 4.1157654520618735e+02,	 4.5152143418917774e+02,	 3.4477168103597351e+03,	 4.2645005263300527e+02,	 3.8597581774483163e+00 
2.4673049999999999e-01,	 6.6212380000000001e-02,	 2.6566810712093471e-02,	 1.5935518691164029e+03,	 4.1191569624178987e+02,	 4.5162512092784357e+02,	 3.4518145080618360e+03,	 4.2649901451345028e+02,	 3.8591623697540069e+00 
2.5077519999999998e-01,	 6.7296190000000006e-02,	 2.6582154012173120e-02,	 1.5934259995693560e+03,	 4.1227189306488719e+02,	 4.5168996290421944e+02,	 3.4543039362925024e+03,	 4.2652963066517844e+02,	 3.8588087465842000e+00 
-7.9385259999999999e-02,	 6.1388000000000007e-03,	 1.1557363065988677e-02,	 1.7360104967303323e+03,	 5.0866289312887802e-01,	 2.9999590338962560e+02,	 9.9747959028956166e+02,	 3.4760550737769455e+02,	 4.9941975440708273e+00 
-7.3850860000000004e-02,	 6.1388000000000007e-03,	 1.1557567130286448e-02,	 1.7360069342701531e+03,	 3.7488999669283585e-01,	 2.9999676754019669e+02,	 9.9750007576794565e+02,	 3.4760600802333340e+02,	 4.9941800045996132e+00 
-6.8316450000000001e-02,	 6.1388000000000007e-03,	 1.1558478843889376e-02,	 1.7359984310332227e+03,	 1.9934549787160327e-01,	 3.0000687786645256e+02,	 9.9761238297442321e+02,	 3.4761186538734557e+02,	 4.9940713057773749e+00 
-6.2782050000000006e-02,	 6.1388000000000007e-03,	 1.1560009322551204e-02,	 1.7359877169991983e+03,	 6.0273690715557666e-02,	 3.0002564529674345e+02,	 9.9780689416639939e+02,	 3.4762273793712683e+02,	 4.9938842560970063e+00 
-5.7247640000000002e-02,	 6.1388000000000007e-03,	 1.1561903068903635e-02,	 1.7359753239236368e+03,	 -4.4636917126019457e-02,	 3.0004628134168337e+02,	 9.9803899498683336e+02,	 3.4763469264034620e+02,	 4.9936768718693543e+00 
-5.1713240000000001e-02,	 6.1388000000000007e-03,	 1.1564002675846190e-02,	 1.7359619541582333e+03,	 -1.1712385998213967e-01,	 3.0006811294034196e+02,	 9.9829286715051035e+02,	 3.4764733949437078e+02,	 4.9934567617695391e+00 
-4.6178839999999999e-02,	 6.1388000000000007e-03,	 1.1566193789589549e-02,	 1.7359482654254468e+03,	 -1.6779440346514229e-01,	 3.0009080980458879e+02,	 9.9855754501475303e+02,	 3.4766048710141087e+02,	 4.9932285604503246e+00 
-4.0644430000000002e-02,	 6.1388000000000007e-03,	 1.1568375657090920e-02,	 1.7359348103560062e+03,	 -2.0181247752556486e-01,	 3.0011340046405940e+02,	 9.9882109970198837e+02,	 3.4767357269353096e+02,	 4.9930019375304697e+00 
-3.5110030000000000e-02,	 6.1388000000000007e-03,	 1.1570468211520232e-02,	 1.7359219977267321e+03,	 -2.1706325069048377e-01,	 3.0013503782261751e+02,	 9.9907379752242468e+02,	 3.4768610562634001e+02,	 4.9927851104966310e+00 
-2.9575620000000000e-02,	 6.1388000000000007e-03,	 1.1572418970489955e-02,	 1.7359101173117010e+03,	 -2.1973465675321710e-01,	 3.0015521270485397e+02,	 9.9930940788168402e+02,	 3.4769779104703122e+02,	 4.9925831452409195e+00 
-2.4041219999999999e-02,	 6.1388000000000007e-03,	 1.1574193297639802e-02,	 1.7358993601846596e+03,	 -2.1313001975983409e-01,	 3.0017356107387542e+02,	 9.9952372254230590e+02,	 3.4770841819860823e+02,	 4.9923996153494121e+00 
-1.8506809999999999e-02,	 6.1388000000000007e-03,	 1.1575769822162754e-02,	 1.7358898359917589e+03,	 -1.9992240280210777e-01,	 3.0018986423043071e+02,	 9.9971416194413439e+02,	 3.4771786051556057e+02,	 4.9922366510897325e+00 
-1.2972410000000000e-02,	 6.1388000000000007e-03,	 1.1577139143510903e-02,	 1.7358815876041183e+03,	 -1.8232126432027917e-01,	 3.0020402445686409e+02,	 9.9987958316130198e+02,	 3.4772606150127547e+02,	 4.9920951845952946e+00 
-7.4380039999999998e-03,	 6.1388000000000007e-03,	 1.1573476493380903e-02,	 1.7359173680163562e+03,	 6.1990674419426106e-01,	 3.0017275833650172e+02,	 9.9945914798386980e+02,	 3.4770795326970500e+02,	 4.9924583616185298e+00 
-1.9036000000000001e-03,	 6.1388000000000007e-03,	 1.1608773428012566e-02,	 1.7350037974860027e+03,	 7.5005569142360269e+00,	 3.0124652734290908e+02,	 1.0060934502499534e+03,	 3.4832930333848560e+02,	 4.9809763161697553e+00 
2.1502270000000002e-03,	 7.2009330000000005e-03,	 1.1806184938473517e-02,	 1.7303923679895704e+03,	 2.5008018131712106e+01,	 3.0792466914278953e+02,	 1.0458851648797561e+03,	 3.5216908446341040e+02,	 4.9140402881511740e+00 
6.2040530000000002e-03,	 8.2630669999999989e-03,	 1.2145173035077474e-02,	 1.7230163798914095e+03,	 4.7926285363896909e+01,	 3.1856185748180576e+02,	 1.1130826649462294e+03,	 3.5820024129624016e+02,	 4.8120648599371574e+00 
1.0257880000000000e-02,	 9.3251999999999988e-03,	 1.2554232398414132e-02,	 1.7156737465467627e+03,	 6.9623382729627536e+01,	 3.2865869999714329e+02,	 1.1870396738223903e+03,	 3.6383255236459615e+02,	 4.7194398630088337e+00 
1.4311710000000000e-02,	 1.0387330000000000e-02,	 1.2995577246368956e-02,	 1.7089946367502239e+03,	 8.8854476378071695e+01,	 3.3738816131389120e+02,	 1.2614073348004617e+03,	 3.6863274168473600e+02,	 4.6422977571158057e+00 
1.8365530000000001e-02,	 1.1449470000000000e-02,	 1.3453326624293879e-02,	 1.7028695289096925e+03,	 1.0613878668849027e+02,	 3.4517546664723415e+02,	 1.3359787317160321e+03,	 3.7286270584308278e+02,	 4.5758776023019925e+00 
2.2419359999999999e-02,	 1.2511599999999999e-02,	 1.3920426360176036e-02,	 1.6970919429327525e+03,	 1.2219336410136640e+02,	 3.5247323005380622e+02,	 1.4115901300846899e+03,	 3.7678365594038030e+02,	 4.5158150819492633e+00 
2.6473190000000001e-02,	 1.3573729999999999e-02,	 1.4393551222455250e-02,	 1.6915027107264295e+03,	 1.3756290705249799e+02,	 3.5955815216744242e+02,	 1.4889051598432673e+03,	 3.8055160373072596e+02,	 4.4595455284605316e+00 
3.0527010000000000e-02,	 1.4635869999999999e-02,	 1.4871038907270526e-02,	 1.6860087693421287e+03,	 1.5258015336432331e+02,	 3.6654956267435739e+02,	 1.5682090400084867e+03,	 3.8423359961876832e+02,	 4.4059103107039101e+00 
3.4580840000000002e-02,	 1.5698000000000000e-02,	 1.5352177868180369e-02,	 1.6805731980600183e+03,	 1.6739683318280265e+02,	 3.7345716146418152e+02,	 1.6494559537183661e+03,	 3.8783712836443391e+02,	 4.3546361210649804e+00 
3.8634670000000003e-02,	 1.6760129999999998e-02,	 1.5837027941513176e-02,	 1.6752026583055281e+03,	 1.8201734918706404e+02,	 3.8021951394910440e+02,	 1.7323595029547196e+03,	 3.9133274362123825e+02,	 4.3059573261166229e+00 
4.2688490000000003e-02,	 1.7822269999999998e-02,	 1.6325671340089234e-02,	 1.6699381690944251e+03,	 1.9635197561654101e+02,	 3.8673770208986537e+02,	 1.8164251194264527e+03,	 3.9467284180073176e+02,	 4.2603441057039992e+00 
4.6742319999999997e-02,	 1.8884399999999999e-02,	 1.6817006513532080e-02,	 1.6648476346407722e+03,	 2.1024899542684958e+02,	 3.9289240636603233e+02,	 1.9008693361350295e+03,	 3.9780093915749467e+02,	 4.2183686273450247e+00 
5.0796149999999998e-02,	 1.9946530000000001e-02,	 1.7308986259883551e-02,	 1.6599993649426294e+03,	 2.2354716177239931e+02,	 3.9858055627086532e+02,	 1.9848042425955605e+03,	 4.0067019836600730e+02,	 4.1804555331512550e+00 
5.4849969999999998e-02,	 2.1008670000000000e-02,	 1.7799090510037675e-02,	 1.6554431028311360e+03,	 2.3611845751950966e+02,	 4.0374160561404079e+02,	 2.0674320985785148e+03,	 4.0325590858661445e+02,	 4.1467397232884338e+00 
5.8903799999999999e-02,	 2.2070799999999998e-02,	 1.8284530670136731e-02,	 1.6512051442633342e+03,	 2.4788177194861285e+02,	 4.0836716032870697e+02,	 2.1481498076384105e+03,	 4.0555932508534357e+02,	 4.1170492110120751e+00 
6.2957630000000001e-02,	 2.3132929999999999e-02,	 1.8762299239300007e-02,	 1.6472911079938970e+03,	 2.5880563247088389e+02,	 4.1248064649810664e+02,	 2.2264839667693245e+03,	 4.0759680845393916e+02,	 4.0910468300035907e+00 
6.7011450000000000e-02,	 2.4195069999999999e-02,	 1.9229357755415871e-02,	 1.6436913670537324e+03,	 2.6889911799977438e+02,	 4.1612466951917139e+02,	 2.3020681705204411e+03,	 4.0939328806676713e+02,	 4.0683162517027647e+00 
7.1065279999999995e-02,	 2.5257200000000000e-02,	 1.9682742254469983e-02,	 1.6403872229520719e+03,	 2.7819844255802900e+02,	 4.1934992464916854e+02,	 2.3746090149045017e+03,	 4.1097676684897891e+02,	 4.0484290214002518e+00 
7.5119110000000003e-02,	 2.6319329999999998e-02,	 2.0119622758414415e-02,	 1.6373561764481437e+03,	 2.8675394048186695e+02,	 4.2220715038551464e+02,	 2.4438545526503985e+03,	 4.1237447783948119e+02,	 4.0309877594298946e+00 
7.9172930000000002e-02,	 2.7381469999999998e-02,	 2.0537417664756849e-02,	 1.6345749282055904e+03,	 2.9462159113457358e+02,	 4.2474295765266066e+02,	 2.5095852878738970e+03,	 4.1361099971409089e+02,	 4.0156440030000580e+00 
8.3226759999999997e-02,	 2.8443599999999999e-02,	 2.0934116058510394e-02,	 1.6320187171695202e+03,	 3.0185963953963471e+02,	 4.2700040664332352e+02,	 2.5716558775560557e+03,	 4.1470868523705246e+02,	 4.0020866042687935e+00 
8.7280590000000005e-02,	 2.9505730000000001e-02,	 2.1308677685951617e-02,	 1.6296615960650261e+03,	 3.0852862227081567e+02,	 4.2902068531366166e+02,	 2.6300540278710146e+03,	 4.1568858880047571e+02,	 3.9900299241999955e+00 
9.1334410000000005e-02,	 3.0567870000000000e-02,	 2.1660791067018396e-02,	 1.6274811628242130e+03,	 3.1468327565402296e+02,	 4.3083845781036393e+02,	 2.6848418788819263e+03,	 4.1656829996304077e+02,	 3.9792393168792408e+00 
9.5388239999999999e-02,	 3.1630000000000005e-02,	 2.1990777868991875e-02,	 1.6254596413968502e+03,	 3.2036977979547817e+02,	 4.3248121739459737e+02,	 2.7361366287192691e+03,	 4.1736171855984361e+02,	 3.9695314489268010e+00 
9.9442069999999994e-02,	 3.2692130000000000e-02,	 2.2299482036468882e-02,	 1.6235834214982444e+03,	 3.2562587120703483e+02,	 4.3397050049769831e+02,	 2.7841005877834109e+03,	 4.1807970993568284e+02,	 3.9607644583056008e+00 
1.0349590000000000e-01,	 3.3754270000000003e-02,	 2.2587951736546527e-02,	 1.6218398717515556e+03,	 3.3048854891656219e+02,	 4.3532454378547334e+02,	 2.8289152844645278e+03,	 4.1873143296453657e+02,	 3.9528196958738033e+00 
1.0754970000000000e-01,	 3.4816400000000004e-02,	 2.2857284773381961e-02,	 1.6202129411709336e+03,	 3.3500514403678841e+02,	 4.3656218382597791e+02,	 2.8707851419443100e+03,	 4.1932624317662402e+02,	 3.9455778499177754e+00 
1.1160349999999999e-01,	 3.5878530000000006e-02,	 2.3108911564516003e-02,	 1.6186923147202870e+03,	 3.3920618708476132e+02,	 4.3769733891112168e+02,	 2.9099353090967120e+03,	 4.1987105822344461e+02,	 3.9389515626907570e+00 
1.1565739999999999e-01,	 3.6940670000000002e-02,	 2.3344285468027675e-02,	 1.6172711040991344e+03,	 3.4311217206672154e+02,	 4.3874068948470898e+02,	 2.9465813538133275e+03,	 4.2037118915851875e+02,	 3.9328741995564505e+00 
1.1971120000000000e-01,	 3.8002800000000003e-02,	 2.3564823919734391e-02,	 1.6159426890574020e+03,	 3.4674294300290649e+02,	 4.3970191163280111e+02,	 2.9809348899283536e+03,	 4.2083142573258561e+02,	 3.9272862194809912e+00 
1.2376500000000000e-01,	 3.9064930000000005e-02,	 2.3771743947314003e-02,	 1.6147010436426349e+03,	 3.5011845423332909e+02,	 4.4058928736883371e+02,	 3.0131788787394598e+03,	 4.2125585801925479e+02,	 3.9221376695322299e+00 
1.2781890000000001e-01,	 4.0127070000000001e-02,	 2.3965991670693361e-02,	 1.6135403204346298e+03,	 3.5325830819532359e+02,	 4.4140966927963586e+02,	 3.0434570962321059e+03,	 4.2164786705336411e+02,	 3.9173868040450883e+00 
1.3187270000000001e-01,	 4.1189200000000002e-02,	 2.4148422600541196e-02,	 1.6124545082216298e+03,	 3.5618323994071272e+02,	 4.4216928632656180e+02,	 3.0719014401243785e+03,	 4.2201051569028618e+02,	 3.9129961916671894e+00 
1.3592650000000001e-01,	 4.2251330000000004e-02,	 2.4319631009645591e-02,	 1.6114380236944123e+03,	 3.5891260047855837e+02,	 4.4287316293228884e+02,	 3.0986054659314941e+03,	 4.2234627534032853e+02,	 3.9089351794363578e+00 
1.3998030000000000e-01,	 4.3313470000000000e-02,	 2.4480201021986222e-02,	 1.6104849283581889e+03,	 3.6146563646305424e+02,	 4.4352618299984704e+02,	 3.1236630488375890e+03,	 4.2265753714581211e+02,	 3.9051738312659565e+00 
1.4403420000000000e-01,	 4.4375600000000001e-02,	 2.4630656724456627e-02,	 1.6095901199059947e+03,	 3.6385921989842501e+02,	 4.4413254323024705e+02,	 3.1471578472089564e+03,	 4.2294635345245882e+02,	 3.9016867784165834e+00 
1.4808800000000000e-01,	 4.5437730000000003e-02,	 2.4771455500860944e-02,	 1.6087493509758767e+03,	 3.6610656594184104e+02,	 4.4469568993882194e+02,	 3.1691615846896666e+03,	 4.2321441013595455e+02,	 3.8984526930063144e+00 
1.5214179999999999e-01,	 4.6499870000000006e-02,	 2.4903154759810066e-02,	 1.6079582337901161e+03,	 3.6822069726362929e+02,	 4.4521923798694934e+02,	 3.1897616108850439e+03,	 4.2346346573315242e+02,	 3.8954496333014337e+00 
1.5619559999999999e-01,	 4.7562000000000000e-02,	 2.5026224355614662e-02,	 1.6072130380680471e+03,	 3.7021368943460129e+02,	 4.4570610675348485e+02,	 3.2090305796475527e+03,	 4.2369494135675455e+02,	 3.8926602001139012e+00 
1.6024949999999999e-01,	 4.8624130000000002e-02,	 2.5141082551779347e-02,	 1.6065104991642922e+03,	 3.7209482310953013e+02,	 4.4615883787690649e+02,	 3.2270330389056658e+03,	 4.2391007325397362e+02,	 3.8900686308814421e+00 
1.6430330000000001e-01,	 4.9686270000000005e-02,	 2.5248289964664671e-02,	 1.6058476154826985e+03,	 3.7387166402193373e+02,	 4.4658036553476285e+02,	 3.2438557356919709e+03,	 4.2411027956937789e+02,	 3.8876574672290456e+00 