TITLE = "Final State"
VARIABLES = "X", "Y", "rho", "u", "v", "T", "p", "c", "M"
ZONE I=77, J=25, DATAPACKING=POINT, STRANDID=47000, SOLUTIONTIME=0.001134
-5.0000000000000000e-01,	 1.5710879999999999e-01,	 1.1586407740522196e-02,	 1.7360000000000000e+03,	 -2.3043587003232484e-12,	 3.0000000000000000e+02,	 9.9999999999999977e+02,	 3.4760788074254771e+02,	 4.9941330337264445e+00 
-4.9499440000000000e-01,	 1.5710879999999999e-01,	 1.1586407740522199e-02,	 1.7360000000000000e+03,	 -1.0538904967590722e-12,	 3.0000000000000000e+02,	 1.0000000000000000e+03,	 3.4760788074254771e+02,	 4.9941330337264445e+00 
-4.8998870000000000e-01,	 1.5710879999999999e-01,	 1.1586407740522203e-02,	 1.7360000000000000e+03,	 9.8476692230890363e-14,	 3.0000000000000000e+02,	 1.0000000000000005e+03,	 3.4760788074254771e+02,	 4.9941330337264445e+00 
-4.8498310000000000e-01,	 1.5710879999999999e-01,	 1.1586407740522199e-02,	 1.7360000000000000e+03,	 1.9583445941646489e-13,	 3.0000000000000000e+02,	 1.0000000000000000e+03,	 3.4760788074254771e+02,	 4.9941330337264445e+00 
-4.7997750000000000e-01,	 1.5710879999999999e-01,	 1.1586407740522199e-02,	 1.7360000000000000e+03,	 1.9363023653606790e-13,	 3.0000000000000000e+02,	 1.0000000000000000e+03,	 3.4760788074254771e+02,	 4.9941330337264445e+00 
-4.7497190000000000e-01,	 1.5710879999999999e-01,	 1.1586407740522199e-02,	 1.7360000000000000e+03,	 9.3876962762979696e-14,	 3.0000000000000000e+02,	 1.0000000000000000e+03,	 3.4760788074254771e+02,	 4.9941330337264445e+00 
-4.6996620000000000e-01,	 1.5710879999999999e-01,	 1.1586407740522199e-02,	 1.7360000000000000e+03,	 1.1232305904463787e-13,	 3.0000000000000000e+02,	 1.0000000000000000e+03,	 3.4760788074254771e+02,	 4.9941330337264445e+00 
-4.6496060000000000e-01,	 1.5710879999999999e-01,	 1.1586407740522199e-02,	 1.7360000000000000e+03,	 3.1507362003164637e-14,	 3.0000000000000000e+02,	 1.0000000000000000e+03,	 3.4760788074254771e+02,	 4.9941330337264445e+00 
-4.5995500000000000e-01,	 1.5710879999999999e-01,	 1.1586407740522199e-02,	 1.7360000000000000e+03,	 7.5465851907869346e-14,	 3.0000000000000000e+02,	 1.0000000000000000e+03,	 3.4760788074254771e+02,	 4.9941330337264445e+00 
-4.5494940000000000e-01,	 1.5710879999999999e-01,	 1.1586407740522199e-02,	 1.7360000000000000e+03,	 1.2397532809713276e-13,	 3.0000000000000000e+02,	 1.0000000000000000e+03,	 3.4760788074254771e+02,	 4.9941330337264445e+00 
-4.4994370000000000e-01,	 1.5710879999999999e-01,	 1.1586407740522199e-02,	 1.7360000000000000e+03,	 7.9761182968399091e-14,	 3.0000000000000000e+02,	 1.0000000000000000e+03,	 3.4760788074254771e+02,	 4.9941330337264445e+00 
-4.4493810000000000e-01,	 1.5710879999999999e-01,	 1.1586407740522199e-02,	 1.7360000000000000e+03,	 9.0770398609659215e-14,	 3.0000000000000000e+02,	 1.0000000000000000e+03,	 3.4760788074254771e+02,	 4.9941330337264445e+00 
-4.3993250000000000e-01,	 1.5710879999999999e-01,	 1.1586407740522199e-02,	 1.7360000000000000e+03,	 7.2213948724901614e-14,	 3.0000000000000000e+02,	 1.0000000000000000e+03,	 3.4760788074254771e+02,	 4.9941330337264445e+00 
-4.3492690000000001e-01,	 1.5710879999999999e-01,	 1.1586407740522199e-02,	 1.7360000000000000e+03,	 3.3097323485197118e-15,	 3.0000000000000000e+02,	 1.0000000000000000e+03,	 3.4760788074254771e+02,	 4.9941330337264445e+00 
-4.2992120000000000e-01,	 1.5710879999999999e-01,	 1.1586407740522199e-02,	 1.7360000000000000e+03,	 -3.9515440101577307e-15,	 3.0000000000000000e+02,	 1.0000000000000000e+03,	 3.4760788074254771e+02,	 4.9941330337264445e+00 
-4.2491560000000000e-01,	 1.5710879999999999e-01,	 1.1586407740522199e-02,	 1.7360000000000000e+03,	 -9.7269117989573852e-15,	 3.0000000000000000e+02,	 1.0000000000000000e+03,	 3.4760788074254771e+02,	 4.9941330337264445e+00 
-4.1991000000000001e-01,	 1.5710879999999999e-01,	 1.1586407740522199e-02,	 1.7360000000000000e+03,	 3.5397036542117870e-14,	 3.0000000000000000e+02,	 1.0000000000000000e+03,	 3.4760788074254771e+02,	 4.9941330337264445e+00 
-4.1490430000000000e-01,	 1.5710879999999999e-01,	 1.1586407740522199e-02,	 1.7360000000000000e+03,	 7.4044856908639515e-14,	 3.0000000000000000e+02,	 1.0000000000000000e+03,	 3.4760788074254771e+02,	 4.9941330337264445e+00 
-4.0989870000000000e-01,	 1.5710879999999999e-01,	 1.1586407740522199e-02,	 1.7360000000000000e+03,	 1.4284862892144601e-14,	 3.0000000000000000e+02,	 1.0000000000000000e+03,	 3.4760788074254771e+02,	 4.9941330337264445e+00 
-4.0489310000000001e-01,	 1.5710879999999999e-01,	 1.1586407740522199e-02,	 1.7360000000000000e+03,	 -4.7251402553900124e-14,	 3.0000000000000000e+02,	 1.0000000000000000e+03,	 3.4760788074254771e+02,	 4.9941330337264445e+00 
-3.9988750000000001e-01,	 1.5710879999999999e-01,	 1.1586407740522199e-02,	 1.7360000000000000e+03,	 -4.7221472089563783e-14,	 3.0000000000000000e+02,	 1.0000000000000000e+03,	 3.4760788074254771e+02,	 4.9941330337264445e+00 
-3.9488180000000001e-01,	 1.5710879999999999e-01,	 1.1586407740522199e-02,	 1.7360000000000000e+03,	 9.0064720556086940e-15,	 3.0000000000000000e+02,	 1.0000000000000000e+03,	 3.4760788074254771e+02,	 4.9941330337264445e+00 
-3.8987620000000001e-01,	 1.5710879999999999e-01,	 1.1586407740522199e-02,	 1.7360000000000000e+03,	 5.5236800989006045e-14,	 3.0000000000000000e+02,	 1.0000000000000000e+03,	 3.4760788074254771e+02,	 4.9941330337264445e+00 
-3.8487060000000001e-01,	 1.5710879999999999e-01,	 1.1586407740522199e-02,	 1.7360000000000000e+03,	 -1.6538241669904331e-14,	 3.0000000000000000e+02,	 1.0000000000000000e+03,	 3.4760788074254771e+02,	 4.9941330337264445e+00 
-3.7986500000000001e-01,	 1.5710879999999999e-01,	 1.1586407740522199e-02,	 1.7360000000000000e+03,	 -1.9075603089202964e-14,	 3.0000000000000000e+02,	 1.0000000000000000e+03,	 3.4760788074254771e+02,	 4.9941330337264445e+00 
-3.7485930000000001e-01,	 1.5710879999999999e-01,	 1.1586407740522199e-02,	 1.7360000000000000e+03,	 -3.3807250916989384e-14,	 3.0000000000000000e+02,	 1.0000000000000000e+03,	 3.4760788074254771e+02,	 4.9941330337264445e+00 
-3.6985370000000001e-01,	 1.5710879999999999e-01,	 1.1586407740522199e-02,	 1.7360000000000000e+03,	 -3.2335874646398232e-14,	 3.0000000000000000e+02,	 1.0000000000000000e+03,	 3.4760788074254771e+02,	 4.9941330337264445e+00 
-3.6484810000000001e-01,	 1.5710879999999999e-01,	 1.1586407740522199e-02,	 1.7360000000000000e+03,	 1.7754973406896690e-14,	 3.0000000000000000e+02,	 1.0000000000000000e+03,	 3.4760788074254771e+02,	 4.9941330337264445e+00 
-3.5984250000000001e-01,	 1.5710879999999999e-01,	 1.1586407740522199e-02,	 1.7360000000000000e+03,	 -4.3418676866988646e-14,	 3.0000000000000000e+02,	 1.0000000000000000e+03,	 3.4760788074254771e+02,	 4.9941330337264445e+00 
-3.5483680000000001e-01,	 1.5710879999999999e-01,	 1.1586407740522199e-02,	 1.7360000000000000e+03,	 -9.3592425324315303e-14,	 3.0000000000000000e+02,	 1.0000000000000000e+03,	 3.4760788074254771e+02,	 4.9941330337264445e+00 
-3.4983120000000001e-01,	 1.5710879999999999e-01,	 1.1586407740522199e-02,	 1.7360000000000000e+03,	 -4.9930174427889958e-14,	 3.0000000000000000e+02,	 1.0000000000000000e+03,	 3.4760788074254771e+02,	 4.9941330337264445e+00 
-3.4482560000000001e-01,	 1.5710879999999999e-01,	 1.1586407740522199e-02,	 1.7360000000000000e+03,	 -5.6653562439493955e-14,	 3.0000000000000000e+02,	 1.0000000000000000e+03,	 3.4760788074254771e+02,	 4.9941330337264445e+00 
-3.3981990000000001e-01,	 1.5710879999999999e-01,	 1.1586407740522199e-02,	 1.7360000000000000e+03,	 -1.0146572372440755e-13,	 3.0000000000000000e+02,	 1.0000000000000000e+03,	 3.4760788074254771e+02,	 4.9941330337264445e+00 
-3.3481430000000001e-01,	 1.5710879999999999e-01,	 1.1586407740522199e-02,	 1.7360000000000000e+03,	 -6.6487190321412039e-14,	 3.0000000000000000e+02,	 1.0000000000000000e+03,	 3.4760788074254771e+02,	 4.9941330337264445e+00 
-3.2980870000000001e-01,	 1.5710879999999999e-01,	 1.1586407740522199e-02,	 1.7360000000000000e+03,	 -3.7666869516952360e-14,	 3.0000000000000000e+02,	 1.0000000000000000e+03,	 3.4760788074254771e+02,	 4.9941330337264445e+00 
-3.2480310000000001e-01,	 1.5710879999999999e-01,	 1.1586407740522199e-02,	 1.7360000000000000e+03,	 -7.6202739009019317e-14,	 3.0000000000000000e+02,	 1.0000000000000000e+03,	 3.4760788074254771e+02,	 4.9941330337264445e+00 
-3.1979740000000001e-01,	 1.5710879999999999e-01,	 1.1586407740522199e-02,	 1.7360000000000000e+03,	 -7.8280621774913293e-14,	 3.0000000000000000e+02,	 1.0000000000000000e+03,	 3.4760788074254771e+02,	 4.9941330337264445e+00 
-3.1479180000000001e-01,	 1.5710879999999999e-01,	 1.1586407740522199e-02,	 1.7360000000000000e+03,	 -7.9598991708728157e-14,	 3.0000000000000000e+02,	 1.0000000000000000e+03,	 3.4760788074254771e+02,	 4.9941330337264445e+00 
-3.0978620000000001e-01,	 1.5710879999999999e-01,	 1.1586407740522199e-02,	 1.7360000000000000e+03,	 -1.0488489669819189e-13,	 3.0000000000000000e+02,	 1.0000000000000000e+03,	 3.4760788074254771e+02,	 4.9941330337264445e+00 
-3.0478060000000001e-01,	 1.5710879999999999e-01,	 1.1586407740522199e-02,	 1.7360000000000000e+03,	 -1.0725774382008546e-13,	 3.0000000000000000e+02,	 1.0000000000000000e+03,	 3.4760788074254771e+02,	 4.9941330337264445e+00 
-2.9977490000000001e-01,	 1.5710879999999999e-01,	 1.1586407740522199e-02,	 1.7360000000000000e+03,	 -8.2360390141058182e-14,	 3.0000000000000000e+02,	 1.0000000000000000e+03,	 3.4760788074254771e+02,	 4.9941330337264445e+00 
-2.9476930000000001e-01,	 1.5710879999999999e-01,	 1.1586407740522199e-02,	 1.7360000000000000e+03,	 -8.7445268696095169e-14,	 3.0000000000000000e+02,	 1.0000000000000000e+03,	 3.4760788074254771e+02,	 4.9941330337264445e+00 
-2.8976370000000001e-01,	 1.5710879999999999e-01,	 1.1586407740522199e-02,	 1.7360000000000000e+03,	 -9.2829492336889194e-14,	 3.0000000000000000e+02,	 1.0000000000000000e+03,	 3.4760788074254771e+02,	 4.9941330337264445e+00 
-2.8475810000000001e-01,	 1.5710879999999999e-01,	 1.1586407740522199e-02,	 1.7360000000000000e+03,	 -1.0695264098423579e-13,	 3.0000000000000000e+02,	 1.0000000000000000e+03,	 3.4760788074254771e+02,	 4.9941330337264445e+00 
-2.7975240000000001e-01,	 1.5710879999999999e-01,	 1.1586407740522199e-02,	 1.7360000000000000e+03,	 -8.8011835037787068e-14,	 3.0000000000000000e+02,	 1.0000000000000000e+03,	 3.4760788074254771e+02,	 4.9941330337264445e+00 
-2.7474680000000001e-01,	 1.5710879999999999e-01,	 1.1586407740522199e-02,	 1.7360000000000000e+03,	 -5.0432559878309395e-14,	 3.0000000000000000e+02,	 1.0000000000000000e+03,	 3.4760788074254771e+02,	 4.9941330337264445e+00 
-2.6974120000000001e-01,	 1.5710879999999999e-01,	 1.1586407740522199e-02,	 1.7360000000000000e+03,	 -1.0910384675912879e-13,	 3.0000000000000000e+02,	 1.0000000000000000e+03,	 3.4760788074254771e+02,	 4.9941330337264445e+00 
-2.6473550000000001e-01,	 1.5710879999999999e-01,	 1.1586407740522199e-02,	 1.7360000000000000e+03,	 -3.6732607250362416e-14,	 3.0000000000000000e+02,	 1.0000000000000000e+03,	 3.4760788074254771e+02,	 4.9941330337264445e+00 
-2.5972990000000001e-01,	 1.5710879999999999e-01,	 1.1586407740522199e-02,	 1.7360000000000000e+03,	 -1.1988387985140708e-13,	 3.0000000000000000e+02,	 1.0000000000000000e+03,	 3.4760788074254771e+02,	 4.9941330337264445e+00 
-2.5472430000000001e-01,	 1.5710879999999999e-01,	 1.1586407740522199e-02,	 1.7360000000000000e+03,	 -4.3383215615887595e-13,	 3.0000000000000000e+02,	 1.0000000000000000e+03,	 3.4760788074254771e+02,	 4.9941330337264445e+00 
-2.4971869999999999e-01,	 1.5710879999999999e-01,	 1.1586407740522199e-02,	 1.7360000000000000e+03,	 4.6632848667985318e-14,	 3.0000000000000000e+02,	 1.0000000000000000e+03,	 3.4760788074254771e+02,	 4.9941330337264445e+00 
-2.4471300000000001e-01,	 1.5710879999999999e-01,	 1.1586407740522199e-02,	 1.7360000000000000e+03,	 9.2110827613124513e-13,	 3.0000000000000000e+02,	 1.0000000000000000e+03,	 3.4760788074254771e+02,	 4.9941330337264445e+00 
-2.3970739999999999e-01,	 1.5710879999999999e-01,	 1.1586407740522199e-02,	 1.7360000000000000e+03,	 1.6170901376930748e-12,	 3.0000000000000000e+02,	 1.0000000000000000e+03,	 3.4760788074254771e+02,	 4.9941330337264445e+00 
-2.3470179999999999e-01,	 1.5710879999999999e-01,	 1.1586407740522197e-02,	 1.7360000000000000e+03,	 1.8069732503627639e-12,	 3.0000000000000000e+02,	 9.9999999999999989e+02,	 3.4760788074254771e+02,	 4.9941330337264445e+00 
-2.2969619999999999e-01,	 1.5710879999999999e-01,	 1.1586407740522196e-02,	 1.7360000000000000e+03,	 1.3386116066396845e-12,	 3.0000000000000000e+02,	 9.9999999999999977e+02,	 3.4760788074254771e+02,	 4.9941330337264445e+00 
-2.2469049999999999e-01,	 1.5710879999999999e-01,	 1.1586407740522194e-02,	 1.7360000000000000e+03,	 1.0339917005961641e-12,	 3.0000000000000000e+02,	 9.9999999999999966e+02,	 3.4760788074254771e+02,	 4.9941330337264445e+00 
-2.1968489999999999e-01,	 1.5710879999999999e-01,	 1.1586407740522199e-02,	 1.7360000000000000e+03,	 -1.1134163659982650e-13,	 2.9999999999999994e+02,	 9.9999999999999989e+02,	 3.4760788074254765e+02,	 4.9941330337264453e+00 
-2.1467929999999999e-01,	 1.5710879999999999e-01,	 1.1586407740522220e-02,	 1.7360000000000000e+03,	 -1.0834958260247225e-12,	 2.9999999999999989e+02,	 1.0000000000000015e+03,	 3.4760788074254759e+02,	 4.9941330337264462e+00 
-2.0967369999999999e-01,	 1.5710879999999999e-01,	 1.1586407740522239e-02,	 1.7360000000000000e+03,	 -6.2705753210698790e-12,	 2.9999999999999972e+02,	 1.0000000000000026e+03,	 3.4760788074254754e+02,	 4.9941330337264471e+00 
-2.0466799999999999e-01,	 1.5710879999999999e-01,	 1.1586407740522227e-02,	 1.7360000000000000e+03,	 -1.6160729652739323e-11,	 3.0000000000000017e+02,	 1.0000000000000030e+03,	 3.4760788074254776e+02,	 4.9941330337264436e+00 
-1.9966239999999999e-01,	 1.5710879999999999e-01,	 1.1586407740522631e-02,	 1.7360000000000000e+03,	 -1.7574590126977230e-11,	 3.0000000000000057e+02,	 1.0000000000000392e+03,	 3.4760788074254799e+02,	 4.9941330337264409e+00 
-1.9465679999999999e-01,	 1.5710879999999999e-01,	 1.1586407740522619e-02,	 1.7360000000000000e+03,	 -2.4751947760617151e-11,	 3.0000000000000227e+02,	 1.0000000000000439e+03,	 3.4760788074254901e+02,	 4.9941330337264258e+00 
-1.8965109999999999e-01,	 1.5710879999999999e-01,	 1.1586407740523311e-02,	 1.7360000000000000e+03,	 -3.6543854139728150e-11,	 3.0000000000000568e+02,	 1.0000000000001151e+03,	 3.4760788074255095e+02,	 4.9941330337263983e+00 
-1.8464549999999999e-01,	 1.5710879999999999e-01,	 1.1586407740523368e-02,	 1.7360000000000000e+03,	 -5.2555540162156708e-11,	 3.0000000000000983e+02,	 1.0000000000001338e+03,	 3.4760788074255339e+02,	 4.9941330337263627e+00 
-1.7963989999999999e-01,	 1.5710879999999999e-01,	 1.1586407740523823e-02,	 1.7360000000000000e+03,	 -7.3358643559283041e-11,	 3.0000000000001438e+02,	 1.0000000000001882e+03,	 3.4760788074255601e+02,	 4.9941330337263254e+00 
-1.7463429999999999e-01,	 1.5710879999999999e-01,	 1.1586407740525238e-02,	 1.7360000000000000e+03,	 -9.3686496907423706e-11,	 3.0000000000002058e+02,	 1.0000000000003309e+03,	 3.4760788074255959e+02,	 4.9941330337262739e+00 
-1.6962859999999999e-01,	 1.5710879999999999e-01,	 1.1586407740525256e-02,	 1.7360000000000000e+03,	 -1.2524360201544317e-10,	 3.0000000000002836e+02,	 1.0000000000003583e+03,	 3.4760788074256413e+02,	 4.9941330337262091e+00 
-1.6462299999999999e-01,	 1.5710879999999999e-01,	 1.1586407740526709e-02,	 1.7360000000000000e+03,	 -1.5970982857276476e-10,	 3.0000000000003922e+02,	 1.0000000000005201e+03,	 3.4760788074257039e+02,	 4.9941330337261185e+00 
-1.5961739999999999e-01,	 1.5710879999999999e-01,	 1.1586407740528519e-02,	 1.7360000000000000e+03,	 -1.9687043729739002e-10,	 3.0000000000005201e+02,	 1.0000000000007188e+03,	 3.4760788074257783e+02,	 4.9941330337260119e+00 
-1.5461179999999999e-01,	 1.5710879999999999e-01,	 1.1586407740528954e-02,	 1.7360000000000000e+03,	 -2.4848472008060005e-10,	 3.0000000000006611e+02,	 1.0000000000008034e+03,	 3.4760788074258596e+02,	 4.9941330337258956e+00 
-1.4960609999999999e-01,	 1.5710879999999999e-01,	 1.1586407740532177e-02,	 1.7360000000000002e+03,	 -3.0645316681021875e-10,	 3.0000000000008640e+02,	 1.0000000000011493e+03,	 3.4760788074259773e+02,	 4.9941330337257268e+00 
-1.4460049999999999e-01,	 1.5710879999999999e-01,	 1.1586407740534259e-02,	 1.7359999999999991e+03,	 -3.7312587692219503e-10,	 3.0000000000010834e+02,	 1.0000000000014021e+03,	 3.4760788074261046e+02,	 4.9941330337255403e+00 
-1.3959489999999999e-01,	 1.5710879999999999e-01,	 1.1586407740535768e-02,	 1.7359999999999914e+03,	 -4.5680347556825750e-10,	 3.0000000000013603e+02,	 1.0000000000016247e+03,	 3.4760788074262649e+02,	 4.9941330337252881e+00 
-1.3458930000000000e-01,	 1.5710879999999999e-01,	 1.1586407740539687e-02,	 1.7359999999999873e+03,	 -5.5226730404652120e-10,	 3.0000000000016723e+02,	 1.0000000000020668e+03,	 3.4760788074264457e+02,	 4.9941330337250163e+00 
-1.2958359999999999e-01,	 1.5710879999999999e-01,	 1.1586407740543172e-02,	 1.7359999999999768e+03,	 -6.6143645446104982e-10,	 3.0000000000020373e+02,	 1.0000000000024893e+03,	 3.4760788074266571e+02,	 4.9941330337246823e+00 
-1.2457799999999999e-01,	 1.5710879999999999e-01,	 1.1555936475102842e-02,	 1.7359790455129992e+03,	 9.7209538891143521e-01,	 3.0001957525188186e+02,	 9.9743516441614702e+02,	 3.4761922141058977e+02,	 4.9939106089718592e+00 
-1.1957240000000000e-01,	 1.5710879999999999e-01,	 1.1525465209647963e-02,	 1.7359580910260124e+03,	 1.9441907789381063e+00,	 3.0003915050364913e+02,	 9.9486998562054771e+02,	 3.4763056170860159e+02,	 4.9936897699506186e+00 
-5.0000000000000000e-01,	 1.6314759999999998e-01,	 1.1586407740521439e-02,	 1.7359999999999986e+03,	 4.5325999749805449e-13,	 3.0000000000000011e+02,	 9.9999999999993486e+02,	 3.4760788074254776e+02,	 4.9941330337264400e+00 
-4.9501550000000000e-01,	 1.6314759999999998e-01,	 1.1586407740522157e-02,	 1.7360000000000007e+03,	 3.1225408822762217e-13,	 2.9999999999999994e+02,	 9.9999999999999625e+02,	 3.4760788074254765e+02,	 4.9941330337264471e+00 
-4.9003099999999999e-01,	 1.6314759999999998e-01,	 1.1586407740522341e-02,	 1.7360000000000000e+03,	 1.2466867036745587e-13,	 3.0000000000000000e+02,	 1.0000000000000123e+03,	 3.4760788074254771e+02,	 4.9941330337264445e+00 
-4.8504659999999999e-01,	 1.6314759999999998e-01,	 1.1586407740522282e-02,	 1.7360000000000000e+03,	 -1.2032838846086147e-13,	 3.0000000000000000e+02,	 1.0000000000000073e+03,	 3.4760788074254771e+02,	 4.9941330337264445e+00 
-4.8006209999999999e-01,	 1.6314759999999998e-01,	 1.1586407740522253e-02,	 1.7360000000000000e+03,	 -1.3279182519531944e-13,	 3.0000000000000000e+02,	 1.0000000000000047e+03,	 3.4760788074254771e+02,	 4.9941330337264445e+00 
-4.7507759999999999e-01,	 1.6314759999999998e-01,	 1.1586407740522225e-02,	 1.7360000000000000e+03,	 5.7199780820520607e-14,	 3.0000000000000000e+02,	 1.0000000000000023e+03,	 3.4760788074254771e+02,	 4.9941330337264445e+00 
-4.7009309999999999e-01,	 1.6314759999999998e-01,	 1.1586407740522196e-02,	 1.7360000000000000e+03,	 4.3415891403471260e-14,	 3.0000000000000000e+02,	 9.9999999999999977e+02,	 3.4760788074254771e+02,	 4.9941330337264445e+00 
-4.6510869999999999e-01,	 1.6314759999999998e-01,	 1.1586407740522199e-02,	 1.7360000000000000e+03,	 4.6515121141470378e-14,	 3.0000000000000000e+02,	 1.0000000000000000e+03,	 3.4760788074254771e+02,	 4.9941330337264445e+00 
-4.6012419999999998e-01,	 1.6314759999999998e-01,	 1.1586407740522199e-02,	 1.7360000000000000e+03,	 2.1250115464723540e-14,	 3.0000000000000000e+02,	 1.0000000000000000e+03,	 3.4760788074254771e+02,	 4.9941330337264445e+00 
-4.5513969999999998e-01,	 1.6314759999999998e-01,	 1.1586407740522199e-02,	 1.7360000000000000e+03,	 1.8312008092965318e-14,	 3.0000000000000000e+02,	 1.0000000000000000e+03,	 3.4760788074254771e+02,	 4.9941330337264445e+00 
-4.5015519999999998e-01,	 1.6314759999999998e-01,	 1.1586407740522199e-02,	 1.7360000000000000e+03,	 6.2917032922160327e-14,	 3.0000000000000000e+02,	 1.0000000000000000e+03,	 3.4760788074254771e+02,	 4.9941330337264445e+00 
-4.4517079999999998e-01,	 1.6314759999999998e-01,	 1.1586407740522199e-02,	 1.7360000000000000e+03,	 1.3475662838237307e-14,	 3.0000000000000000e+02,	 1.0000000000000000e+03,	 3.4760788074254771e+02,	 4.9941330337264445e+00 
-4.4018629999999997e-01,	 1.6314759999999998e-01,	 1.1586407740522199e-02,	 1.7360000000000000e+03,	 -1.7846843034895323e-14,	 3.0000000000000000e+02,	 1.0000000000000000e+03,	 3.4760788074254771e+02,	 4.9941330337264445e+00 
-4.3520180000000003e-01,	 1.6314759999999998e-01,	 1.1586407740522199e-02,	 1.7360000000000000e+03,	 3.4482512522254631e-14,	 3.0000000000000000e+02,	 1.0000000000000000e+03,	 3.4760788074254771e+02,	 4.9941330337264445e+00 
-4.3021730000000002e-01,	 1.6314759999999998e-01,	 1.1586407740522199e-02,	 1.7360000000000000e+03,	 2.1965043921354458e-14,	 3.0000000000000000e+02,	 1.0000000000000000e+03,	 3.4760788074254771e+02,	 4.9941330337264445e+00 
-4.2523290000000002e-01,	 1.6314759999999998e-01,	 1.1586407740522199e-02,	 1.7360000000000000e+03,	 -2.4519379098634811e-14,	 3.0000000000000000e+02,	 1.0000000000000000e+03,	 3.4760788074254771e+02,	 4.9941330337264445e+00 
-4.2024840000000002e-01,	 1.6314759999999998e-01,	 1.1586407740522199e-02,	 1.7360000000000000e+03,	 -1.5896564025691260e-14,	 3.0000000000000000e+02,	 1.0000000000000000e+03,	 3.4760788074254771e+02,	 4.9941330337264445e+00 
-4.1526390000000002e-01,	 1.6314759999999998e-01,	 1.1586407740522199e-02,	 1.7360000000000000e+03,	 -6.7998668650487711e-14,	 3.0000000000000000e+02,	 1.0000000000000000e+03,	 3.4760788074254771e+02,	 4.9941330337264445e+00 
-4.1027940000000002e-01,	 1.6314759999999998e-01,	 1.1586407740522199e-02,	 1.7360000000000000e+03,	 -4.2275497895557890e-14,	 3.0000000000000000e+02,	 1.0000000000000000e+03,	 3.4760788074254771e+02,	 4.9941330337264445e+00 
-4.0529500000000002e-01,	 1.6314759999999998e-01,	 1.1586407740522199e-02,	 1.7360000000000000e+03,	 -1.6320883604717075e-14,	 3.0000000000000000e+02,	 1.0000000000000000e+03,	 3.4760788074254771e+02,	 4.9941330337264445e+00 
-4.0031050000000001e-01,	 1.6314759999999998e-01,	 1.1586407740522199e-02,	 1.7360000000000000e+03,	 -1.8557557948778305e-14,	 3.0000000000000000e+02,	 1.0000000000000000e+03,	 3.4760788074254771e+02,	 4.9941330337264445e+00 
-3.9532600000000001e-01,	 1.6314759999999998e-01,	 1.1586407740522199e-02,	 1.7360000000000000e+03,	 -5.6705447731937742e-14,	 3.0000000000000000e+02,	 1.0000000000000000e+03,	 3.4760788074254771e+02,	 4.9941330337264445e+00 
-3.9034150000000001e-01,	 1.6314759999999998e-01,	 1.1586407740522199e-02,	 1.7360000000000000e+03,	 -1.1840478856635048e-13,	 3.0000000000000000e+02,	 1.0000000000000000e+03,	 3.4760788074254771e+02,	 4.9941330337264445e+00 
-3.8535710000000001e-01,	 1.6314759999999998e-01,	 1.1586407740522199e-02,	 1.7360000000000000e+03,	 -9.7835587387500173e-14,	 3.0000000000000000e+02,	 1.0000000000000000e+03,	 3.4760788074254771e+02,	 4.9941330337264445e+00 
-3.8037260000000001e-01,	 1.6314759999999998e-01,	 1.1586407740522199e-02,	 1.7360000000000000e+03,	 -6.7921365388116299e-14,	 3.0000000000000000e+02,	 1.0000000000000000e+03,	 3.4760788074254771e+02,	 4.9941330337264445e+00 
-3.7538810000000000e-01,	 1.6314759999999998e-01,	 1.1586407740522199e-02,	 1.7360000000000000e+03,	 -8.1319342503519445e-14,	 3.0000000000000000e+02,	 1.0000000000000000e+03,	 3.4760788074254771e+02,	 4.9941330337264445e+00 
-3.7040360000000000e-01,	 1.6314759999999998e-01,	 1.1586407740522199e-02,	 1.7360000000000000e+03,	 -8.5826028762127880e-14,	 3.0000000000000000e+02,	 1.0000000000000000e+03,	 3.4760788074254771e+02,	 4.9941330337264445e+00 
-3.6541920000000000e-01,	 1.6314759999999998e-01,	 1.1586407740522199e-02,	 1.7360000000000000e+03,	 -1.1206433428947634e-13,	 3.0000000000000000e+02,	 1.0000000000000000e+03,	 3.4760788074254771e+02,	 4.9941330337264445e+00 
-3.6043470000000000e-01,	 1.6314759999999998e-01,	 1.1586407740522199e-02,	 1.7360000000000000e+03,	 -9.3705706279509943e-14,	 3.0000000000000000e+02,	 1.0000000000000000e+03,	 3.4760788074254771e+02,	 4.9941330337264445e+00 
-3.5545019999999999e-01,	 1.6314759999999998e-01,	 1.1586407740522199e-02,	 1.7360000000000000e+03,	 -6.8965484577010871e-14,	 3.0000000000000000e+02,	 1.0000000000000000e+03,	 3.4760788074254771e+02,	 4.9941330337264445e+00 
-3.5046569999999999e-01,	 1.6314759999999998e-01,	 1.1586407740522199e-02,	 1.7360000000000000e+03,	 -1.1057569574407686e-13,	 3.0000000000000000e+02,	 1.0000000000000000e+03,	 3.4760788074254771e+02,	 4.9941330337264445e+00 
-3.4548129999999999e-01,	 1.6314759999999998e-01,	 1.1586407740522199e-02,	 1.7360000000000000e+03,	 -1.0035202278541849e-13,	 3.0000000000000000e+02,	 1.0000000000000000e+03,	 3.4760788074254771e+02,	 4.9941330337264445e+00 
-3.4049679999999999e-01,	 1.6314759999999998e-01,	 1.1586407740522199e-02,	 1.7360000000000000e+03,	 -8.1138277104091657e-14,	 3.0000000000000000e+02,	 1.0000000000000000e+03,	 3.4760788074254771e+02,	 4.9941330337264445e+00 
-3.3551229999999999e-01,	 1.6314759999999998e-01,	 1.1586407740522199e-02,	 1.7360000000000000e+03,	 -1.1469539572390924e-13,	 3.0000000000000000e+02,	 1.0000000000000000e+03,	 3.4760788074254771e+02,	 4.9941330337264445e+00 
-3.3052779999999998e-01,	 1.6314759999999998e-01,	 1.1586407740522199e-02,	 1.7360000000000000e+03,	 -1.2152076607058732e-13,	 3.0000000000000000e+02,	 1.0000000000000000e+03,	 3.4760788074254771e+02,	 4.9941330337264445e+00 
-3.2554339999999998e-01,	 1.6314759999999998e-01,	 1.1586407740522199e-02,	 1.7360000000000000e+03,	 -1.0064046047269674e-13,	 3.0000000000000000e+02,	 1.0000000000000000e+03,	 3.4760788074254771e+02,	 4.9941330337264445e+00 
-3.2055889999999998e-01,	 1.6314759999999998e-01,	 1.1586407740522199e-02,	 1.7360000000000000e+03,	 -1.0631839071644400e-13,	 3.0000000000000000e+02,	 1.0000000000000000e+03,	 3.4760788074254771e+02,	 4.9941330337264445e+00 
-3.1557439999999998e-01,	 1.6314759999999998e-01,	 1.1586407740522199e-02,	 1.7360000000000000e+03,	 -1.0747792680346288e-13,	 3.0000000000000000e+02,	 1.0000000000000000e+03,	 3.4760788074254771e+02,	 4.9941330337264445e+00 
-3.1058989999999997e-01,	 1.6314759999999998e-01,	 1.1586407740522199e-02,	 1.7360000000000000e+03,	 -9.5158693011364921e-14,	 3.0000000000000000e+02,	 1.0000000000000000e+03,	 3.4760788074254771e+02,	 4.9941330337264445e+00 
-3.0560549999999997e-01,	 1.6314759999999998e-01,	 1.1586407740522199e-02,	 1.7360000000000000e+03,	 -9.7266403831829297e-14,	 3.0000000000000000e+02,	 1.0000000000000000e+03,	 3.4760788074254771e+02,	 4.9941330337264445e+00 
-3.0062100000000003e-01,	 1.6314759999999998e-01,	 1.1586407740522199e-02,	 1.7360000000000000e+03,	 -9.6913310724216301e-14,	 3.0000000000000000e+02,	 1.0000000000000000e+03,	 3.4760788074254771e+02,	 4.9941330337264445e+00 
-2.9563650000000002e-01,	 1.6314759999999998e-01,	 1.1586407740522199e-02,	 1.7360000000000000e+03,	 -1.1355485845859449e-13,	 3.0000000000000000e+02,	 1.0000000000000000e+03,	 3.4760788074254771e+02,	 4.9941330337264445e+00 
-2.9065200000000002e-01,	 1.6314759999999998e-01,	 1.1586407740522199e-02,	 1.7360000000000000e+03,	 -9.6974565485350819e-14,	 3.0000000000000000e+02,	 1.0000000000000000e+03,	 3.4760788074254771e+02,	 4.9941330337264445e+00 
-2.8566760000000002e-01,	 1.6314759999999998e-01,	 1.1586407740522199e-02,	 1.7360000000000000e+03,	 -6.1449084242036732e-14,	 3.0000000000000000e+02,	 1.0000000000000000e+03,	 3.4760788074254771e+02,	 4.9941330337264445e+00 
-2.8068310000000002e-01,	 1.6314759999999998e-01,	 1.1586407740522199e-02,	 1.7360000000000000e+03,	 -1.2263837285939720e-13,	 3.0000000000000000e+02,	 1.0000000000000000e+03,	 3.4760788074254771e+02,	 4.9941330337264445e+00 
-2.7569860000000002e-01,	 1.6314759999999998e-01,	 1.1586407740522199e-02,	 1.7360000000000000e+03,	 -1.2272796049344854e-13,	 3.0000000000000000e+02,	 1.0000000000000000e+03,	 3.4760788074254771e+02,	 4.9941330337264445e+00 
-2.7071410000000001e-01,	 1.6314759999999998e-01,	 1.1586407740522199e-02,	 1.7360000000000000e+03,	 -3.9780121648413768e-14,	 3.0000000000000000e+02,	 1.0000000000000000e+03,	 3.4760788074254771e+02,	 4.9941330337264445e+00 
-2.6572960000000001e-01,	 1.6314759999999998e-01,	 1.1586407740522199e-02,	 1.7360000000000000e+03,	 6.5237076491304684e-14,	 3.0000000000000000e+02,	 1.0000000000000000e+03,	 3.4760788074254771e+02,	 4.9941330337264445e+00 
-2.6074520000000001e-01,	 1.6314759999999998e-01,	 1.1586407740522199e-02,	 1.7360000000000000e+03,	 -3.4779414757676642e-13,	 3.0000000000000000e+02,	 1.0000000000000000e+03,	 3.4760788074254771e+02,	 4.9941330337264445e+00 
-2.5576070000000001e-01,	 1.6314759999999998e-01,	 1.1586407740522199e-02,	 1.7360000000000000e+03,	 -1.7054016090003675e-14,	 3.0000000000000000e+02,	 1.0000000000000000e+03,	 3.4760788074254771e+02,	 4.9941330337264445e+00 
-2.5077620000000000e-01,	 1.6314759999999998e-01,	 1.1586407740522199e-02,	 1.7360000000000000e+03,	 6.6585335245409417e-13,	 3.0000000000000000e+02,	 1.0000000000000000e+03,	 3.4760788074254771e+02,	 4.9941330337264445e+00 
-2.4579170000000000e-01,	 1.6314759999999998e-01,	 1.1586407740522196e-02,	 1.7360000000000000e+03,	 -5.2063165547574756e-13,	 3.0000000000000000e+02,	 9.9999999999999977e+02,	 3.4760788074254771e+02,	 4.9941330337264445e+00 
-2.4080730000000000e-01,	 1.6314759999999998e-01,	 1.1586407740522194e-02,	 1.7360000000000000e+03,	 -2.2538598726708094e-12,	 3.0000000000000000e+02,	 9.9999999999999966e+02,	 3.4760788074254771e+02,	 4.9941330337264445e+00 
-2.3582280000000000e-01,	 1.6314759999999998e-01,	 1.1586407740522204e-02,	 1.7360000000000000e+03,	 -3.5584878829694253e-12,	 2.9999999999999994e+02,	 1.0000000000000003e+03,	 3.4760788074254765e+02,	 4.9941330337264453e+00 
-2.3083830000000000e-01,	 1.6314759999999998e-01,	 1.1586407740522230e-02,	 1.7360000000000000e+03,	 -4.4226752468587242e-12,	 2.9999999999999994e+02,	 1.0000000000000025e+03,	 3.4760788074254765e+02,	 4.9941330337264453e+00 