TITLE = "Final State"
VARIABLES = "X", "Y", "rho", "u", "v", "T", "p", "c", "M"
ZONE I=98, J=25, DATAPACKING=POINT, STRANDID=59000, SOLUTIONTIME=0.001423
1.3750830000000001e+00,	 2.8192020000000001e-01,	 4.7675544694050519e-02,	 1.5567231154478698e+03,	 -9.0416616564341119e+00,	 5.9374505556254087e+02,	 8.1437720149569059e+03,	 4.8902266671350895e+02,	 3.1833889895021676e+00 
1.3782770000000000e+00,	 2.8188779999999997e-01,	 4.7609869428061113e-02,	 1.5568641585874082e+03,	 -6.4500641856054184e+00,	 5.9347323373869472e+02,	 8.1288304365263630e+03,	 4.8891071441242963e+02,	 3.1843800389183903e+00 
1.3814979999999999e+00,	 2.8185519999999997e-01,	 4.7523373890128909e-02,	 1.5570988290239234e+03,	 -2.5498067186959990e+00,	 5.9314510294136016e+02,	 8.1095760738092868e+03,	 4.8877553658595446e+02,	 3.1857177787578044e+00 
1.3847449999999999e+00,	 2.8182219999999997e-01,	 4.7409424663020894e-02,	 1.5573874300068196e+03,	 1.0809767529501479e+00,	 5.9269848824732321e+02,	 8.0840397805591128e+03,	 4.8859148765521201e+02,	 3.1875049903790700e+00 
1.3880189999999999e+00,	 2.8178900000000001e-01,	 4.7277029703433796e-02,	 1.5577272568504072e+03,	 4.5267056425704091e+00,	 5.9215943582072464e+02,	 8.0541325846128157e+03,	 4.8836925295750183e+02,	 3.1896640188424517e+00 
1.3913210000000000e+00,	 2.8175549999999999e-01,	 4.7131897928979732e-02,	 1.5580992900390734e+03,	 7.8569634730642512e+00,	 5.9156255086547731e+02,	 8.0213143971236141e+03,	 4.8812305764613689e+02,	 3.1920620743071790e+00 
1.3946490000000000e+00,	 2.8172179999999997e-01,	 4.6978540977065927e-02,	 1.5584961026712826e+03,	 1.1095979921144821e+01,	 5.9092130142401550e+02,	 7.9865480296305859e+03,	 4.8785842501481858e+02,	 3.1946473036477849e+00 
1.3980060000000001e+00,	 2.8168769999999999e-01,	 4.6818024621525928e-02,	 1.5589112723844155e+03,	 1.4248587139445931e+01,	 5.9024421628018285e+02,	 7.9501397584089655e+03,	 4.8757884771152783e+02,	 3.1973831412416853e+00 
1.4013899999999999e+00,	 2.8165340000000000e-01,	 4.6652840662673806e-02,	 1.5593497793592433e+03,	 1.7301869905061508e+01,	 5.8952315448217132e+02,	 7.9124120863406397e+03,	 4.8728093549969782e+02,	 3.2003012016755239e+00 
1.4048030000000000e+00,	 2.8161880000000000e-01,	 4.6482447342638247e-02,	 1.5598092990229034e+03,	 2.0244067756229967e+01,	 5.8875594349449091e+02,	 7.8732533712571712e+03,	 4.8696375627080249e+02,	 3.2034019837353567e+00 
1.4082440000000001e+00,	 2.8158390000000000e-01,	 4.6307972057338817e-02,	 1.5602910642308721e+03,	 2.3061707090816036e+01,	 5.8794271509603777e+02,	 7.8328663009622178e+03,	 4.8662732688590205e+02,	 3.2066869228192187e+00 
1.4117139999999999e+00,	 2.8154869999999999e-01,	 4.6129473813012231e-02,	 1.5607961351426511e+03,	 2.5733059676056360e+01,	 5.8708406702213574e+02,	 7.7912785688867743e+03,	 4.8627185493717388e+02,	 3.2101554657536675e+00 
1.4152119999999999e+00,	 2.8151319999999996e-01,	 4.5947078511257629e-02,	 1.5613244067915500e+03,	 2.8232291810156454e+01,	 5.8618249013182628e+02,	 7.7485543115648597e+03,	 4.8589833099364728e+02,	 3.2137991392549283e+00 
1.4187399999999999e+00,	 2.8147739999999999e-01,	 4.5761417751863875e-02,	 1.5618747246772846e+03,	 3.0531374352874806e+01,	 5.8524269068946137e+02,	 7.7048716204476377e+03,	 4.8550866551800436e+02,	 3.2176008777690002e+00 
1.4222969999999999e+00,	 2.8144130000000001e-01,	 4.5573330553650079e-02,	 1.5624424932843997e+03,	 3.2599377936000387e+01,	 5.8427521968782912e+02,	 7.6605186345530374e+03,	 4.8510719972783994e+02,	 3.2215199854707195e+00 
1.4258830000000000e+00,	 2.8140490000000001e-01,	 4.5385033990322295e-02,	 1.5630222276903987e+03,	 3.4397900829280260e+01,	 5.8329181682783940e+02,	 7.6160271949297075e+03,	 4.8469878200303884e+02,	 3.2255098267263453e+00 
1.4295000000000000e+00,	 2.8136830000000002e-01,	 4.5199063560742707e-02,	 1.5636067776198533e+03,	 3.5887764630209119e+01,	 5.8230637334459198e+02,	 7.5720054538783670e+03,	 4.8428917128015451e+02,	 3.2295138164299995e+00 
1.4331460000000000e+00,	 2.8133130000000001e-01,	 4.5017531397639726e-02,	 1.5641811782116793e+03,	 3.7028834099454002e+01,	 5.8134275652137455e+02,	 7.5291141081235874e+03,	 4.8388829775521464e+02,	 3.2334309706548545e+00 
1.4368230000000000e+00,	 2.8129399999999999e-01,	 4.4845865874451094e-02,	 1.5647365435344595e+03,	 3.7772047390620415e+01,	 5.8041887056144674e+02,	 7.4884834607146577e+03,	 4.8350364054584594e+02,	 3.2371884017706085e+00 
1.4405310000000000e+00,	 2.8125639999999996e-01,	 4.4687226818538005e-02,	 1.5652564137634768e+03,	 3.8075330446508751e+01,	 5.7956302078074339e+02,	 7.4509904896830049e+03,	 4.8314703675360215e+02,	 3.2406686227430428e+00 
1.4442690000000000e+00,	 2.8121839999999998e-01,	 4.4546243927812340e-02,	 1.5657251463718590e+03,	 3.7891107315169862e+01,	 5.7880036539495359e+02,	 7.4177095667641506e+03,	 4.8282904200875743e+02,	 3.2437642149816885e+00 
1.4480390000000001e+00,	 2.8118019999999999e-01,	 4.4428320496777959e-02,	 1.5661304375878001e+03,	 3.7177584242815968e+01,	 5.7815053684257941e+02,	 7.3897673669212318e+03,	 4.8255792589479876e+02,	 3.2463908711873755e+00 
1.4518400000000000e+00,	 2.8114159999999999e-01,	 4.4336528115394569e-02,	 1.5664523879835256e+03,	 3.5912641802676475e+01,	 5.7764569168677986e+02,	 7.3680600647936981e+03,	 4.8234719337704126e+02,	 3.2484152987731387e+00 
1.4556730000000000e+00,	 2.8110279999999999e-01,	 4.4275277433570445e-02,	 1.5666859403458893e+03,	 3.4058484650781665e+01,	 5.7729719140507018e+02,	 7.3534420341193445e+03,	 4.8220166862308912e+02,	 3.2497940188408947e+00 
1.4595380000000000e+00,	 2.8106359999999997e-01,	 4.4243809474719259e-02,	 1.5668189064892051e+03,	 3.1616955072623650e+01,	 5.7711901582341477e+02,	 7.3459477553819288e+03,	 4.8212725011356440e+02,	 3.2504652539242245e+00 
1.4634339999999999e+00,	 2.8102400000000000e-01,	 4.4244500594765389e-02,	 1.5668493057146286e+03,	 2.8611108973594753e+01,	 5.7711363755003322e+02,	 7.3459940451105522e+03,	 4.8212500359410660e+02,	 3.2504236364191410e+00 
1.4673639999999999e+00,	 2.8098419999999996e-01,	 4.4275628827045992e-02,	 1.5667848397041998e+03,	 2.5075185796504314e+01,	 5.7726659502610300e+02,	 7.3531106643862668e+03,	 4.8218889026499232e+02,	 3.2497336894744540e+00 
1.4713259999999999e+00,	 2.8094399999999997e-01,	 4.4330934933535140e-02,	 1.5666318464936890e+03,	 2.1079007265879451e+01,	 5.7756108534846703e+02,	 7.3660515171808456e+03,	 4.8231186798221415e+02,	 3.2484658847173145e+00 
1.4753210000000001e+00,	 2.8090339999999997e-01,	 4.4405854768140074e-02,	 1.5664113661992424e+03,	 1.6705651940584069e+01,	 5.7796056790300440e+02,	 7.3836037348753680e+03,	 4.8247863984109296e+02,	 3.2467767824979372e+00 
1.4793499999999999e+00,	 2.8086259999999996e-01,	 4.4492885086976117e-02,	 1.5661491520964678e+03,	 1.2055612923957685e+01,	 5.7842052534543677e+02,	 7.4039623388865175e+03,	 4.8267058676498579e+02,	 3.2448539316196130e+00 
1.4834120000000000e+00,	 2.8082140000000000e-01,	 4.4582078717143862e-02,	 1.5658663808240508e+03,	 7.2404664285166032e+00,	 5.7890171088676038e+02,	 7.4249765248579160e+03,	 4.8287131081840539e+02,	 3.2428580563389522e+00 
1.4875090000000000e+00,	 2.8077979999999997e-01,	 4.4666423338982804e-02,	 1.5655909447393929e+03,	 2.3609179897016785e+00,	 5.7935842746533649e+02,	 7.4448927184650038e+03,	 4.8306175061922983e+02,	 3.2409784522761234e+00 
1.4916389999999999e+00,	 2.8073789999999998e-01,	 4.4738768349954411e-02,	 1.5653472862180065e+03,	 -2.4913405083095785e+00,	 5.7975004334178595e+02,	 7.4619915193764218e+03,	 4.8322498522897092e+02,	 3.2393798264199800e+00 
1.4958039999999999e+00,	 2.8069569999999999e-01,	 4.4792983687335017e-02,	 1.5651539900278854e+03,	 -7.2398533699415584e+00,	 5.8004670359817646e+02,	 7.4748570664389435e+03,	 4.8334860342934888e+02,	 3.2381819733099326e+00 
1.5000030000000000e+00,	 2.8065309999999999e-01,	 4.4824575764810956e-02,	 1.5650229425985408e+03,	 -1.1826907545881204e+01,	 5.8022972287053562e+02,	 7.4824891822290228e+03,	 4.8342485171439580e+02,	 3.2374579513043922e+00 
1.5042380000000000e+00,	 2.8061009999999997e-01,	 4.4832026217860962e-02,	 1.5649654298502128e+03,	 -1.6218048232915919e+01,	 5.8028373065260507e+02,	 7.4844294593655923e+03,	 4.8344734978325369e+02,	 3.2372697124653520e+00 
1.5085080000000000e+00,	 2.8056680000000001e-01,	 4.4814426170523211e-02,	 1.5649865287671671e+03,	 -2.0389755191677711e+01,	 5.8020297537965916e+02,	 7.4804500774737826e+03,	 4.8341370910111590e+02,	 3.2376395616540754e+00 
1.5128140000000001e+00,	 2.8052309999999997e-01,	 4.4771466608728619e-02,	 1.5650850051038244e+03,	 -2.4330243872795776e+01,	 5.7999079407863326e+02,	 7.4705462503978224e+03,	 4.8332530837461854e+02,	 3.2385519258593130e+00 
1.5171550000000000e+00,	 2.8047909999999998e-01,	 4.4704252480655710e-02,	 1.5652610799237195e+03,	 -2.8040226777000075e+01,	 5.7964881867679219e+02,	 7.4549327454945505e+03,	 4.8318279771806885e+02,	 3.2399999021772605e+00 
1.5215330000000000e+00,	 2.8043469999999998e-01,	 4.4613610886491982e-02,	 1.5655097167242138e+03,	 -3.1518555431575848e+01,	 5.7918673182139105e+02,	 7.4338863441764615e+03,	 4.8299016648391455e+02,	 3.2419437832634430e+00 
1.5259480000000001e+00,	 2.8038989999999997e-01,	 4.4501283293199828e-02,	 1.5658278409285454e+03,	 -3.4767640715649115e+01,	 5.7861211291748555e+02,	 7.4078127090716516e+03,	 4.8275051652683328e+02,	 3.2443544441408276e+00 
1.5303990000000001e+00,	 2.8034470000000000e-01,	 4.4368879264872055e-02,	 1.5662125299016097e+03,	 -3.7790643262805688e+01,	 5.7793117972883238e+02,	 7.3770804869090935e+03,	 4.8246637313351835e+02,	 3.2472074117509071e+00 
1.5348880000000000e+00,	 2.8029919999999997e-01,	 4.4218208184131677e-02,	 1.5666619631172857e+03,	 -4.0588366809794351e+01,	 5.7714946778613103e+02,	 7.3420844756086390e+03,	 4.8213996978400974e+02,	 3.2504827345333878e+00 
1.5394140000000001e+00,	 2.8025329999999998e-01,	 4.4050077790810743e-02,	 1.5671701536155294e+03,	 -4.3158062909016877e+01,	 5.7627760731973228e+02,	 7.3031187347668210e+03,	 4.8177566411080397e+02,	 3.2541375986266154e+00 
1.5439780000000001e+00,	 2.8020699999999998e-01,	 4.3866494572986983e-02,	 1.5677341403647993e+03,	 -4.5496554360192846e+01,	 5.7532290867591382e+02,	 7.2606338439370948e+03,	 4.8137642837683762e+02,	 3.2581449301885970e+00 
1.5485800000000001e+00,	 2.8016029999999997e-01,	 4.3669396353714515e-02,	 1.5683504099096467e+03,	 -4.7599207230874825e+01,	 5.7429218976921015e+02,	 7.2150614810959978e+03,	 4.8094503045825553e+02,	 3.2624779523596725e+00 
1.5532210000000000e+00,	 2.8011330000000001e-01,	 4.3460716153895212e-02,	 1.5690148621903545e+03,	 -4.9456725492362480e+01,	 5.7319445415598614e+02,	 7.1668579341565219e+03,	 4.8048515739398619e+02,	 3.2671022282684739e+00 
1.5579000000000001e+00,	 2.8006579999999998e-01,	 4.3241675647815586e-02,	 1.5697177254204539e+03,	 -5.1057046650330747e+01,	 5.7204595721068040e+02,	 7.1164495189296058e+03,	 4.8000354732776105e+02,	 3.2719505137941756e+00 
1.5626180000000001e+00,	 2.8001789999999999e-01,	 4.3016232724987481e-02,	 1.5704558102485544e+03,	 -5.2389957640793916e+01,	 5.7085425376099647e+02,	 7.0645995957113764e+03,	 4.7950330770536971e+02,	 3.2769939206436618e+00 
1.5673760000000001e+00,	 2.7996969999999999e-01,	 4.2786688717724994e-02,	 1.5712206281780595e+03,	 -5.3437831394853831e+01,	 5.6963451021963124e+02,	 7.0118869792575933e+03,	 4.7899075672031984e+02,	 3.2821699882951716e+00 
1.5721740000000000e+00,	 2.7992099999999998e-01,	 4.2555669732495818e-02,	 1.5719988396844269e+03,	 -5.4179256120406855e+01,	 5.6840881236814971e+02,	 6.9590213618959478e+03,	 4.7847515058192369e+02,	 3.2873853744662997e+00 
1.5770120000000001e+00,	 2.7987190000000001e-01,	 4.2327916817255326e-02,	 1.5727827979238978e+03,	 -5.4592229024163089e+01,	 5.6719391609977163e+02,	 6.9069831471459402e+03,	 4.7796353939135088e+02,	 3.2925732768931431e+00 
1.5818900000000000e+00,	 2.7982239999999997e-01,	 4.2107529509828510e-02,	 1.5735547189589461e+03,	 -5.4642916779301672e+01,	 5.6601945967140273e+02,	 6.8567933608087687e+03,	 4.7746843690150325e+02,	 3.2976068581851483e+00 
1.5868100000000001e+00,	 2.7977249999999998e-01,	 4.1898753072569198e-02,	 1.5743021277219773e+03,	 -5.4303555946395711e+01,	 5.6490044878828076e+02,	 6.8093076371391235e+03,	 4.7699622989412342e+02,	 3.3024127167815029e+00 
1.5917699999999999e+00,	 2.7972219999999998e-01,	 4.1705625636292029e-02,	 1.5750128721474844e+03,	 -5.3550080898336759e+01,	 5.6385846540210525e+02,	 6.7654187551934756e+03,	 4.7655610672353936e+02,	 3.3068990876196183e+00 
1.5967720000000001e+00,	 2.7967149999999996e-01,	 4.1533403647455981e-02,	 1.5756680610634212e+03,	 -5.2343320849951596e+01,	 5.6293198976970280e+02,	 6.7264108314894820e+03,	 4.7616443118706496e+02,	 3.3109092877472093e+00 
1.6018150000000000e+00,	 2.7962029999999999e-01,	 4.1385673205142672e-02,	 1.5762527670424342e+03,	 -5.0652776066921078e+01,	 5.6214070519290271e+02,	 6.6930642759551829e+03,	 4.7582965356202982e+02,	 3.3143508543494229e+00 
1.6069009999999999e+00,	 2.7956870000000000e-01,	 4.1266588811534485e-02,	 1.5767565493257155e+03,	 -4.8460602202781885e+01,	 5.6149996111760549e+02,	 6.6661984548481241e+03,	 4.7555839410930298e+02,	 3.3171553606573445e+00 
1.6120300000000001e+00,	 2.7951670000000001e-01,	 4.1177701919249403e-02,	 1.5771682632119484e+03,	 -4.5759861202106890e+01,	 5.6102459334484251e+02,	 6.6462082097934890e+03,	 4.7535704680972492e+02,	 3.3192564852620441e+00 
1.6172010000000001e+00,	 2.7946420000000000e-01,	 4.1119348320023508e-02,	 1.5774827170475701e+03,	 -4.2565435527411488e+01,	 5.6071857302124636e+02,	 6.6331696098610391e+03,	 4.7522738336756498e+02,	 3.3206354312022235e+00 
1.6224160000000001e+00,	 2.7941129999999997e-01,	 4.1090861794730899e-02,	 1.5777032862308488e+03,	 -3.8912643275843507e+01,	 5.6057115629167538e+02,	 6.6268316073881388e+03,	 4.7516490900411827e+02,	 3.3213376160038504e+00 
1.6276740000000001e+00,	 2.7935800000000000e-01,	 4.1087946715301388e-02,	 1.5778379765816389e+03,	 -3.4861453401625013e+01,	 5.6056392897316027e+02,	 6.6262760526473958e+03,	 4.7516184589680790e+02,	 3.3214431365698553e+00 
1.6329769999999999e+00,	 2.7930420000000000e-01,	 4.1103881217040839e-02,	 1.5779054411329485e+03,	 -3.0504123280877849e+01,	 5.6066032226326502e+02,	 6.6299856997720426e+03,	 4.7520269801236577e+02,	 3.3211096519035572e+00 
1.6383230000000000e+00,	 2.7925000000000000e-01,	 4.1131740489168414e-02,	 1.5779350603059929e+03,	 -2.5940170076864497e+01,	 5.6081861607212409e+02,	 6.6363524957775317e+03,	 4.7526977636033587e+02,	 3.3205315037906491e+00 
1.6437150000000000e+00,	 2.7919529999999998e-01,	 4.1162462111031028e-02,	 1.5779339017442012e+03,	 -2.1280052031977519e+01,	 5.6099565763979740e+02,	 6.6434057961696717e+03,	 4.7534478801677585e+02,	 3.3198583988567303e+00 
1.6491510000000000e+00,	 2.7914010000000000e-01,	 4.1187691074121582e-02,	 1.5779310050486577e+03,	 -1.6636602217964246e+01,	 5.6114480042653872e+02,	 6.6492448753796461e+03,	 4.7540796990966010e+02,	 3.3192937536729543e+00 
1.6546339999999999e+00,	 2.7908450000000001e-01,	 4.1199369714758696e-02,	 1.5779697035958320e+03,	 -1.2112018650728889e+01,	 5.6122372756343555e+02,	 6.6520657545174226e+03,	 4.7544140269792052e+02,	 3.3190550466458224e+00 
1.6601619999999999e+00,	 2.7902840000000001e-01,	 4.1191017546685006e-02,	 1.5780631425562710e+03,	 -7.7916880766118677e+00,	 5.6119784196737749e+02,	 6.6504104560361220e+03,	 4.7543043806348885e+02,	 3.3192708161471836e+00 
1.6657360000000001e+00,	 2.7897189999999999e-01,	 4.1158979362655584e-02,	 1.5782323658941968e+03,	 -3.7427259793901722e+00,	 5.6103824404385000e+02,	 6.6433479715777739e+03,	 4.7536282990423865e+02,	 3.3200677555741431e+00 
1.6713570000000000e+00,	 2.7891489999999997e-01,	 4.1100170210729148e-02,	 1.5784863025741101e+03,	 -9.7724794010699556e-03,	 5.6073338526336693e+02,	 6.6302510358929858e+03,	 4.7523366025664654e+02,	 3.3214951604057483e+00 
1.6770250000000000e+00,	 2.7885739999999998e-01,	 4.1014278070487242e-02,	 1.5788301579070321e+03,	 3.3773360903196918e+00,	 5.6027873430968361e+02,	 6.6110303039511718e+03,	 4.7504095793361000e+02,	 3.3235739862626237e+00 
1.6827410000000000e+00,	 2.7879939999999998e-01,	 4.0902027568246249e-02,	 1.5792629842387767e+03,	 6.4038565402318461e+00,	 5.5967894400455771e+02,	 6.5858789338070910e+03,	 4.7478661912057345e+02,	 3.3262857551009652e+00 
1.6885049999999999e+00,	 2.7874090000000001e-01,	 4.0765783671762340e-02,	 1.5797802141771654e+03,	 9.0626245261575349e+00,	 5.5894392517163192e+02,	 6.5553211569051600e+03,	 4.7447475125199639e+02,	 3.3295896236524629e+00 
1.6943170000000001e+00,	 2.7868199999999999e-01,	 4.0608381792155299e-02,	 1.5803732450045186e+03,	 1.1353784236972832e+01,	 5.5809013794164332e+02,	 6.5200356324157938e+03,	 4.7411223250780688e+02,	 3.3334175334116933e+00 
1.7001770000000000e+00,	 2.7862250000000000e-01,	 4.0433217723683933e-02,	 1.5810290242670603e+03,	 1.3277316192010030e+01,	 5.5713919100148951e+02,	 6.4808497211132635e+03,	 4.7370813309214145e+02,	 3.3376770707294243e+00 
1.7060869999999999e+00,	 2.7856259999999999e-01,	 4.0245060575165026e-02,	 1.5817374418220420e+03,	 1.4830980214322615e+01,	 5.5611019572829548e+02,	 6.4387769458742914e+03,	 4.7327047880945844e+02,	 3.3422895397318602e+00 
1.7120460000000000e+00,	 2.7850209999999997e-01,	 4.0047582938084920e-02,	 1.5824812155280974e+03,	 1.6012224062286116e+01,	 5.5503026820011246e+02,	 6.3947403419246266e+03,	 4.7281072623466349e+02,	 3.3471368878095848e+00 
1.7180550000000001e+00,	 2.7844120000000000e-01,	 3.9846247891405007e-02,	 1.5832479435506109e+03,	 1.6811351045096938e+01,	 5.5392169941053862e+02,	 6.3498833695012254e+03,	 4.7233831488555029e+02,	 3.3521252560982857e+00 
1.7241139999999999e+00,	 2.7837970000000001e-01,	 3.9644904395500488e-02,	 1.5840181735845426e+03,	 1.7224965709123126e+01,	 5.5281487914755667e+02,	 6.3051734190126917e+03,	 4.7186617682425555e+02,	 3.3571209437607026e+00 
1.7302249999999999e+00,	 2.7831770000000000e-01,	 3.9449233897319219e-02,	 1.5847778815474940e+03,	 1.7210429427542500e+01,	 5.5173393492616447e+02,	 6.2617858026487847e+03,	 4.7140462032782671e+02,	 3.3620190844100430e+00 
1.7363860000000000e+00,	 2.7825519999999998e-01,	 3.9263602145217694e-02,	 1.5855096906392268e+03,	 1.6782356328687591e+01,	 5.5070600720059849e+02,	 6.2207090842840635e+03,	 4.7096528194583755e+02,	 3.3666993474031255e+00 
1.7425990000000000e+00,	 2.7819220000000000e-01,	 3.9092304511806508e-02,	 1.5861972424122548e+03,	 1.5907562728806266e+01,	 5.4975772709531020e+02,	 6.1829047036914408e+03,	 4.7055962137186049e+02,	 3.3710436144148050e+00 
1.7488640000000000e+00,	 2.7812860000000000e-01,	 3.8939494261630729e-02,	 1.5868262459064226e+03,	 1.4571764038979088e+01,	 5.4891181732935684e+02,	 6.1492595576117264e+03,	 4.7019745800671899e+02,	 3.3749505095071934e+00 
1.7551820000000000e+00,	 2.7806460000000000e-01,	 3.8808349212474731e-02,	 1.5873864039347638e+03,	 1.2770036331495987e+01,	 5.4818485592352783e+02,	 6.1204328951950592e+03,	 4.6988599754834570e+02,	 3.3783466136411251e+00 
1.7615529999999999e+00,	 2.7799989999999997e-01,	 3.8699991742898197e-02,	 1.5878669495193701e+03,	 1.0510260120332340e+01,	 5.4759135046995357e+02,	 6.0967359962523824e+03,	 4.6963156200166941e+02,	 3.3811648574786299e+00 
1.7679769999999999e+00,	 2.7793479999999998e-01,	 3.8615832323737234e-02,	 1.5882703396012676e+03,	 7.8112059413715649e+00,	 5.4712747256901025e+02,	 6.0783241920452838e+03,	 4.6943260171912721e+02,	 3.3834240349972227e+00 
1.7744549999999999e+00,	 2.7786909999999998e-01,	 3.8553088365689082e-02,	 1.5885962526624830e+03,	 4.7179344047713379e+00,	 5.4679051645020547e+02,	 6.0647106420796035e+03,	 4.6928802613389996e+02,	 3.3851348639238821e+00 
1.7809870000000001e+00,	 2.7780280000000002e-01,	 3.8509398091722769e-02,	 1.5888562813303893e+03,	 1.2947024225134911e+00,	 5.4656026746227781e+02,	 6.0552869051930184e+03,	 4.6918920906659946e+02,	 3.3863882163756820e+00 
1.7875740000000000e+00,	 2.7773599999999998e-01,	 3.8479756638992377e-02,	 1.5890684038392551e+03,	 -2.3820402593794126e+00,	 5.4640671740634571e+02,	 6.0489261735461878e+03,	 4.6912329768016309e+02,	 3.3873188499814062e+00 
1.7942160000000000e+00,	 2.7766859999999999e-01,	 3.8456580755486164e-02,	 1.5892547901394141e+03,	 -6.2276126505255309e+00,	 5.4629253250425973e+02,	 6.0440196716865130e+03,	 4.6907427778809614e+02,	 3.3880923918222745e+00 
1.8009139999999999e+00,	 2.7760059999999998e-01,	 3.8433680622117772e-02,	 1.5894395636944823e+03,	 -1.0134560276845292e+01,	 5.4617747490583565e+02,	 6.0391483721365921e+03,	 4.6902487806292152e+02,	 3.3888860647325951e+00 
1.8076690000000000e+00,	 2.7753210000000000e-01,	 3.8405063001422504e-02,	 1.5896446990498926e+03,	 -1.3999191045117414e+01,	 5.4602721030007478e+02,	 6.0329913814225401e+03,	 4.6896035445129934e+02,	 3.3898523076364082e+00 
1.8144790000000000e+00,	 2.7746300000000002e-01,	 3.8364306029313636e-02,	 1.5898929394153329e+03,	 -1.7738363830500191e+01,	 5.4580569766944541e+02,	 6.0241440622705322e+03,	 4.6886522074958748e+02,	 3.3911491384600514e+00 
1.8213470000000000e+00,	 2.7739340000000001e-01,	 3.8306727700658960e-02,	 1.5902043056420389e+03,	 -2.1277707893892064e+01,	 5.4548336073518453e+02,	 6.0115504974685882e+03,	 4.6872675123681177e+02,	 3.3929078042175989e+00 
1.8282730000000000e+00,	 2.7732309999999999e-01,	 3.8228606240042470e-02,	 1.5905890097919882e+03,	 -2.4559150193466699e+01,	 5.4504418490797468e+02,	 5.9944606343630403e+03,	 4.6853802420675913e+02,	 3.3951963692706224e+00 
1.8352569999999999e+00,	 2.7725230000000001e-01,	 3.8128711993882132e-02,	 1.5910567811379324e+03,	 -2.7543262368726168e+01,	 5.4447566621792362e+02,	 5.9725603568780361e+03,	 4.6829360170979004e+02,	 3.3980715566427127e+00 
1.8422989999999999e+00,	 2.7718080000000000e-01,	 3.7991592861154694e-02,	 1.5916639902598104e+03,	 -3.0399184908066864e+01,	 5.4369646568155383e+02,	 5.9425651236665926e+03,	 4.6795839364431617e+02,	 3.4019141068426246e+00 
1.8493999999999999e+00,	 2.7710879999999999e-01,	 3.7886963995013137e-02,	 1.5920463518401891e+03,	 -3.2214097449430923e+01,	 5.4309602211704828e+02,	 5.9196545632287853e+03,	 4.6769992201178655e+02,	 3.4046878349926457e+00 
1.3750840000000000e+00,	 2.8275859999999997e-01,	 4.7480068998172191e-02,	 1.5572202835701878e+03,	 -8.3243541739310096e+00,	 5.9273162704971719e+02,	 8.0965383979748894e+03,	 4.8860514646383621e+02,	 3.1871185643912989e+00 
1.3782779999999999e+00,	 2.8272749999999996e-01,	 4.7411002201214511e-02,	 1.5573860705805637e+03,	 -5.8026812597788400e+00,	 5.9241361719472877e+02,	 8.0804231814426785e+03,	 4.8847405669960170e+02,	 3.1882898576056693e+00 
1.3814979999999999e+00,	 2.8269620000000001e-01,	 4.7321133246899752e-02,	 1.5576578028583369e+03,	 -2.0030284260552680e+00,	 5.9201305655766623e+02,	 8.0596532766842147e+03,	 4.8830888783841601e+02,	 3.1899052618589256e+00 
1.3847460000000000e+00,	 2.8266459999999999e-01,	 4.7219832190631680e-02,	 1.5579553044380636e+03,	 1.7143263922557099e+00,	 5.9156965961115247e+02,	 8.0363763821327275e+03,	 4.8812599049934528e+02,	 3.1917092676015710e+00 
1.3880200000000000e+00,	 2.8263279999999996e-01,	 4.7100425514670724e-02,	 1.5582962148660390e+03,	 5.2599860191429357e+00,	 5.9104141589462995e+02,	 8.0088965187686008e+03,	 4.8790800511865103e+02,	 3.1938502257836001e+00 
1.3913210000000000e+00,	 2.8260069999999998e-01,	 4.6966239178515577e-02,	 1.5586702630202337e+03,	 8.6618705722364115e+00,	 5.9044662868891055e+02,	 7.9780429523366411e+03,	 4.8766244323574267e+02,	 3.1962566574617544e+00 
1.3946499999999999e+00,	 2.8256840000000000e-01,	 4.6822000226637614e-02,	 1.5590684810826522e+03,	 1.1949698630106356e+01,	 5.8980434708939049e+02,	 7.9448896475790261e+03,	 4.8739713404128349e+02,	 3.1988581109445748e+00 
1.3980060000000001e+00,	 2.8253570000000000e-01,	 4.6669860443566691e-02,	 1.5594829285528344e+03,	 1.5137449338476063e+01,	 5.8912816821250749e+02,	 7.9099953467293371e+03,	 4.8711766665486408e+02,	 3.2016009703599937e+00 
1.4013910000000001e+00,	 2.8250280000000000e-01,	 4.6511814371909405e-02,	 1.5599133469665476e+03,	 1.8222652333180321e+01,	 5.8841978153335504e+02,	 7.8737293629904661e+03,	 4.8682471558123370e+02,	 3.2044794161561674e+00 
1.4048030000000000e+00,	 2.8246969999999999e-01,	 4.6348493668948623e-02,	 1.5603592399717304e+03,	 2.1192451595479785e+01,	 5.8767897529966717e+02,	 7.8362036724545715e+03,	 4.8651816881226301e+02,	 3.2074920299963803e+00 
1.4082440000000001e+00,	 2.8243619999999997e-01,	 4.6180747534286810e-02,	 1.5608202096043608e+03,	 2.4033533688920944e+01,	 5.8690633972330443e+02,	 7.7975774453491158e+03,	 4.8619824510012967e+02,	 3.2106352680844195e+00 
1.4117139999999999e+00,	 2.8240250000000000e-01,	 4.6009194770926756e-02,	 1.5612970896615991e+03,	 2.6725274898003704e+01,	 5.8610231199243276e+02,	 7.7579683689303574e+03,	 4.8586509922961011e+02,	 3.2139081575934711e+00 
1.4152130000000001e+00,	 2.8236849999999997e-01,	 4.5834370012148726e-02,	 1.5617899337585204e+03,	 2.9240969235632939e+01,	 5.8526867094634270e+02,	 7.7174972092095477e+03,	 4.8551944181650833e+02,	 3.2173040059874238e+00 
1.4187399999999999e+00,	 2.8233419999999998e-01,	 4.5657269783011697e-02,	 1.5622976419914046e+03,	 3.1549524976874135e+01,	 5.8440953345977459e+02,	 7.6763924103981608e+03,	 4.8516295498791555e+02,	 3.2208068524600915e+00 
1.4222969999999999e+00,	 2.8229959999999998e-01,	 4.5479367026945904e-02,	 1.5628167817861722e+03,	 3.3615324847011337e+01,	 5.8353344407157704e+02,	 7.6350186269303413e+03,	 4.8479916426545958e+02,	 3.2243831646745011e+00 
1.4258839999999999e+00,	 2.8226469999999998e-01,	 4.5302659476620030e-02,	 1.5633411264823501e+03,	 3.5399341412988875e+01,	 5.8265231896537830e+02,	 7.5938692389921252e+03,	 4.8443300693927017e+02,	 3.2279837113779295e+00 
1.4295000000000000e+00,	 2.8222959999999997e-01,	 4.5130311628482786e-02,	 1.5638644820814695e+03,	 3.6856564298517632e+01,	 5.8178028878067676e+02,	 7.5536572162780622e+03,	 4.8407035637469835e+02,	 3.2315524219707461e+00 
1.4331469999999999e+00,	 2.8219410000000000e-01,	 4.4965138098936139e-02,	 1.5643745977050849e+03,	 3.7941199553330335e+01,	 5.8093869069356663e+02,	 7.5151243419743068e+03,	 4.8372010376807600e+02,	 3.2350001931992360e+00 
1.4368240000000001e+00,	 2.8215839999999998e-01,	 4.4811476667531686e-02,	 1.5648596874197876e+03,	 3.8606432760512597e+01,	 5.8014805369189958e+02,	 7.4792496961204479e+03,	 4.8339082872455293e+02,	 3.2382406717112837e+00 
1.4405310000000000e+00,	 2.8212229999999999e-01,	 4.4673662305910515e-02,	 1.5653064991017613e+03,	 3.8803638874185374e+01,	 5.7943345435727736e+02,	 7.4470635617206317e+03,	 4.8309302784483651e+02,	 3.2411715803224372e+00 
1.4442699999999999e+00,	 2.8208600000000000e-01,	 4.4555547934514834e-02,	 1.5656992265190654e+03,	 3.8489715928840425e+01,	 5.7882030867196659e+02,	 7.4195144822750572e+03,	 4.8283736017073983e+02,	 3.2436848972791497e+00 
1.4480390000000001e+00,	 2.8204940000000001e-01,	 4.4461937210667414e-02,	 1.5660257999136629e+03,	 3.7624641453194293e+01,	 5.7832839823647305e+02,	 7.3976339360718930e+03,	 4.8263214689767528e+02,	 3.2456969997840091e+00 
1.4518409999999999e+00,	 2.8201240000000000e-01,	 4.4395936414232902e-02,	 1.5662702757880315e+03,	 3.6180635501242477e+01,	 5.7798216832712353e+02,	 7.3822304457282798e+03,	 4.8248765572076996e+02,	 3.2471050511241022e+00 
1.4556730000000000e+00,	 2.8197509999999998e-01,	 4.4360533669025336e-02,	 1.5664262199966340e+03,	 3.4148090939185536e+01,	 5.7779325122029218e+02,	 7.3739326138307733e+03,	 4.8240879721399830e+02,	 3.2478644647796804e+00 
1.4595380000000000e+00,	 2.8193760000000001e-01,	 4.4355864523008978e-02,	 1.5664856093210931e+03,	 3.1532252778504905e+01,	 5.7776822502538107e+02,	 7.3728371176673672e+03,	 4.8239834971630563e+02,	 3.2479442334925701e+00 
1.4634350000000000e+00,	 2.8189969999999998e-01,	 4.4381164884015736e-02,	 1.5664492344150083e+03,	 2.8357666982538451e+01,	 5.7790338746723558e+02,	 7.3787683236549210e+03,	 4.8245477227745357e+02,	 3.2473632451719143e+00 
1.4673639999999999e+00,	 2.8186149999999999e-01,	 4.4433940328169622e-02,	 1.5663258977904065e+03,	 2.4679701197925169e+01,	 5.7818004554302843e+02,	 7.3910793342059724e+03,	 4.8257024057297025e+02,	 3.2462016634748956e+00 
1.4713270000000001e+00,	 2.8182299999999999e-01,	 4.4508270389972529e-02,	 1.5661283605324340e+03,	 2.0573856166487595e+01,	 5.7857255273718215e+02,	 7.4084692437734329e+03,	 4.8273401322220877e+02,	 3.2445683310733777e+00 
1.4753220000000000e+00,	 2.8178409999999998e-01,	 4.4597204242909638e-02,	 1.5658755052778242e+03,	 1.6137468787994464e+01,	 5.7904335613341505e+02,	 7.4293129781333191e+03,	 4.8293038150463076e+02,	 3.2426178122797298e+00 
1.4793510000000001e+00,	 2.8174499999999997e-01,	 4.4693163186155439e-02,	 1.5655935378996357e+03,	 1.1474329873530744e+01,	 5.7954754603425215e+02,	 7.4517813254738703e+03,	 4.8314058652510943e+02,	 3.2405383216195061e+00 
1.4834130000000001e+00,	 2.8170550000000000e-01,	 4.4787234905300941e-02,	 1.5653063886327800e+03,	 6.6901395739250571e+00,	 5.8004368584011388e+02,	 7.4738588510629297e+03,	 4.8334734609004050e+02,	 3.2385006312769749e+00 
1.4875090000000000e+00,	 2.8166569999999996e-01,	 4.4871813201560959e-02,	 1.5650379015594970e+03,	 1.8837508804861511e+00,	 5.8049132644417602e+02,	 7.4937515718613477e+03,	 4.8353381839809026e+02,	 3.2366692373826207e+00 
1.4916389999999999e+00,	 2.8162549999999997e-01,	 4.4940471289741060e-02,	 1.5648096943390692e+03,	 -2.8612995675094877e+00,	 5.8085567968250791e+02,	 7.5099284670028010e+03,	 4.8368554286686094e+02,	 3.2351852012081359e+00 
1.4958039999999999e+00,	 2.8158499999999997e-01,	 4.4988322089918500e-02,	 1.5646387263100626e+03,	 -7.4807784468957834e+00,	 5.8111144933338642e+02,	 7.5212351225757538e+03,	 4.8379202238590909e+02,	 3.2341513236777910e+00 