TITLE = "Final State"
VARIABLES = "X", "Y", "rho", "u", "v", "T", "p", "c", "M"
ZONE I=77, J=25, DATAPACKING=POINT, STRANDID=2000, SOLUTIONTIME=0.000048
-5.0000000000000000e-01,	 1.5710879999999999e-01,	 1.1586407740522196e-02,	 1.7360000000000000e+03,	 -2.3044555861178320e-12,	 3.0000000000000000e+02,	 9.9999999999999977e+02,	 3.4760788074254771e+02,	 4.9941330337264445e+00 
-4.9499440000000000e-01,	 1.5710879999999999e-01,	 1.1586407740522199e-02,	 1.7360000000000000e+03,	 -1.0539163270819580e-12,	 3.0000000000000000e+02,	 1.0000000000000000e+03,	 3.4760788074254771e+02,	 4.9941330337264445e+00 
-4.8998870000000000e-01,	 1.5710879999999999e-01,	 1.1586407740522203e-02,	 1.7360000000000000e+03,	 9.8487763788186950e-14,	 3.0000000000000000e+02,	 1.0000000000000005e+03,	 3.4760788074254771e+02,	 4.9941330337264445e+00 
-4.8498310000000000e-01,	 1.5710879999999999e-01,	 1.1586407740522199e-02,	 1.7360000000000000e+03,	 1.9585539804132674e-13,	 3.0000000000000000e+02,	 1.0000000000000000e+03,	 3.4760788074254771e+02,	 4.9941330337264445e+00 
-4.7997750000000000e-01,	 1.5710879999999999e-01,	 1.1586407740522199e-02,	 1.7360000000000000e+03,	 1.9365117516064579e-13,	 3.0000000000000000e+02,	 1.0000000000000000e+03,	 3.4760788074254771e+02,	 4.9941330337264445e+00 
-4.7497190000000000e-01,	 1.5710879999999999e-01,	 1.1586407740522199e-02,	 1.7360000000000000e+03,	 9.4169432305376152e-14,	 3.0000000000000000e+02,	 1.0000000000000000e+03,	 3.4760788074254771e+02,	 4.9941330337264445e+00 
-4.6996620000000000e-01,	 1.5710879999999999e-01,	 1.1586407740522199e-02,	 1.7360000000000000e+03,	 1.1155246802067596e-13,	 3.0000000000000000e+02,	 1.0000000000000000e+03,	 3.4760788074254771e+02,	 4.9941330337264445e+00 
-4.6496060000000000e-01,	 1.5710879999999999e-01,	 1.1586407740522199e-02,	 1.7360000000000000e+03,	 2.9905192915115326e-14,	 3.0000000000000000e+02,	 1.0000000000000000e+03,	 3.4760788074254771e+02,	 4.9941330337264445e+00 
-4.5995500000000000e-01,	 1.5710879999999999e-01,	 1.1586407740522199e-02,	 1.7360000000000000e+03,	 7.3041015719375295e-14,	 3.0000000000000000e+02,	 1.0000000000000000e+03,	 3.4760788074254771e+02,	 4.9941330337264445e+00 
-4.5494940000000000e-01,	 1.5710879999999999e-01,	 1.1586407740522199e-02,	 1.7360000000000000e+03,	 1.2810089336006019e-13,	 3.0000000000000000e+02,	 1.0000000000000000e+03,	 3.4760788074254771e+02,	 4.9941330337264445e+00 
-4.4994370000000000e-01,	 1.5710879999999999e-01,	 1.1586407740522199e-02,	 1.7360000000000000e+03,	 5.8227836459510019e-14,	 3.0000000000000000e+02,	 1.0000000000000000e+03,	 3.4760788074254771e+02,	 4.9941330337264445e+00 
-4.4493810000000000e-01,	 1.5710879999999999e-01,	 1.1586407740522199e-02,	 1.7360000000000000e+03,	 4.9815382478489736e-14,	 3.0000000000000000e+02,	 1.0000000000000000e+03,	 3.4760788074254771e+02,	 4.9941330337264445e+00 
-4.3993250000000000e-01,	 1.5710879999999999e-01,	 1.1586407740522199e-02,	 1.7360000000000000e+03,	 1.1537533761394734e-14,	 3.0000000000000000e+02,	 1.0000000000000000e+03,	 3.4760788074254771e+02,	 4.9941330337264445e+00 
-4.3492690000000001e-01,	 1.5710879999999999e-01,	 1.1586407740522199e-02,	 1.7360000000000000e+03,	 -5.9907223234453824e-14,	 3.0000000000000000e+02,	 1.0000000000000000e+03,	 3.4760788074254771e+02,	 4.9941330337264445e+00 
-4.2992120000000000e-01,	 1.5710879999999999e-01,	 1.1586407740522199e-02,	 1.7360000000000000e+03,	 -8.3306060942987618e-14,	 3.0000000000000000e+02,	 1.0000000000000000e+03,	 3.4760788074254771e+02,	 4.9941330337264445e+00 
-4.2491560000000000e-01,	 1.5710879999999999e-01,	 1.1586407740522199e-02,	 1.7360000000000000e+03,	 -1.0355763944724860e-13,	 3.0000000000000000e+02,	 1.0000000000000000e+03,	 3.4760788074254771e+02,	 4.9941330337264445e+00 
-4.1991000000000001e-01,	 1.5710879999999999e-01,	 1.1586407740522199e-02,	 1.7360000000000000e+03,	 -6.9771398885855080e-14,	 3.0000000000000000e+02,	 1.0000000000000000e+03,	 3.4760788074254771e+02,	 4.9941330337264445e+00 
-4.1490430000000000e-01,	 1.5710879999999999e-01,	 1.1586407740522199e-02,	 1.7360000000000000e+03,	 -5.1582944773962901e-14,	 3.0000000000000000e+02,	 1.0000000000000000e+03,	 3.4760788074254771e+02,	 4.9941330337264445e+00 
-4.0989870000000000e-01,	 1.5710879999999999e-01,	 1.1586407740522199e-02,	 1.7360000000000000e+03,	 -9.2439346731696017e-14,	 3.0000000000000000e+02,	 1.0000000000000000e+03,	 3.4760788074254771e+02,	 4.9941330337264445e+00 
-4.0489310000000001e-01,	 1.5710879999999999e-01,	 1.1586407740522199e-02,	 1.7360000000000000e+03,	 -1.2759090175144388e-13,	 3.0000000000000000e+02,	 1.0000000000000000e+03,	 3.4760788074254771e+02,	 4.9941330337264445e+00 
-3.9988750000000001e-01,	 1.5710879999999999e-01,	 1.1586407740522199e-02,	 1.7360000000000000e+03,	 -1.1941985485217420e-13,	 3.0000000000000000e+02,	 1.0000000000000000e+03,	 3.4760788074254771e+02,	 4.9941330337264445e+00 
-3.9488180000000001e-01,	 1.5710879999999999e-01,	 1.1586407740522199e-02,	 1.7360000000000000e+03,	 -5.4976995704244909e-14,	 3.0000000000000000e+02,	 1.0000000000000000e+03,	 3.4760788074254771e+02,	 4.9941330337264445e+00 
-3.8987620000000001e-01,	 1.5710879999999999e-01,	 1.1586407740522199e-02,	 1.7360000000000000e+03,	 -2.3093523474595784e-14,	 3.0000000000000000e+02,	 1.0000000000000000e+03,	 3.4760788074254771e+02,	 4.9941330337264445e+00 
-3.8487060000000001e-01,	 1.5710879999999999e-01,	 1.1586407740522199e-02,	 1.7360000000000000e+03,	 -4.4004355464124566e-14,	 3.0000000000000000e+02,	 1.0000000000000000e+03,	 3.4760788074254771e+02,	 4.9941330337264445e+00 
-3.7986500000000001e-01,	 1.5710879999999999e-01,	 1.1586407740522199e-02,	 1.7360000000000000e+03,	 -2.7098999406484263e-14,	 3.0000000000000000e+02,	 1.0000000000000000e+03,	 3.4760788074254771e+02,	 4.9941330337264445e+00 
-3.7485930000000001e-01,	 1.5710879999999999e-01,	 1.1586407740522199e-02,	 1.7360000000000000e+03,	 -2.3121832939821526e-14,	 3.0000000000000000e+02,	 1.0000000000000000e+03,	 3.4760788074254771e+02,	 4.9941330337264445e+00 
-3.6985370000000001e-01,	 1.5710879999999999e-01,	 1.1586407740522199e-02,	 1.7360000000000000e+03,	 -6.0784762235373635e-15,	 3.0000000000000000e+02,	 1.0000000000000000e+03,	 3.4760788074254771e+02,	 4.9941330337264445e+00 
-3.6484810000000001e-01,	 1.5710879999999999e-01,	 1.1586407740522199e-02,	 1.7360000000000000e+03,	 9.6572170176570919e-15,	 3.0000000000000000e+02,	 1.0000000000000000e+03,	 3.4760788074254771e+02,	 4.9941330337264445e+00 
-3.5984250000000001e-01,	 1.5710879999999999e-01,	 1.1586407740522199e-02,	 1.7360000000000000e+03,	 1.4679504096808407e-15,	 3.0000000000000000e+02,	 1.0000000000000000e+03,	 3.4760788074254771e+02,	 4.9941330337264445e+00 
-3.5483680000000001e-01,	 1.5710879999999999e-01,	 1.1586407740522199e-02,	 1.7360000000000000e+03,	 -5.7834802911291106e-15,	 3.0000000000000000e+02,	 1.0000000000000000e+03,	 3.4760788074254771e+02,	 4.9941330337264445e+00 
-3.4983120000000001e-01,	 1.5710879999999999e-01,	 1.1586407740522199e-02,	 1.7360000000000000e+03,	 1.2705036306386145e-14,	 3.0000000000000000e+02,	 1.0000000000000000e+03,	 3.4760788074254771e+02,	 4.9941330337264445e+00 
-3.4482560000000001e-01,	 1.5710879999999999e-01,	 1.1586407740522199e-02,	 1.7360000000000000e+03,	 1.2045392109185838e-14,	 3.0000000000000000e+02,	 1.0000000000000000e+03,	 3.4760788074254771e+02,	 4.9941330337264445e+00 
-3.3981990000000001e-01,	 1.5710879999999999e-01,	 1.1586407740522199e-02,	 1.7360000000000000e+03,	 -3.5807021724931259e-15,	 3.0000000000000000e+02,	 1.0000000000000000e+03,	 3.4760788074254771e+02,	 4.9941330337264445e+00 
-3.3481430000000001e-01,	 1.5710879999999999e-01,	 1.1586407740522199e-02,	 1.7360000000000000e+03,	 1.4640835717819644e-14,	 3.0000000000000000e+02,	 1.0000000000000000e+03,	 3.4760788074254771e+02,	 4.9941330337264445e+00 
-3.2980870000000001e-01,	 1.5710879999999999e-01,	 1.1586407740522199e-02,	 1.7360000000000000e+03,	 2.6210576059590764e-14,	 3.0000000000000000e+02,	 1.0000000000000000e+03,	 3.4760788074254771e+02,	 4.9941330337264445e+00 
-3.2480310000000001e-01,	 1.5710879999999999e-01,	 1.1586407740522199e-02,	 1.7360000000000000e+03,	 8.6367659025335168e-15,	 3.0000000000000000e+02,	 1.0000000000000000e+03,	 3.4760788074254771e+02,	 4.9941330337264445e+00 
-3.1979740000000001e-01,	 1.5710879999999999e-01,	 1.1586407740522199e-02,	 1.7360000000000000e+03,	 1.0483029752100797e-14,	 3.0000000000000000e+02,	 1.0000000000000000e+03,	 3.4760788074254771e+02,	 4.9941330337264445e+00 
-3.1479180000000001e-01,	 1.5710879999999999e-01,	 1.1586407740522199e-02,	 1.7360000000000000e+03,	 1.0282304282504635e-14,	 3.0000000000000000e+02,	 1.0000000000000000e+03,	 3.4760788074254771e+02,	 4.9941330337264445e+00 
-3.0978620000000001e-01,	 1.5710879999999999e-01,	 1.1586407740522199e-02,	 1.7360000000000000e+03,	 -5.1261396978741557e-15,	 3.0000000000000000e+02,	 1.0000000000000000e+03,	 3.4760788074254771e+02,	 4.9941330337264445e+00 
-3.0478060000000001e-01,	 1.5710879999999999e-01,	 1.1586407740522199e-02,	 1.7360000000000000e+03,	 -4.6108658195464388e-15,	 3.0000000000000000e+02,	 1.0000000000000000e+03,	 3.4760788074254771e+02,	 4.9941330337264445e+00 
-2.9977490000000001e-01,	 1.5710879999999999e-01,	 1.1586407740522199e-02,	 1.7360000000000000e+03,	 1.0696430023628044e-14,	 3.0000000000000000e+02,	 1.0000000000000000e+03,	 3.4760788074254771e+02,	 4.9941330337264445e+00 
-2.9476930000000001e-01,	 1.5710879999999999e-01,	 1.1586407740522199e-02,	 1.7360000000000000e+03,	 8.2837505519803064e-15,	 3.0000000000000000e+02,	 1.0000000000000000e+03,	 3.4760788074254771e+02,	 4.9941330337264445e+00 
-2.8976370000000001e-01,	 1.5710879999999999e-01,	 1.1586407740522199e-02,	 1.7360000000000000e+03,	 9.0982246470694824e-15,	 3.0000000000000000e+02,	 1.0000000000000000e+03,	 3.4760788074254771e+02,	 4.9941330337264445e+00 
-2.8475810000000001e-01,	 1.5710879999999999e-01,	 1.1586407740522199e-02,	 1.7360000000000000e+03,	 1.0424847282782266e-14,	 3.0000000000000000e+02,	 1.0000000000000000e+03,	 3.4760788074254771e+02,	 4.9941330337264445e+00 
-2.7975240000000001e-01,	 1.5710879999999999e-01,	 1.1586407740522199e-02,	 1.7360000000000000e+03,	 1.1444529709413556e-14,	 3.0000000000000000e+02,	 1.0000000000000000e+03,	 3.4760788074254771e+02,	 4.9941330337264445e+00 
-2.7474680000000001e-01,	 1.5710879999999999e-01,	 1.1586407740522199e-02,	 1.7360000000000000e+03,	 2.2096373158527359e-14,	 3.0000000000000000e+02,	 1.0000000000000000e+03,	 3.4760788074254771e+02,	 4.9941330337264445e+00 
-2.6974120000000001e-01,	 1.5710879999999999e-01,	 1.1586407740522199e-02,	 1.7360000000000000e+03,	 8.4475053057654333e-15,	 3.0000000000000000e+02,	 1.0000000000000000e+03,	 3.4760788074254771e+02,	 4.9941330337264445e+00 
-2.6473550000000001e-01,	 1.5710879999999999e-01,	 1.1586407740522199e-02,	 1.7360000000000000e+03,	 8.5468431432478485e-15,	 3.0000000000000000e+02,	 1.0000000000000000e+03,	 3.4760788074254771e+02,	 4.9941330337264445e+00 
-2.5972990000000001e-01,	 1.5710879999999999e-01,	 1.1586407740522199e-02,	 1.7360000000000000e+03,	 7.2027565302120467e-15,	 3.0000000000000000e+02,	 1.0000000000000000e+03,	 3.4760788074254771e+02,	 4.9941330337264445e+00 
-2.5472430000000001e-01,	 1.5710879999999999e-01,	 1.1586407740522199e-02,	 1.7360000000000000e+03,	 -3.8284571582710208e-15,	 3.0000000000000000e+02,	 1.0000000000000000e+03,	 3.4760788074254771e+02,	 4.9941330337264445e+00 
-2.4971869999999999e-01,	 1.5710879999999999e-01,	 1.1586407740522199e-02,	 1.7360000000000000e+03,	 1.0482959979555703e-14,	 3.0000000000000000e+02,	 1.0000000000000000e+03,	 3.4760788074254771e+02,	 4.9941330337264445e+00 
-2.4471300000000001e-01,	 1.5710879999999999e-01,	 1.1586407740522199e-02,	 1.7360000000000000e+03,	 2.0365319765762016e-14,	 3.0000000000000000e+02,	 1.0000000000000000e+03,	 3.4760788074254771e+02,	 4.9941330337264445e+00 
-2.3970739999999999e-01,	 1.5710879999999999e-01,	 1.1586407740522199e-02,	 1.7360000000000000e+03,	 2.0570079263380133e-14,	 3.0000000000000000e+02,	 1.0000000000000000e+03,	 3.4760788074254771e+02,	 4.9941330337264445e+00 
-2.3470179999999999e-01,	 1.5710879999999999e-01,	 1.1586407740522199e-02,	 1.7360000000000000e+03,	 2.1367658409357594e-14,	 3.0000000000000000e+02,	 1.0000000000000000e+03,	 3.4760788074254771e+02,	 4.9941330337264445e+00 
-2.2969619999999999e-01,	 1.5710879999999999e-01,	 1.1586407740522199e-02,	 1.7360000000000000e+03,	 2.0785804668188029e-14,	 3.0000000000000000e+02,	 1.0000000000000000e+03,	 3.4760788074254771e+02,	 4.9941330337264445e+00 
-2.2469049999999999e-01,	 1.5710879999999999e-01,	 1.1586407740522199e-02,	 1.7360000000000000e+03,	 1.9823577096425792e-14,	 3.0000000000000000e+02,	 1.0000000000000000e+03,	 3.4760788074254771e+02,	 4.9941330337264445e+00 
-2.1968489999999999e-01,	 1.5710879999999999e-01,	 1.1586407740522199e-02,	 1.7360000000000000e+03,	 2.1261287970789046e-14,	 3.0000000000000000e+02,	 1.0000000000000000e+03,	 3.4760788074254771e+02,	 4.9941330337264445e+00 
-2.1467929999999999e-01,	 1.5710879999999999e-01,	 1.1586407740522199e-02,	 1.7360000000000000e+03,	 2.2448969391000029e-14,	 3.0000000000000000e+02,	 1.0000000000000000e+03,	 3.4760788074254771e+02,	 4.9941330337264445e+00 
-2.0967369999999999e-01,	 1.5710879999999999e-01,	 1.1586407740522199e-02,	 1.7360000000000000e+03,	 7.6867565663714877e-15,	 3.0000000000000000e+02,	 1.0000000000000000e+03,	 3.4760788074254771e+02,	 4.9941330337264445e+00 
-2.0466799999999999e-01,	 1.5710879999999999e-01,	 1.1586407740522199e-02,	 1.7360000000000000e+03,	 -5.7080765504561202e-15,	 3.0000000000000000e+02,	 1.0000000000000000e+03,	 3.4760788074254771e+02,	 4.9941330337264445e+00 
-1.9966239999999999e-01,	 1.5710879999999999e-01,	 1.1586407740522199e-02,	 1.7360000000000000e+03,	 1.0120656328965294e-14,	 3.0000000000000000e+02,	 1.0000000000000000e+03,	 3.4760788074254771e+02,	 4.9941330337264445e+00 
-1.9465679999999999e-01,	 1.5710879999999999e-01,	 1.1586407740522199e-02,	 1.7360000000000000e+03,	 1.0657161731894355e-14,	 3.0000000000000000e+02,	 1.0000000000000000e+03,	 3.4760788074254771e+02,	 4.9941330337264445e+00 
-1.8965109999999999e-01,	 1.5710879999999999e-01,	 1.1586407740522199e-02,	 1.7360000000000000e+03,	 8.6968644800445137e-15,	 3.0000000000000000e+02,	 1.0000000000000000e+03,	 3.4760788074254771e+02,	 4.9941330337264445e+00 
-1.8464549999999999e-01,	 1.5710879999999999e-01,	 1.1586407740522199e-02,	 1.7360000000000000e+03,	 8.7029524655849194e-15,	 3.0000000000000000e+02,	 1.0000000000000000e+03,	 3.4760788074254771e+02,	 4.9941330337264445e+00 
-1.7963989999999999e-01,	 1.5710879999999999e-01,	 1.1586407740522199e-02,	 1.7360000000000000e+03,	 -1.5350912013244565e-15,	 3.0000000000000000e+02,	 1.0000000000000000e+03,	 3.4760788074254771e+02,	 4.9941330337264445e+00 
-1.7463429999999999e-01,	 1.5710879999999999e-01,	 1.1586407740522199e-02,	 1.7360000000000000e+03,	 1.1430247570697345e-14,	 3.0000000000000000e+02,	 1.0000000000000000e+03,	 3.4760788074254771e+02,	 4.9941330337264445e+00 
-1.6962859999999999e-01,	 1.5710879999999999e-01,	 1.1586407740522199e-02,	 1.7360000000000000e+03,	 9.6077664819663504e-15,	 3.0000000000000000e+02,	 1.0000000000000000e+03,	 3.4760788074254771e+02,	 4.9941330337264445e+00 
-1.6462299999999999e-01,	 1.5710879999999999e-01,	 1.1586407740522199e-02,	 1.7360000000000000e+03,	 8.9150162921942175e-15,	 3.0000000000000000e+02,	 1.0000000000000000e+03,	 3.4760788074254771e+02,	 4.9941330337264445e+00 
-1.5961739999999999e-01,	 1.5710879999999999e-01,	 1.1586407740522199e-02,	 1.7360000000000000e+03,	 2.1184932290262922e-14,	 3.0000000000000000e+02,	 1.0000000000000000e+03,	 3.4760788074254771e+02,	 4.9941330337264445e+00 
-1.5461179999999999e-01,	 1.5710879999999999e-01,	 1.1586407740522199e-02,	 1.7360000000000000e+03,	 8.6628004487885907e-15,	 3.0000000000000000e+02,	 1.0000000000000000e+03,	 3.4760788074254771e+02,	 4.9941330337264445e+00 
-1.4960609999999999e-01,	 1.5710879999999999e-01,	 1.1586407740522199e-02,	 1.7360000000000000e+03,	 1.1601101648876013e-14,	 3.0000000000000000e+02,	 1.0000000000000000e+03,	 3.4760788074254771e+02,	 4.9941330337264445e+00 
-1.4460049999999999e-01,	 1.5710879999999999e-01,	 1.1586407740522199e-02,	 1.7360000000000000e+03,	 3.0359040689430566e-14,	 3.0000000000000000e+02,	 1.0000000000000000e+03,	 3.4760788074254771e+02,	 4.9941330337264445e+00 
-1.3959489999999999e-01,	 1.5710879999999999e-01,	 1.1586407740522199e-02,	 1.7360000000000000e+03,	 -1.3135561184176756e-14,	 3.0000000000000000e+02,	 1.0000000000000000e+03,	 3.4760788074254771e+02,	 4.9941330337264445e+00 
-1.3458930000000000e-01,	 1.5710879999999999e-01,	 1.1586407740522211e-02,	 1.7360000000000000e+03,	 1.3815609262961090e-13,	 3.0000000000000000e+02,	 1.0000000000000011e+03,	 3.4760788074254771e+02,	 4.9941330337264445e+00 
-1.2958359999999999e-01,	 1.5710879999999999e-01,	 1.1586407740522352e-02,	 1.7360000000000005e+03,	 3.9090710998214213e-13,	 3.0000000000000000e+02,	 1.0000000000000132e+03,	 3.4760788074254771e+02,	 4.9941330337264462e+00 
-1.2457799999999999e-01,	 1.5710879999999999e-01,	 1.1555936525729961e-02,	 1.7359790444384198e+03,	 9.7209712117014713e-01,	 3.0001957577201142e+02,	 9.9743517051516460e+02,	 3.4761922171191515e+02,	 4.9939106015545454e+00 
-1.1957240000000000e-01,	 1.5710879999999999e-01,	 1.1525465310937439e-02,	 1.7359580888768401e+03,	 1.9441942423403928e+00,	 3.0003915154402296e+02,	 9.9486999781345583e+02,	 3.4763056231129917e+02,	 4.9936897551217232e+00 
-5.0000000000000000e-01,	 1.6314759999999998e-01,	 1.1586407740521439e-02,	 1.7359999999999986e+03,	 4.5327277319350038e-13,	 3.0000000000000011e+02,	 9.9999999999993486e+02,	 3.4760788074254776e+02,	 4.9941330337264400e+00 
-4.9501550000000000e-01,	 1.6314759999999998e-01,	 1.1586407740522157e-02,	 1.7360000000000007e+03,	 3.1224026586738289e-13,	 2.9999999999999994e+02,	 9.9999999999999625e+02,	 3.4760788074254765e+02,	 4.9941330337264471e+00 
-4.9003099999999999e-01,	 1.6314759999999998e-01,	 1.1586407740522341e-02,	 1.7360000000000000e+03,	 1.2464528939947642e-13,	 3.0000000000000000e+02,	 1.0000000000000123e+03,	 3.4760788074254771e+02,	 4.9941330337264445e+00 
-4.8504659999999999e-01,	 1.6314759999999998e-01,	 1.1586407740522282e-02,	 1.7360000000000000e+03,	 -1.2032240599689920e-13,	 3.0000000000000000e+02,	 1.0000000000000073e+03,	 3.4760788074254771e+02,	 4.9941330337264445e+00 
-4.8006209999999999e-01,	 1.6314759999999998e-01,	 1.1586407740522253e-02,	 1.7360000000000000e+03,	 -1.3271347316879866e-13,	 3.0000000000000000e+02,	 1.0000000000000047e+03,	 3.4760788074254771e+02,	 4.9941330337264445e+00 
-4.7507759999999999e-01,	 1.6314759999999998e-01,	 1.1586407740522225e-02,	 1.7360000000000000e+03,	 5.6479042729777393e-14,	 3.0000000000000000e+02,	 1.0000000000000023e+03,	 3.4760788074254771e+02,	 4.9941330337264445e+00 
-4.7009309999999999e-01,	 1.6314759999999998e-01,	 1.1586407740522196e-02,	 1.7360000000000000e+03,	 4.3071700593833584e-14,	 3.0000000000000000e+02,	 9.9999999999999977e+02,	 3.4760788074254771e+02,	 4.9941330337264445e+00 
-4.6510869999999999e-01,	 1.6314759999999998e-01,	 1.1586407740522199e-02,	 1.7360000000000000e+03,	 4.6315351492001549e-14,	 3.0000000000000000e+02,	 1.0000000000000000e+03,	 3.4760788074254771e+02,	 4.9941330337264445e+00 
-4.6012419999999998e-01,	 1.6314759999999998e-01,	 1.1586407740522199e-02,	 1.7360000000000000e+03,	 2.1224232601981964e-14,	 3.0000000000000000e+02,	 1.0000000000000000e+03,	 3.4760788074254771e+02,	 4.9941330337264445e+00 
-4.5513969999999998e-01,	 1.6314759999999998e-01,	 1.1586407740522199e-02,	 1.7360000000000000e+03,	 1.6888961038815518e-14,	 3.0000000000000000e+02,	 1.0000000000000000e+03,	 3.4760788074254771e+02,	 4.9941330337264445e+00 
-4.5015519999999998e-01,	 1.6314759999999998e-01,	 1.1586407740522199e-02,	 1.7360000000000000e+03,	 3.9760879139178122e-14,	 3.0000000000000000e+02,	 1.0000000000000000e+03,	 3.4760788074254771e+02,	 4.9941330337264445e+00 
-4.4517079999999998e-01,	 1.6314759999999998e-01,	 1.1586407740522199e-02,	 1.7360000000000000e+03,	 -2.5713173286250853e-14,	 3.0000000000000000e+02,	 1.0000000000000000e+03,	 3.4760788074254771e+02,	 4.9941330337264445e+00 
-4.4018629999999997e-01,	 1.6314759999999998e-01,	 1.1586407740522199e-02,	 1.7360000000000000e+03,	 -6.7050061131357442e-14,	 3.0000000000000000e+02,	 1.0000000000000000e+03,	 3.4760788074254771e+02,	 4.9941330337264445e+00 
-4.3520180000000003e-01,	 1.6314759999999998e-01,	 1.1586407740522199e-02,	 1.7360000000000000e+03,	 -3.4957176121502238e-14,	 3.0000000000000000e+02,	 1.0000000000000000e+03,	 3.4760788074254771e+02,	 4.9941330337264445e+00 
-4.3021730000000002e-01,	 1.6314759999999998e-01,	 1.1586407740522199e-02,	 1.7360000000000000e+03,	 -6.9204648461596361e-14,	 3.0000000000000000e+02,	 1.0000000000000000e+03,	 3.4760788074254771e+02,	 4.9941330337264445e+00 
-4.2523290000000002e-01,	 1.6314759999999998e-01,	 1.1586407740522199e-02,	 1.7360000000000000e+03,	 -1.1218829288688035e-13,	 3.0000000000000000e+02,	 1.0000000000000000e+03,	 3.4760788074254771e+02,	 4.9941330337264445e+00 
-4.2024840000000002e-01,	 1.6314759999999998e-01,	 1.1586407740522199e-02,	 1.7360000000000000e+03,	 -1.1099619679237711e-13,	 3.0000000000000000e+02,	 1.0000000000000000e+03,	 3.4760788074254771e+02,	 4.9941330337264445e+00 
-4.1526390000000002e-01,	 1.6314759999999998e-01,	 1.1586407740522199e-02,	 1.7360000000000000e+03,	 -1.5478041056231746e-13,	 3.0000000000000000e+02,	 1.0000000000000000e+03,	 3.4760788074254771e+02,	 4.9941330337264445e+00 
-4.1027940000000002e-01,	 1.6314759999999998e-01,	 1.1586407740522199e-02,	 1.7360000000000000e+03,	 -1.3641857531038296e-13,	 3.0000000000000000e+02,	 1.0000000000000000e+03,	 3.4760788074254771e+02,	 4.9941330337264445e+00 
-4.0529500000000002e-01,	 1.6314759999999998e-01,	 1.1586407740522199e-02,	 1.7360000000000000e+03,	 -1.0950314502513391e-13,	 3.0000000000000000e+02,	 1.0000000000000000e+03,	 3.4760788074254771e+02,	 4.9941330337264445e+00 
-4.0031050000000001e-01,	 1.6314759999999998e-01,	 1.1586407740522199e-02,	 1.7360000000000000e+03,	 -9.8501472237818588e-14,	 3.0000000000000000e+02,	 1.0000000000000000e+03,	 3.4760788074254771e+02,	 4.9941330337264445e+00 
-3.9532600000000001e-01,	 1.6314759999999998e-01,	 1.1586407740522199e-02,	 1.7360000000000000e+03,	 -9.9422438522592743e-14,	 3.0000000000000000e+02,	 1.0000000000000000e+03,	 3.4760788074254771e+02,	 4.9941330337264445e+00 
-3.9034150000000001e-01,	 1.6314759999999998e-01,	 1.1586407740522199e-02,	 1.7360000000000000e+03,	 -1.1105229320570234e-13,	 3.0000000000000000e+02,	 1.0000000000000000e+03,	 3.4760788074254771e+02,	 4.9941330337264445e+00 
-3.8535710000000001e-01,	 1.6314759999999998e-01,	 1.1586407740522199e-02,	 1.7360000000000000e+03,	 -8.0864329945226382e-14,	 3.0000000000000000e+02,	 1.0000000000000000e+03,	 3.4760788074254771e+02,	 4.9941330337264445e+00 
-3.8037260000000001e-01,	 1.6314759999999998e-01,	 1.1586407740522199e-02,	 1.7360000000000000e+03,	 -3.3797536336194640e-14,	 3.0000000000000000e+02,	 1.0000000000000000e+03,	 3.4760788074254771e+02,	 4.9941330337264445e+00 
-3.7538810000000000e-01,	 1.6314759999999998e-01,	 1.1586407740522199e-02,	 1.7360000000000000e+03,	 -3.4272757994757626e-14,	 3.0000000000000000e+02,	 1.0000000000000000e+03,	 3.4760788074254771e+02,	 4.9941330337264445e+00 
-3.7040360000000000e-01,	 1.6314759999999998e-01,	 1.1586407740522199e-02,	 1.7360000000000000e+03,	 -1.8507758075832878e-14,	 3.0000000000000000e+02,	 1.0000000000000000e+03,	 3.4760788074254771e+02,	 4.9941330337264445e+00 
-3.6541920000000000e-01,	 1.6314759999999998e-01,	 1.1586407740522199e-02,	 1.7360000000000000e+03,	 -2.2463711238035977e-14,	 3.0000000000000000e+02,	 1.0000000000000000e+03,	 3.4760788074254771e+02,	 4.9941330337264445e+00 
-3.6043470000000000e-01,	 1.6314759999999998e-01,	 1.1586407740522199e-02,	 1.7360000000000000e+03,	 -1.1087918546811819e-14,	 3.0000000000000000e+02,	 1.0000000000000000e+03,	 3.4760788074254771e+02,	 4.9941330337264445e+00 
-3.5545019999999999e-01,	 1.6314759999999998e-01,	 1.1586407740522199e-02,	 1.7360000000000000e+03,	 2.8062614698549495e-16,	 3.0000000000000000e+02,	 1.0000000000000000e+03,	 3.4760788074254771e+02,	 4.9941330337264445e+00 
-3.5046569999999999e-01,	 1.6314759999999998e-01,	 1.1586407740522199e-02,	 1.7360000000000000e+03,	 -9.4489384761613322e-15,	 3.0000000000000000e+02,	 1.0000000000000000e+03,	 3.4760788074254771e+02,	 4.9941330337264445e+00 
-3.4548129999999999e-01,	 1.6314759999999998e-01,	 1.1586407740522199e-02,	 1.7360000000000000e+03,	 -5.6974136391046734e-15,	 3.0000000000000000e+02,	 1.0000000000000000e+03,	 3.4760788074254771e+02,	 4.9941330337264445e+00 
-3.4049679999999999e-01,	 1.6314759999999998e-01,	 1.1586407740522199e-02,	 1.7360000000000000e+03,	 3.6401378674291461e-15,	 3.0000000000000000e+02,	 1.0000000000000000e+03,	 3.4760788074254771e+02,	 4.9941330337264445e+00 
-3.3551229999999999e-01,	 1.6314759999999998e-01,	 1.1586407740522199e-02,	 1.7360000000000000e+03,	 -8.8150934259847315e-15,	 3.0000000000000000e+02,	 1.0000000000000000e+03,	 3.4760788074254771e+02,	 4.9941330337264445e+00 
-3.3052779999999998e-01,	 1.6314759999999998e-01,	 1.1586407740522199e-02,	 1.7360000000000000e+03,	 -1.2895026124595468e-14,	 3.0000000000000000e+02,	 1.0000000000000000e+03,	 3.4760788074254771e+02,	 4.9941330337264445e+00 
-3.2554339999999998e-01,	 1.6314759999999998e-01,	 1.1586407740522199e-02,	 1.7360000000000000e+03,	 -5.4644426501838074e-16,	 3.0000000000000000e+02,	 1.0000000000000000e+03,	 3.4760788074254771e+02,	 4.9941330337264445e+00 
-3.2055889999999998e-01,	 1.6314759999999998e-01,	 1.1586407740522199e-02,	 1.7360000000000000e+03,	 -4.8276760656233890e-15,	 3.0000000000000000e+02,	 1.0000000000000000e+03,	 3.4760788074254771e+02,	 4.9941330337264445e+00 
-3.1557439999999998e-01,	 1.6314759999999998e-01,	 1.1586407740522199e-02,	 1.7360000000000000e+03,	 -4.1952360083322343e-15,	 3.0000000000000000e+02,	 1.0000000000000000e+03,	 3.4760788074254771e+02,	 4.9941330337264445e+00 
-3.1058989999999997e-01,	 1.6314759999999998e-01,	 1.1586407740522199e-02,	 1.7360000000000000e+03,	 3.4509364793301891e-15,	 3.0000000000000000e+02,	 1.0000000000000000e+03,	 3.4760788074254771e+02,	 4.9941330337264445e+00 
-3.0560549999999997e-01,	 1.6314759999999998e-01,	 1.1586407740522199e-02,	 1.7360000000000000e+03,	 3.9953984243266564e-15,	 3.0000000000000000e+02,	 1.0000000000000000e+03,	 3.4760788074254771e+02,	 4.9941330337264445e+00 
-3.0062100000000003e-01,	 1.6314759999999998e-01,	 1.1586407740522199e-02,	 1.7360000000000000e+03,	 1.4016659104337446e-15,	 3.0000000000000000e+02,	 1.0000000000000000e+03,	 3.4760788074254771e+02,	 4.9941330337264445e+00 
-2.9563650000000002e-01,	 1.6314759999999998e-01,	 1.1586407740522199e-02,	 1.7360000000000000e+03,	 -3.7665929739624631e-15,	 3.0000000000000000e+02,	 1.0000000000000000e+03,	 3.4760788074254771e+02,	 4.9941330337264445e+00 
-2.9065200000000002e-01,	 1.6314759999999998e-01,	 1.1586407740522199e-02,	 1.7360000000000000e+03,	 -3.2157346547317367e-15,	 3.0000000000000000e+02,	 1.0000000000000000e+03,	 3.4760788074254771e+02,	 4.9941330337264445e+00 
-2.8566760000000002e-01,	 1.6314759999999998e-01,	 1.1586407740522199e-02,	 1.7360000000000000e+03,	 5.3213506633161743e-16,	 3.0000000000000000e+02,	 1.0000000000000000e+03,	 3.4760788074254771e+02,	 4.9941330337264445e+00 
-2.8068310000000002e-01,	 1.6314759999999998e-01,	 1.1586407740522199e-02,	 1.7360000000000000e+03,	 -2.9390229804149476e-15,	 3.0000000000000000e+02,	 1.0000000000000000e+03,	 3.4760788074254771e+02,	 4.9941330337264445e+00 
-2.7569860000000002e-01,	 1.6314759999999998e-01,	 1.1586407740522199e-02,	 1.7360000000000000e+03,	 -1.2018389415503263e-14,	 3.0000000000000000e+02,	 1.0000000000000000e+03,	 3.4760788074254771e+02,	 4.9941330337264445e+00 
-2.7071410000000001e-01,	 1.6314759999999998e-01,	 1.1586407740522199e-02,	 1.7360000000000000e+03,	 -1.2559245545578479e-15,	 3.0000000000000000e+02,	 1.0000000000000000e+03,	 3.4760788074254771e+02,	 4.9941330337264445e+00 
-2.6572960000000001e-01,	 1.6314759999999998e-01,	 1.1586407740522199e-02,	 1.7360000000000000e+03,	 1.2484820779249335e-15,	 3.0000000000000000e+02,	 1.0000000000000000e+03,	 3.4760788074254771e+02,	 4.9941330337264445e+00 
-2.6074520000000001e-01,	 1.6314759999999998e-01,	 1.1586407740522199e-02,	 1.7360000000000000e+03,	 -3.3875204882572021e-15,	 3.0000000000000000e+02,	 1.0000000000000000e+03,	 3.4760788074254771e+02,	 4.9941330337264445e+00 
-2.5576070000000001e-01,	 1.6314759999999998e-01,	 1.1586407740522199e-02,	 1.7360000000000000e+03,	 4.8254983208496224e-15,	 3.0000000000000000e+02,	 1.0000000000000000e+03,	 3.4760788074254771e+02,	 4.9941330337264445e+00 
-2.5077620000000000e-01,	 1.6314759999999998e-01,	 1.1586407740522199e-02,	 1.7360000000000000e+03,	 3.6066833032349047e-16,	 3.0000000000000000e+02,	 1.0000000000000000e+03,	 3.4760788074254771e+02,	 4.9941330337264445e+00 
-2.4579170000000000e-01,	 1.6314759999999998e-01,	 1.1586407740522199e-02,	 1.7360000000000000e+03,	 -6.8250065573340941e-15,	 3.0000000000000000e+02,	 1.0000000000000000e+03,	 3.4760788074254771e+02,	 4.9941330337264445e+00 
-2.4080730000000000e-01,	 1.6314759999999998e-01,	 1.1586407740522199e-02,	 1.7360000000000000e+03,	 -5.4206567490695770e-15,	 3.0000000000000000e+02,	 1.0000000000000000e+03,	 3.4760788074254771e+02,	 4.9941330337264445e+00 
-2.3582280000000000e-01,	 1.6314759999999998e-01,	 1.1586407740522199e-02,	 1.7360000000000000e+03,	 -5.9452464702860125e-15,	 3.0000000000000000e+02,	 1.0000000000000000e+03,	 3.4760788074254771e+02,	 4.9941330337264445e+00 
-2.3083830000000000e-01,	 1.6314759999999998e-01,	 1.1586407740522199e-02,	 1.7360000000000000e+03,	 -5.9629207753744748e-15,	 3.0000000000000000e+02,	 1.0000000000000000e+03,	 3.4760788074254771e+02,	 4.9941330337264445e+00 