TITLE = "Final State"
VARIABLES = "X", "Y", "rho", "u", "v", "T", "p", "c", "M"
ZONE I=98, J=25, DATAPACKING=POINT, STRANDID=36000, SOLUTIONTIME=0.000869
1.3750830000000001e+00,	 2.8192020000000001e-01,	 4.6735430353690120e-02,	 1.5678950266010997e+03,	 -1.4179089975002229e+01,	 5.8869203113736762e+02,	 7.9152446087812268e+03,	 4.8693732439650432e+02,	 3.2200430327884186e+00 
1.3782770000000000e+00,	 2.8188779999999997e-01,	 4.6686314513004472e-02,	 1.5681614110480873e+03,	 -1.1290899718674375e+01,	 5.8849511760756491e+02,	 7.9042813974471928e+03,	 4.8685587895322232e+02,	 3.2210806648309456e+00 
1.3814979999999999e+00,	 2.8185519999999997e-01,	 4.6612939504556389e-02,	 1.5685914299864057e+03,	 -7.0540570079504707e+00,	 5.8822959226428202e+02,	 7.8882977977460887e+03,	 4.8674603338649081e+02,	 3.2226401112461822e+00 
1.3847449999999999e+00,	 2.8182219999999997e-01,	 4.6506290794557065e-02,	 1.5691026553702295e+03,	 -3.1298372668168959e+00,	 5.8782209801601118e+02,	 7.8647975679840711e+03,	 4.8657740826594426e+02,	 3.2247814021012844e+00 
1.3880189999999999e+00,	 2.8178900000000001e-01,	 4.6373261572825696e-02,	 1.5696980900509093e+03,	 5.5091838715076613e-01,	 5.8728815441194706e+02,	 7.8351771642208214e+03,	 4.8635636866854810e+02,	 3.2274650602937269e+00 
1.3913210000000000e+00,	 2.8175549999999999e-01,	 4.6219846434181824e-02,	 1.5703586549412300e+03,	 4.0672505137929704e+00,	 5.8666317563784719e+02,	 7.8009458708924058e+03,	 4.8609751505868093e+02,	 3.2305532807757911e+00 
1.3946490000000000e+00,	 2.8172179999999997e-01,	 4.6051759877132364e-02,	 1.5710738099779605e+03,	 7.4613640044084182e+00,	 5.8596736398709709e+02,	 7.7633577051362572e+03,	 4.8580916164054770e+02,	 3.2339685039608237e+00 
1.3980060000000001e+00,	 2.8168769999999999e-01,	 4.5871083036442536e-02,	 1.5718343727654906e+03,	 1.0752835450812530e+01,	 5.8521457815512895e+02,	 7.7229650207012692e+03,	 4.8549700450697640e+02,	 3.2376536570385293e+00 
1.4013899999999999e+00,	 2.8165340000000000e-01,	 4.5681050367156820e-02,	 1.5726429374511795e+03,	 1.3942271485566046e+01,	 5.8440149945401811e+02,	 7.6802850745632340e+03,	 4.8515962015579345e+02,	 3.2416233205068430e+00 
1.4048030000000000e+00,	 2.8161880000000000e-01,	 4.5481605171443201e-02,	 1.5734958508388165e+03,	 1.7029245418938675e+01,	 5.8352874123231720e+02,	 7.6353328282810089e+03,	 4.8479721070379173e+02,	 3.2458685061924668e+00 
1.4082440000000001e+00,	 2.8158390000000000e-01,	 4.5274224517385192e-02,	 1.5743936432535215e+03,	 2.0010318348684635e+01,	 5.8259573657322403e+02,	 7.5883658309493012e+03,	 4.8440948429722562e+02,	 3.2503921853364308e+00 
1.4117139999999999e+00,	 2.8154869999999999e-01,	 4.5059230835949128e-02,	 1.5753367956505858e+03,	 2.2876181593093012e+01,	 5.8160309831252664e+02,	 7.5394631504616873e+03,	 4.8399663508629277e+02,	 3.2551938802823712e+00 
1.4152119999999999e+00,	 2.8151319999999996e-01,	 4.4836642950201060e-02,	 1.5763256347201664e+03,	 2.5612024658143241e+01,	 5.8055141618858340e+02,	 7.4886531255193922e+03,	 4.8355884432901706e+02,	 3.2602726858139528e+00 
1.4187399999999999e+00,	 2.8147739999999999e-01,	 4.4606680694176136e-02,	 1.5773602827265372e+03,	 2.8201567936663821e+01,	 5.7944249830961792e+02,	 7.4360138424197785e+03,	 4.8309679795272274e+02,	 3.2656237356144056e+00 
1.4222969999999999e+00,	 2.8144130000000001e-01,	 4.4369476140865893e-02,	 1.5784382647986158e+03,	 3.0626078188289863e+01,	 5.7828298655837125e+02,	 7.3816704738242188e+03,	 4.8261319783168943e+02,	 3.2712229158746067e+00 
1.4258830000000000e+00,	 2.8140490000000001e-01,	 4.4126259318846020e-02,	 1.5795570789236272e+03,	 3.2859753878992422e+01,	 5.7707897018458561e+02,	 7.3259221368382350e+03,	 4.8211052268981439e+02,	 3.2770469854892146e+00 
1.4295000000000000e+00,	 2.8136830000000002e-01,	 4.3878359240655564e-02,	 1.5807132769264385e+03,	 3.4877372810654180e+01,	 5.7583760809886803e+02,	 7.2690949597415056e+03,	 4.8159170642053869e+02,	 3.2830673408361637e+00 
1.4331460000000000e+00,	 2.8133130000000001e-01,	 4.3626522949761826e-02,	 1.5818963068614212e+03,	 3.6653115541280471e+01,	 5.7457531240667856e+02,	 7.2115314238448564e+03,	 4.8106356737182665e+02,	 3.2892137136255535e+00 
1.4368230000000000e+00,	 2.8129399999999999e-01,	 4.3374635398305744e-02,	 1.5831021162267175e+03,	 3.8152353045214539e+01,	 5.7330205620407651e+02,	 7.1540055721159069e+03,	 4.8053025444655185e+02,	 3.2954465734018759e+00 
1.4405310000000000e+00,	 2.8125639999999996e-01,	 4.3124356478052371e-02,	 1.5843196627371385e+03,	 3.9345969777693938e+01,	 5.7203673315217816e+02,	 7.0970274110409864e+03,	 4.7999967736015225e+02,	 3.3016858827088593e+00 
1.4442690000000000e+00,	 2.8121839999999998e-01,	 4.2879037709224840e-02,	 1.5855375884406035e+03,	 4.0197846749476582e+01,	 5.7079922800404245e+02,	 7.0413891202251853e+03,	 4.7948019701805197e+02,	 3.3078468741880975e+00 
1.4480390000000001e+00,	 2.8118019999999999e-01,	 4.2642945246910632e-02,	 1.5867471662349258e+03,	 4.0681625197667287e+01,	 5.6960773200991571e+02,	 6.9880017667497941e+03,	 4.7897949804001644e+02,	 3.3138549614765767e+00 
1.4518400000000000e+00,	 2.8114159999999999e-01,	 4.2419134023402999e-02,	 1.5879306623143161e+03,	 4.0719184111579864e+01,	 5.6849128999420600e+02,	 6.9377005543781042e+03,	 4.7850986332935798e+02,	 3.3195818471170124e+00 
1.4556730000000000e+00,	 2.8110279999999999e-01,	 4.2213310527754483e-02,	 1.5890794943233466e+03,	 4.0323078257482663e+01,	 5.6747025790779855e+02,	 6.8916379573936820e+03,	 4.7807995920918125e+02,	 3.3249480192415706e+00 
1.4595380000000000e+00,	 2.8106359999999997e-01,	 4.2027590909680945e-02,	 1.5901749362650539e+03,	 3.9432772573860277e+01,	 5.6657401241144908e+02,	 6.8504812843201635e+03,	 4.7770227745491519e+02,	 3.3298224822523084e+00 
1.4634339999999999e+00,	 2.8102400000000000e-01,	 4.1867974393791384e-02,	 1.5912047525799758e+03,	 3.8016146499568748e+01,	 5.6582616432821010e+02,	 6.8154559175338754e+03,	 4.7738690233180199e+02,	 3.3341065914170169e+00 
1.4673639999999999e+00,	 2.8098419999999996e-01,	 4.1738205677624110e-02,	 1.5921611118769883e+03,	 3.6033751181952880e+01,	 5.6524367783731304e+02,	 6.7873372005944302e+03,	 4.7714111745944120e+02,	 3.3377312473969245e+00 
1.4713259999999999e+00,	 2.8094399999999997e-01,	 4.1638465738348659e-02,	 1.5930298626647950e+03,	 3.3478107905160698e+01,	 5.6484535823676015e+02,	 6.7663462864192861e+03,	 4.7697297037455678e+02,	 3.3406119427507117e+00 
1.4753210000000001e+00,	 2.8090339999999997e-01,	 4.1571541296306198e-02,	 1.5938092931233673e+03,	 3.0364003311551304e+01,	 5.6463787289021320e+02,	 6.7529894154107824e+03,	 4.7688535879157831e+02,	 3.3427289663471575e+00 
1.4793499999999999e+00,	 2.8086259999999996e-01,	 4.1536400947744828e-02,	 1.5945047028463173e+03,	 2.6713709036003685e+01,	 5.6460476341684739e+02,	 6.7468854757772751e+03,	 4.7687137668435781e+02,	 3.3441480043484515e+00 
1.4834120000000000e+00,	 2.8082140000000000e-01,	 4.1528090577737528e-02,	 1.5951203987729991e+03,	 2.2586127955726539e+01,	 5.6474082116439092e+02,	 6.7471611274987781e+03,	 4.7692883115627853e+02,	 3.3449021967848265e+00 
1.4875090000000000e+00,	 2.8077979999999997e-01,	 4.1542082925277266e-02,	 1.5956746090774245e+03,	 1.8057392818069637e+01,	 5.6500952344322548e+02,	 6.7526458594410433e+03,	 4.7704227843953868e+02,	 3.3451474865836839e+00 
1.4916389999999999e+00,	 2.8073789999999998e-01,	 4.1571163381095746e-02,	 1.5961896459190857e+03,	 1.3225808798823888e+01,	 5.6536733265346152e+02,	 6.7616521825748905e+03,	 4.7719330519104602e+02,	 3.3450688038461966e+00 
1.4958039999999999e+00,	 2.8069569999999999e-01,	 4.1606559178101306e-02,	 1.5966902939765255e+03,	 8.2020110310639467e+00,	 5.6576783636368020e+02,	 6.7722033989892097e+03,	 4.7736229607841835e+02,	 3.3448627454235882e+00 
1.5000030000000000e+00,	 2.8065309999999999e-01,	 4.1639236528979294e-02,	 1.5972006330416120e+03,	 3.0974127788013468e+00,	 5.6616521811546136e+02,	 6.7822825847741542e+03,	 4.7752991056234350e+02,	 3.3447195685124003e+00 
1.5042380000000000e+00,	 2.8061009999999997e-01,	 4.1663153573169506e-02,	 1.5977457933757273e+03,	 -1.9894316168093178e+00,	 5.6651238676245862e+02,	 6.7903394792040872e+03,	 4.7767629716568968e+02,	 3.3448321413998530e+00 
1.5085080000000000e+00,	 2.8056680000000001e-01,	 4.1667346742388763e-02,	 1.5983483640215632e+03,	 -6.9690352713821353e+00,	 5.6677352064622960e+02,	 6.7941532118353580e+03,	 4.7778637692604167e+02,	 3.3453518855960236e+00 
1.5128140000000001e+00,	 2.8052309999999997e-01,	 4.1651644391269810e-02,	 1.5990184200408439e+03,	 -1.1776805787957937e+01,	 5.6693617316142524e+02,	 6.7935418828392258e+03,	 4.7785492951219572e+02,	 3.3463331419470008e+00 
1.5171550000000000e+00,	 2.8047909999999998e-01,	 4.1611149227155517e-02,	 1.5997752630690084e+03,	 -1.6371458172731359e+01,	 5.6693518914343417e+02,	 6.7869251873660951e+03,	 4.7785451481114643e+02,	 3.3480044255213040e+00 
1.5215330000000000e+00,	 2.8043469999999998e-01,	 4.1544264046522880e-02,	 1.6006194232385133e+03,	 -2.0724691049871154e+01,	 5.6680729248280181e+02,	 6.7744873561472396e+03,	 4.7780061143285172e+02,	 3.3502543741589763e+00 
1.5259480000000001e+00,	 2.8038989999999997e-01,	 4.1450184515418702e-02,	 1.6015560763400481e+03,	 -2.4826312449433992e+01,	 5.6653774575234138e+02,	 6.7559317844058369e+03,	 4.7768698824069014e+02,	 3.3531340085316375e+00 
1.5303990000000001e+00,	 2.8034470000000000e-01,	 4.1329686380557229e-02,	 1.6025833784552437e+03,	 -2.8675152190546527e+01,	 5.6612740920175020e+02,	 6.7314128755410038e+03,	 4.7751396540354108e+02,	 3.3566346064089427e+00 
1.5348880000000000e+00,	 2.8029919999999997e-01,	 4.1184233315132518e-02,	 1.6037010426422767e+03,	 -3.2276961267409597e+01,	 5.6557935344984639e+02,	 6.7012291679314640e+03,	 4.7728277394438931e+02,	 3.3607452629322898e+00 
1.5394140000000001e+00,	 2.8025329999999998e-01,	 4.1014495300649920e-02,	 1.6049046498110106e+03,	 -3.5639605015893935e+01,	 5.6490296702361866e+02,	 6.6656294183058471e+03,	 4.7699729307917318e+02,	 3.3654285736881517e+00 
1.5439780000000001e+00,	 2.8020699999999998e-01,	 4.0822322557673263e-02,	 1.6061925687541666e+03,	 -3.8773274446576487e+01,	 5.6410483943162524e+02,	 6.6250242604197110e+03,	 4.7666020928901060e+02,	 3.3706620777717511e+00 
1.5485800000000001e+00,	 2.8016029999999997e-01,	 4.0609367250016196e-02,	 1.6075630856379921e+03,	 -4.1688370355765471e+01,	 5.6319042116059973e+02,	 6.5797807099474367e+03,	 4.7627371767155569e+02,	 3.3764272099733645e+00 
1.5532210000000000e+00,	 2.8011330000000001e-01,	 4.0377007730946969e-02,	 1.6090150291662194e+03,	 -4.4391859973028630e+01,	 5.6216555882859132e+02,	 6.5302273788473722e+03,	 4.7584017225071204e+02,	 3.3827057493819792e+00 
1.5579000000000001e+00,	 2.8006579999999998e-01,	 4.0125576995669474e-02,	 1.6105429318898709e+03,	 -4.6889235106532155e+01,	 5.6104131240167567e+02,	 6.4765850016340692e+03,	 4.7536412979892532e+02,	 3.3894550540895341e+00 
1.5626180000000001e+00,	 2.8001789999999999e-01,	 3.9857657634414845e-02,	 1.6121489661484970e+03,	 -4.9189261731747109e+01,	 5.5981828375850398e+02,	 6.4193164931510528e+03,	 4.7484571776476480e+02,	 3.3966805491536562e+00 
1.5673760000000001e+00,	 2.7996969999999999e-01,	 3.9573924075466033e-02,	 1.6138314644497623e+03,	 -5.1295146437221618e+01,	 5.5850221055127429e+02,	 6.3586357886797250e+03,	 4.7428723346350449e+02,	 3.4043641597745000e+00 
1.5721740000000000e+00,	 2.7992099999999998e-01,	 3.9274937827445330e-02,	 1.6155855303260755e+03,	 -5.3209404289365835e+01,	 5.5710322459290524e+02,	 6.2947881113119793e+03,	 4.7369284260861775e+02,	 3.4124676897483823e+00 
1.5770120000000001e+00,	 2.7987190000000001e-01,	 3.8962947366071483e-02,	 1.6174117358744293e+03,	 -5.4936930138856113e+01,	 5.5562423687046908e+02,	 6.2282053193483353e+03,	 4.7306364907548971e+02,	 3.4209867164303236e+00 
1.5818900000000000e+00,	 2.7982239999999997e-01,	 3.8638882103748606e-02,	 1.6193071211363736e+03,	 -5.6479982922836697e+01,	 5.5407247644086988e+02,	 6.1591540632725073e+03,	 4.7240259556169178e+02,	 3.4298960729556622e+00 
1.5868100000000001e+00,	 2.7977249999999998e-01,	 3.8304366704459601e-02,	 1.6212688754571845e+03,	 -5.7838827837996952e+01,	 5.5245595288221784e+02,	 6.0880173507825539e+03,	 4.7171296761187136e+02,	 3.4391682229764240e+00 
1.5917699999999999e+00,	 2.7972219999999998e-01,	 3.7961298610513686e-02,	 1.6232928321606237e+03,	 -5.9010746174310796e+01,	 5.5078472265586242e+02,	 6.0152389463856989e+03,	 4.7099893957936297e+02,	 3.4487658792668250e+00 
1.5967720000000001e+00,	 2.7967149999999996e-01,	 3.7611730602450578e-02,	 1.6253739858201816e+03,	 -5.9989976527788713e+01,	 5.4907147593093430e+02,	 5.9413089592263523e+03,	 4.7026583475519629e+02,	 3.4586409564667369e+00 
1.6018150000000000e+00,	 2.7962029999999999e-01,	 3.7257694286294718e-02,	 1.6275051354065608e+03,	 -6.0765811349726221e+01,	 5.4734300042568157e+02,	 5.8668567043668900e+03,	 4.6952505352020097e+02,	 3.4686948612805284e+00 
1.6069009999999999e+00,	 2.7956870000000000e-01,	 3.6902397596472403e-02,	 1.6296836100763744e+03,	 -6.1325727423700044e+01,	 5.4559772149435184e+02,	 5.7923803181602161e+03,	 4.6877588301767361e+02,	 3.4789269634420585e+00 
1.6120300000000001e+00,	 2.7951670000000001e-01,	 3.6547666046665400e-02,	 1.6319028990183410e+03,	 -6.1663004051610272e+01,	 5.4382935138616494e+02,	 5.7181063552951318e+03,	 4.6801557737234754e+02,	 3.4893442869770435e+00 
1.6172010000000001e+00,	 2.7946420000000000e-01,	 3.6196759961145492e-02,	 1.6341522475192037e+03,	 -6.1753715983391828e+01,	 5.4208290850678475e+02,	 5.6450182425495914e+03,	 4.6726348506462733e+02,	 3.4997783970421628e+00 
1.6224160000000001e+00,	 2.7941129999999997e-01,	 3.5852637995023924e-02,	 1.6364229711724422e+03,	 -6.1564307910097952e+01,	 5.4039432627022882e+02,	 5.5739341557869693e+03,	 4.6653515715695977e+02,	 3.5100905049685163e+00 
1.6276740000000001e+00,	 2.7935800000000000e-01,	 3.5522418815778764e-02,	 1.6387017710629441e+03,	 -6.1045885539899373e+01,	 5.3877907531205403e+02,	 5.5060885107864078e+03,	 4.6583739324956650e+02,	 3.5201949420295096e+00 
1.6329769999999999e+00,	 2.7930420000000000e-01,	 3.5211865849905613e-02,	 1.6409721972701868e+03,	 -6.0125594658037357e+01,	 5.3727376791008726e+02,	 5.4427027093589531e+03,	 4.6518618110307796e+02,	 3.5299271609123113e+00 
1.6383230000000000e+00,	 2.7925000000000000e-01,	 3.4924356991999549e-02,	 1.6432175400588758e+03,	 -5.8753544898163376e+01,	 5.3592222831563163e+02,	 5.3846828228399772e+03,	 4.6460071288277953e+02,	 3.5390982640918276e+00 
1.6437150000000000e+00,	 2.7919529999999998e-01,	 3.4667236601380463e-02,	 1.6454164930167890e+03,	 -5.6841701470378084e+01,	 5.3476827892297979e+02,	 5.3335307104427329e+03,	 4.6410025349695786e+02,	 3.5475050913607351e+00 
1.6491510000000000e+00,	 2.7914010000000000e-01,	 3.4447627355797927e-02,	 1.6475478546454965e+03,	 -5.4311392997014401e+01,	 5.3385558559089714e+02,	 5.2906988620034163e+03,	 4.6370404254892225e+02,	 3.5549459299306383e+00 
1.6546339999999999e+00,	 2.7908450000000001e-01,	 3.4271242743142541e-02,	 1.6495922961144406e+03,	 -5.1099907107424464e+01,	 5.3322180303382083e+02,	 5.2573596743582802e+03,	 4.6342871077578337e+02,	 3.5612458537972747e+00 
1.6601619999999999e+00,	 2.7902840000000001e-01,	 3.4141679345512370e-02,	 1.6515308935937821e+03,	 -4.7145376869957161e+01,	 5.3289699095063293e+02,	 5.2342936645190412e+03,	 4.6328754046494504e+02,	 3.5662596752356954e+00 
1.6657360000000001e+00,	 2.7897189999999999e-01,	 3.4060325606791980e-02,	 1.6533571649990529e+03,	 -4.2447461991524108e+01,	 5.3288697889108880e+02,	 5.2217231371812395e+03,	 4.6328318832531301e+02,	 3.5699589459231942e+00 
1.6713570000000000e+00,	 2.7891489999999997e-01,	 3.4022523966258045e-02,	 1.6550717031028669e+03,	 -3.7080668515589650e+01,	 5.3317029494747817e+02,	 5.2187009537924550e+03,	 4.6340632712380591e+02,	 3.5724307949493155e+00 
1.6770250000000000e+00,	 2.7885739999999998e-01,	 3.4020329150123652e-02,	 1.6566915502883919e+03,	 -3.1162473955567066e+01,	 5.3369634124064157e+02,	 5.2235129305070313e+03,	 4.6363487800480021e+02,	 3.5738998229867320e+00 
1.6827410000000000e+00,	 2.7879939999999998e-01,	 3.4040515380469524e-02,	 1.6582481973801487e+03,	 -2.4875271104535798e+01,	 5.3438583216970960e+02,	 5.2333646880208244e+03,	 4.6393427003483646e+02,	 3.5747192439689135e+00 
1.6885049999999999e+00,	 2.7874090000000001e-01,	 3.4067063941318844e-02,	 1.6597828494734740e+03,	 -1.8440205403167163e+01,	 5.3514409000147350e+02,	 5.2448778316161188e+03,	 4.6426329924205066e+02,	 3.5753101407397776e+00 
1.6943170000000001e+00,	 2.7868199999999999e-01,	 3.4082040018886040e-02,	 1.6613422211728903e+03,	 -1.2093673476862042e+01,	 5.3587089146181961e+02,	 5.2543099284296186e+03,	 4.6457845992439292e+02,	 3.5761155146183961e+00 
1.7001770000000000e+00,	 2.7862250000000000e-01,	 3.4070220588668765e-02,	 1.6629782447400185e+03,	 -6.0391139624785435e+00,	 5.3647185944615399e+02,	 5.2583783229089086e+03,	 4.6483889443445906e+02,	 3.5775603766196751e+00 
1.7060869999999999e+00,	 2.7856259999999999e-01,	 3.4020707034471687e-02,	 1.6647390296306260e+03,	 -4.3335400270700197e-01,	 5.3687193287060597e+02,	 5.2546521614697476e+03,	 4.6501218873338604e+02,	 3.5799902161038704e+00 
1.7120460000000000e+00,	 2.7850209999999997e-01,	 3.3926029996169199e-02,	 1.6666564777386866e+03,	 4.6156067267082790e+00,	 5.3700955844978421e+02,	 5.2413721308055874e+03,	 4.6507178718416026e+02,	 3.5836679730761039e+00 
1.7180550000000001e+00,	 2.7844120000000000e-01,	 3.3783945510010724e-02,	 1.6687546661964238e+03,	 9.0662401922262141e+00,	 5.3686056504703424e+02,	 5.2179727839168690e+03,	 4.6500726558115969e+02,	 3.5887166022842441e+00 
1.7241139999999999e+00,	 2.7837970000000001e-01,	 3.3594708811340523e-02,	 1.6710356451480275e+03,	 1.2931024705401899e+01,	 5.3643296133636807e+02,	 5.1846121583404465e+03,	 4.6482204202943598e+02,	 3.5951085051153036e+00 
1.7302249999999999e+00,	 2.7831770000000000e-01,	 3.3361623633297727e-02,	 1.6734970916144030e+03,	 1.6235776300342689e+01,	 5.3573981309324404e+02,	 5.1419877526781320e+03,	 4.6452163661867377e+02,	 3.6027941761881399e+00 
1.7363860000000000e+00,	 2.7825519999999998e-01,	 3.3088795260921372e-02,	 1.6761308401823098e+03,	 1.9029729273422610e+01,	 5.3480947478764142e+02,	 5.0910807477048074e+03,	 4.6411812913000495e+02,	 3.6116642665903602e+00 
1.7425990000000000e+00,	 2.7819220000000000e-01,	 3.2781609614214703e-02,	 1.6789245071762618e+03,	 2.1373623079813267e+01,	 5.3367043814523822e+02,	 5.0330744891529930e+03,	 4.6362362654655067e+02,	 3.6216026415670353e+00 
1.7488640000000000e+00,	 2.7812860000000000e-01,	 3.2445764497998672e-02,	 1.6818633940717637e+03,	 2.3326123605564486e+01,	 5.3235079954191383e+02,	 4.9691929425918179e+03,	 4.6305005690711573e+02,	 3.6324909557955931e+00 
1.7551820000000000e+00,	 2.7806460000000000e-01,	 3.2086464520953747e-02,	 1.6849346666800268e+03,	 2.4944509810874976e+01,	 5.3087812317215821e+02,	 4.9005704055967244e+03,	 4.6240913071457669e+02,	 3.6442171863625372e+00 
1.7615529999999999e+00,	 2.7799989999999997e-01,	 3.1707757840656596e-02,	 1.6881219803894087e+03,	 2.6279237346562752e+01,	 5.2928255297924068e+02,	 4.8281755067350086e+03,	 4.6171371551187224e+02,	 3.6566522882218671e+00 
1.7679769999999999e+00,	 2.7793479999999998e-01,	 3.1314789994104149e-02,	 1.6914175248991889e+03,	 2.7368059455444971e+01,	 5.2758210092371655e+02,	 4.7530183829953376e+03,	 4.6097143367466248e+02,	 3.6697261520079998e+00 
1.7744549999999999e+00,	 2.7786909999999998e-01,	 3.0910052609738344e-02,	 1.6948067500039556e+03,	 2.8249803691043407e+01,	 5.2580164368755800e+02,	 4.6757536453188932e+03,	 4.6019294484606479e+02,	 3.6833293358235419e+00 
1.7809870000000001e+00,	 2.7780280000000002e-01,	 3.0497184309894509e-02,	 1.6982821197108656e+03,	 2.8944995580370424e+01,	 5.2395596375431887e+02,	 4.5971054919804646e+03,	 4.5938454535443645e+02,	 3.6974007588113627e+00 
1.7875740000000000e+00,	 2.7773599999999998e-01,	 3.0078869532503730e-02,	 1.7018356352256026e+03,	 2.9472164589023620e+01,	 5.2206030738818004e+02,	 4.5176452229475708e+03,	 4.5855277284872972e+02,	 3.7118755231721345e+00 
1.7942160000000000e+00,	 2.7766859999999999e-01,	 2.9657440882695847e-02,	 1.7054568832851485e+03,	 2.9848894963163772e+01,	 5.2013313272103846e+02,	 4.4379063181235124e+03,	 4.5770562134721098e+02,	 3.7266705745154041e+00 
1.8009139999999999e+00,	 2.7760059999999998e-01,	 2.9235390912311053e-02,	 1.7091401853836246e+03,	 3.0074445366260100e+01,	 5.1818560967629946e+02,	 4.3583709473177541e+03,	 4.5684792919107679e+02,	 3.7417369200959332e+00 
1.8076690000000000e+00,	 2.7753210000000000e-01,	 2.8814862165873784e-02,	 1.7128784616406833e+03,	 3.0146471557138600e+01,	 5.1623168389839316e+02,	 4.2794813688355789e+03,	 4.5598579601296831e+02,	 3.7570111686874355e+00 
1.8144790000000000e+00,	 2.7746300000000002e-01,	 2.8398070388017428e-02,	 1.7166640991322336e+03,	 3.0053316861631245e+01,	 5.1428821944366746e+02,	 4.2017029443936990e+03,	 4.5512665867915126e+02,	 3.7724161288551028e+00 
1.8213470000000000e+00,	 2.7739340000000001e-01,	 2.7987694168004167e-02,	 1.7204882014671107e+03,	 2.9774682153208666e+01,	 5.1237215869774991e+02,	 4.1255568878579834e+03,	 4.5427804495586491e+02,	 3.7878692154745695e+00 
1.8282730000000000e+00,	 2.7732309999999999e-01,	 2.7586318914398139e-02,	 1.7243393695637760e+03,	 2.9281740469576889e+01,	 5.1050612132616300e+02,	 4.0515821026512695e+03,	 4.5345005984307369e+02,	 3.8032588971009589e+00 
1.8352569999999999e+00,	 2.7725230000000001e-01,	 2.7197515448962203e-02,	 1.7282113213600519e+03,	 2.8532008482928230e+01,	 5.0871227849663040e+02,	 3.9804428209731709e+03,	 4.5265268061463030e+02,	 3.8184835852934138e+00 
1.8422989999999999e+00,	 2.7718080000000000e-01,	 2.6810801642801755e-02,	 1.7320990887109983e+03,	 2.7281390483505582e+01,	 5.0701523081192977e+02,	 3.9107562031892094e+03,	 4.5189703254287036e+02,	 3.8334261969485630e+00 
1.8493999999999999e+00,	 2.7710879999999999e-01,	 2.6570687407152467e-02,	 1.7343722857598507e+03,	 2.6161745665730237e+01,	 5.0604050186464548e+02,	 3.8682809177569557e+03,	 4.5146244103714594e+02,	 3.8421127259530845e+00 
1.3750840000000000e+00,	 2.8275859999999997e-01,	 4.6503870558592064e-02,	 1.5684457793548791e+03,	 -1.3825716537607688e+01,	 5.8751294256927486e+02,	 7.8602521289334236e+03,	 4.8644943771113640e+02,	 3.2243982474536708e+00 
1.3782779999999999e+00,	 2.8272749999999996e-01,	 4.6456541121438481e-02,	 1.5687203600999196e+03,	 -1.0954327060403246e+01,	 5.8730389010474528e+02,	 7.8494582998918340e+03,	 4.8636288429727887e+02,	 3.2254899729209141e+00 
1.3814979999999999e+00,	 2.8269620000000001e-01,	 4.6386291930762789e-02,	 1.5691660822680253e+03,	 -6.7538017098541108e+00,	 5.8700538249965268e+02,	 7.8336051596986044e+03,	 4.8623926731219325e+02,	 3.2271778980226471e+00 
1.3847460000000000e+00,	 2.8266459999999999e-01,	 4.6295733375821047e-02,	 1.5696739932390383e+03,	 -2.7027564097582770e+00,	 5.8662186154219989e+02,	 7.8132037420028064e+03,	 4.8608039873568339e+02,	 3.2292524533021196e+00 
1.3880200000000000e+00,	 2.8263279999999996e-01,	 4.6178873306032341e-02,	 1.5702612234982589e+03,	 1.1203440351914868e+00,	 5.8611461878548516e+02,	 7.7867426873092518e+03,	 4.8587020022453629e+02,	 3.2318541504334917e+00 
1.3913210000000000e+00,	 2.8260069999999998e-01,	 4.6039192605506415e-02,	 1.5709172903056217e+03,	 4.7481545445520412e+00,	 5.8550273672868650e+02,	 7.7550850591442550e+03,	 4.8561651870920662e+02,	 3.2349073919470035e+00 
1.3946499999999999e+00,	 2.8256840000000000e-01,	 4.5882320899542042e-02,	 1.5716306792848479e+03,	 8.2239108854713550e+00,	 5.8481037140408000e+02,	 7.7195215080335811e+03,	 4.8532930955222565e+02,	 3.2383212077567687e+00 
1.3980060000000001e+00,	 2.8253570000000000e-01,	 4.5711434988205041e-02,	 1.5723905657271669e+03,	 1.1577083493530971e+01,	 5.8405684079243304e+02,	 7.6808610299250658e+03,	 4.8501653434320298e+02,	 3.2420197524509158e+00 
1.4013910000000001e+00,	 2.8250280000000000e-01,	 4.5529375789828706e-02,	 1.5731939521175548e+03,	 1.4820189756667203e+01,	 5.8324892483664007e+02,	 7.6396872590135263e+03,	 4.8468096066773506e+02,	 3.2459780446196804e+00 
1.4048030000000000e+00,	 2.8246969999999999e-01,	 4.5337329126803730e-02,	 1.5740384264911104e+03,	 1.7954032052902345e+01,	 5.8239020573382868e+02,	 7.5962619386727192e+03,	 4.8432403064203771e+02,	 3.2501811154285396e+00 
1.4082440000000001e+00,	 2.8243619999999997e-01,	 4.5136429054519013e-02,	 1.5749224416888742e+03,	 2.0977290294227146e+01,	 5.8148239092237543e+02,	 7.5508127776674119e+03,	 4.8394640753213378e+02,	 3.2546209977511400e+00 
1.4117139999999999e+00,	 2.8240250000000000e-01,	 4.4927470744910061e-02,	 1.5758459323451855e+03,	 2.3882584662124088e+01,	 5.8052636495487775e+02,	 7.5034994631228583e+03,	 4.8354841125111557e+02,	 3.2592949545804508e+00 
1.4152130000000001e+00,	 2.8236849999999997e-01,	 4.4710870883783574e-02,	 1.5768089827344156e+03,	 2.6656210917758699e+01,	 5.7952273436551934e+02,	 7.4544146125674370e+03,	 4.8313024427401035e+02,	 3.2642011116224618e+00 
1.4187399999999999e+00,	 2.8233419999999998e-01,	 4.4487202671782335e-02,	 1.5778115062476645e+03,	 2.9280251944171649e+01,	 5.7847290211639040e+02,	 7.4036870940829112e+03,	 4.8269243951172120e+02,	 3.2693347522356881e+00 
1.4222969999999999e+00,	 2.8229959999999998e-01,	 4.4257218523497927e-02,	 1.5788520398700778e+03,	 3.1732814950677856e+01,	 5.7738136060223860e+02,	 7.3515144123569244e+03,	 4.8223681953726930e+02,	 3.2746792390566903e+00 
1.4258839999999999e+00,	 2.8226469999999998e-01,	 4.4021901032311989e-02,	 1.5799273250494459e+03,	 3.3988914259219754e+01,	 5.7625431857878721e+02,	 7.2981523264242933e+03,	 4.8176592916548327e+02,	 3.2802088902014281e+00 
1.4295000000000000e+00,	 2.8222959999999997e-01,	 4.3783188977211854e-02,	 1.5810349076833058e+03,	 3.6018174614582719e+01,	 5.7509905794369399e+02,	 7.2440257292465521e+03,	 4.8128277058219464e+02,	 3.2858959912773997e+00 
1.4331469999999999e+00,	 2.8219410000000000e-01,	 4.3542539972643519e-02,	 1.5821669606583660e+03,	 3.7789468674441878e+01,	 5.7392933212751473e+02,	 7.1895567764383995e+03,	 4.8079306760951454e+02,	 3.2916826315235936e+00 
1.4368240000000001e+00,	 2.8215839999999998e-01,	 4.3302826214765992e-02,	 1.5833166308882089e+03,	 3.9270044595579506e+01,	 5.7275778443461729e+02,	 7.1353812035529172e+03,	 4.8030210145774430e+02,	 3.2975153487556654e+00 
1.4405310000000000e+00,	 2.8212229999999999e-01,	 4.3066957439514220e-02,	 1.5844758009775405e+03,	 4.0423220980828233e+01,	 5.7160147469781259e+02,	 7.0821882946740852e+03,	 4.7981702853461337e+02,	 3.3033245224701608e+00 
1.4442699999999999e+00,	 2.8208600000000000e-01,	 4.2837820001930718e-02,	 1.5856325756574849e+03,	 4.1213182359139154e+01,	 5.7048053109983175e+02,	 7.0306928754085684e+03,	 4.7934632315970339e+02,	 3.3090231583727454e+00 
1.4480390000000001e+00,	 2.8204940000000001e-01,	 4.2619810555609976e-02,	 1.5867772809252581e+03,	 4.1605976975684456e+01,	 5.6941530621163861e+02,	 6.9818512121258245e+03,	 4.7889858639460653e+02,	 3.3145277424686630e+00 
1.4518409999999999e+00,	 2.8201240000000000e-01,	 4.2416197973735366e-02,	 1.5878945271230962e+03,	 4.1538259232663364e+01,	 5.6843553664128467e+02,	 6.9365400094796942e+03,	 4.7848639842857972e+02,	 3.3197134672362081e+00 
1.4556730000000000e+00,	 2.8197509999999998e-01,	 4.2231949151874726e-02,	 1.5889731271584460e+03,	 4.0998923846205734e+01,	 5.6755661370626319e+02,	 6.8957300622245702e+03,	 4.7811633416055355e+02,	 3.3245088188573639e+00 
1.4595380000000000e+00,	 2.8193760000000001e-01,	 4.2070826583374521e-02,	 1.5899986457033781e+03,	 3.9937390242634429e+01,	 5.6680427878602995e+02,	 6.8603157117522596e+03,	 4.7779934120565690e+02,	 3.3288035388023056e+00 
1.4634350000000000e+00,	 2.8189969999999998e-01,	 4.1936698061710728e-02,	 1.5909558506276428e+03,	 3.8321936365105529e+01,	 5.6621033424602354e+02,	 6.8312780395975769e+03,	 4.7754893669810627e+02,	 3.3324696144524188e+00 
1.4673639999999999e+00,	 2.8186149999999999e-01,	 4.1832951710986194e-02,	 1.5918381724845324e+03,	 3.6133517244337561e+01,	 5.6578583301304195e+02,	 6.8092693787556818e+03,	 4.7736988828585066e+02,	 3.3354601126702410e+00 
1.4713270000000001e+00,	 2.8182299999999999e-01,	 4.1760100929677003e-02,	 1.5926386997429745e+03,	 3.3370320505392101e+01,	 5.6554036300613279e+02,	 6.7944621456008072e+03,	 4.7726632197548366e+02,	 3.3377344884815154e+00 
1.4753220000000000e+00,	 2.8178409999999998e-01,	 4.1718411900347474e-02,	 1.5933535487613708e+03,	 3.0050269944711783e+01,	 5.6547615424181879e+02,	 6.7869086061300604e+03,	 4.7723922793176052e+02,	 3.3392831116491744e+00 
1.4793510000000001e+00,	 2.8174499999999997e-01,	 4.1706052896271349e-02,	 1.5939903319030527e+03,	 2.6216614490121394e+01,	 5.6557447211812587e+02,	 6.7860776693951102e+03,	 4.7728071430363610e+02,	 3.3401850608636905e+00 
1.4834130000000001e+00,	 2.8170550000000000e-01,	 4.1717799004502579e-02,	 1.5945597001214037e+03,	 2.1938842346105815e+01,	 5.6581639379496937e+02,	 6.7908924314353981e+03,	 4.7738278062002217e+02,	 3.3405281487688070e+00 
1.4875090000000000e+00,	 2.8166569999999996e-01,	 4.1747233163411994e-02,	 1.5950795644026912e+03,	 1.7309299028708189e+01,	 5.6616334044840801e+02,	 6.7998507422372231e+03,	 4.7752911870610194e+02,	 3.3404737358841898e+00 
1.4916389999999999e+00,	 2.8162549999999997e-01,	 4.1786524550268364e-02,	 1.5955732846503988e+03,	 1.2433618685163221e+01,	 5.6656934109930353e+02,	 6.8111314025527845e+03,	 4.7770030816140604e+02,	 3.3402149874818514e+00 
1.4958039999999999e+00,	 2.8158499999999997e-01,	 4.1827102694701315e-02,	 1.5960664378647077e+03,	 7.4214671796389400e+00,	 5.6698746769751403e+02,	 6.8227770473530481e+03,	 4.7787654640108531e+02,	 3.3399498346189329e+00 
1.5000039999999999e+00,	 2.8154419999999997e-01,	 4.1860468899230542e-02,	 1.5965826314258031e+03,	 2.3783343985104120e+00,	 5.6737388459699230e+02,	 6.8328733064644075e+03,	 4.7803936139439452e+02,	 3.3398597098773313e+00 