TITLE = "Final State"
VARIABLES = "X", "Y", "rho", "u", "v", "T", "p", "c", "M"
ZONE I=102, J=25, DATAPACKING=POINT, STRANDID=80000, SOLUTIONTIME=0.001930
1.0567210000000000e+00,	 2.8514950000000000e-01,	 5.2746092408543270e-02,	 1.5409599382382189e+03,	 -7.9004465692077517e+01,	 6.1386483061834326e+02,	 9.3152171082063032e+03,	 4.9723920437863194e+02,	 3.1031018086992530e+00 
1.0574120000000000e+00,	 2.8514249999999997e-01,	 5.2463611814194865e-02,	 1.5415857424690851e+03,	 -8.1944786455898111e+01,	 6.1254019098748188e+02,	 9.2453362941151663e+03,	 4.9670242621992634e+02,	 3.1080221476076284e+00 
1.0581080000000000e+00,	 2.8513539999999998e-01,	 5.2146911284888173e-02,	 1.5423916343016972e+03,	 -8.5181538315752562e+01,	 6.1106045581333092e+02,	 9.1673266620153627e+03,	 4.9610211257262824e+02,	 3.1137581585072636e+00 
1.0588070000000001e+00,	 2.8512830000000000e-01,	 5.1839144291406361e-02,	 1.5431730504770542e+03,	 -8.8367242676678359e+01,	 6.0961406738745222e+02,	 9.0916506965442386e+03,	 4.9551462448814624e+02,	 3.1193853926701292e+00 
1.0595110000000001e+00,	 2.8512119999999996e-01,	 5.1536286139931858e-02,	 1.5439339778007948e+03,	 -9.1530863612660823e+01,	 6.0818625337057881e+02,	 9.0173651408388960e+03,	 4.9493399690638535e+02,	 3.1249515570231754e+00 
1.0602190000000000e+00,	 2.8511399999999998e-01,	 5.1236919126631850e-02,	 1.5446737689094555e+03,	 -9.4671877200724708e+01,	 6.0677803945375501e+02,	 8.9442267271434957e+03,	 4.9436067183153523e+02,	 3.1304517557502338e+00 
1.0609310000000001e+00,	 2.8510679999999999e-01,	 5.0943609356396774e-02,	 1.5453973749405386e+03,	 -9.7787771017674473e+01,	 6.0538640401414773e+02,	 8.8726287924165390e+03,	 4.9379344238272978e+02,	 3.1359025839377836e+00 
1.0616479999999999e+00,	 2.8509950000000001e-01,	 5.0653532098282966e-02,	 1.5461017253572340e+03,	 -1.0087616519942661e+02,	 6.0401471740250236e+02,	 8.8021181258158249e+03,	 4.9323370569331553e+02,	 3.1412879332159807e+00 
1.0623680000000000e+00,	 2.8509219999999996e-01,	 5.0370109886339602e-02,	 1.5467896649591205e+03,	 -1.0392986662829566e+02,	 6.0266363272589535e+02,	 8.7332887767380344e+03,	 4.9268175426080626e+02,	 3.1466099149546798e+00 
1.0630940000000000e+00,	 2.8508489999999997e-01,	 5.0092306388901456e-02,	 1.5474602399231851e+03,	 -1.0694786682276344e+02,	 6.0133340867179845e+02,	 8.6659523882515059e+03,	 4.9213772013591995e+02,	 3.1518647266728723e+00 
1.0638230000000000e+00,	 2.8507749999999998e-01,	 4.9819093862129911e-02,	 1.5481068311679578e+03,	 -1.0991659975584381e+02,	 6.0003507868848135e+02,	 8.6000782339705784e+03,	 4.9160614945292070e+02,	 3.1570068903435060e+00 
1.0645570000000000e+00,	 2.8506999999999999e-01,	 4.9552910593692129e-02,	 1.5487311961738737e+03,	 -1.1283483976743815e+02,	 5.9876878098975567e+02,	 8.5360756428728182e+03,	 4.9108713936330230e+02,	 3.1620378475748421e+00 
1.0652960000000000e+00,	 2.8506250000000000e-01,	 4.9295846934931137e-02,	 1.5493329687079661e+03,	 -1.1569085438876917e+02,	 5.9753817100790559e+02,	 8.4743407607302779e+03,	 4.9058223030014403e+02,	 3.1669438214155634e+00 
1.0660390000000000e+00,	 2.8505500000000000e-01,	 4.9047165771455431e-02,	 1.5499070857742990e+03,	 -1.1847189444053143e+02,	 5.9635143740167246e+02,	 8.4148450676934572e+03,	 4.9009483066772066e+02,	 3.1716889771800374e+00 
1.0667869999999999e+00,	 2.8504740000000001e-01,	 4.8807398168098232e-02,	 1.5504496759497451e+03,	 -1.2116781279900584e+02,	 5.9521592255642781e+02,	 8.3577645976215717e+03,	 4.8962801270893976e+02,	 3.1762421009351507e+00 
1.0675390000000000e+00,	 2.8503980000000001e-01,	 4.8580302733609776e-02,	 1.5509592913274025e+03,	 -1.2375777367414534e+02,	 5.9413993917969640e+02,	 8.3038386466500779e+03,	 4.8918525749284453e+02,	 3.1805722225062958e+00 
1.0682959999999999e+00,	 2.8503210000000001e-01,	 4.8365262795453098e-02,	 1.5514294243620602e+03,	 -1.2622562078130383e+02,	 5.9313482094062169e+02,	 8.2530962516239633e+03,	 4.8877130017551906e+02,	 3.1846302475782302e+00 
1.0690580000000001e+00,	 2.8502440000000001e-01,	 4.8166826152890696e-02,	 1.5518572505712207e+03,	 -1.2854345821931065e+02,	 5.9221201593017838e+02,	 8.2064472600939262e+03,	 4.8839093456656099e+02,	 3.1883718480834724e+00 
1.0698250000000000e+00,	 2.8501660000000001e-01,	 4.7985262917119423e-02,	 1.5522336426378297e+03,	 -1.3068366823239262e+02,	 5.9138879859286567e+02,	 8.1641487802612210e+03,	 4.8805136723985697e+02,	 3.1917236780292804e+00 
1.0705970000000000e+00,	 2.8500880000000001e-01,	 4.7826000449943173e-02,	 1.5525535949084028e+03,	 -1.3261107451604082e+02,	 5.9068114490895050e+02,	 8.1273153091236409e+03,	 4.8775927959111004e+02,	 3.1946225175479692e+00 
1.0713729999999999e+00,	 2.8500090000000000e-01,	 4.7690456404377191e-02,	 1.5528046019929379e+03,	 -1.3428353917682091e+02,	 5.9011415377512128e+02,	 8.0965023714215113e+03,	 4.8752512484694324e+02,	 3.1969635980479061e+00 
1.0721550000000000e+00,	 2.8499300000000000e-01,	 4.7587425726965886e-02,	 1.5529760374302678e+03,	 -1.3563232777841176e+02,	 5.8972014277769881e+02,	 8.0736164082968971e+03,	 4.8736234080407053e+02,	 3.1986214734946148e+00 
1.0729420000000001e+00,	 2.8498499999999999e-01,	 4.7517241938403350e-02,	 1.5530449135745716e+03,	 -1.3662374884627508e+02,	 5.8952179660967238e+02,	 8.0589976533432718e+03,	 4.8728037431244206e+02,	 3.1994779890362652e+00 
1.0737340000000000e+00,	 2.8497689999999998e-01,	 4.7487744888466535e-02,	 1.5530293361580334e+03,	 -1.3719455350056177e+02,	 5.8954721401661936e+02,	 8.0543421584740499e+03,	 4.8729087881808135e+02,	 3.1994800394404090e+00 
1.0745309999999999e+00,	 2.8496889999999997e-01,	 4.7507772866275930e-02,	 1.5528860815956862e+03,	 -1.3727279615954043e+02,	 5.8983325953676194e+02,	 8.0616486578047115e+03,	 4.8740908009709318e+02,	 3.1984254967135097e+00 
1.0753330000000001e+00,	 2.8496070000000001e-01,	 4.7577730522005882e-02,	 1.5526008801980229e+03,	 -1.3679582777225414e+02,	 5.9041882834728244e+02,	 8.0815350018513454e+03,	 4.8765096265354748e+02,	 3.1961704587253337e+00 
1.0761410000000000e+00,	 2.8495250000000000e-01,	 4.7700608045727191e-02,	 1.5522084181395398e+03,	 -1.3621583754008205e+02,	 5.9116587762238851e+02,	 8.1126588010107316e+03,	 4.8795937434176165e+02,	 3.1932450236828376e+00 
1.0769530000000000e+00,	 2.8494429999999998e-01,	 4.7830251036651672e-02,	 1.5517153999086931e+03,	 -1.3486492250721352e+02,	 5.9207110838530548e+02,	 8.1471641541307818e+03,	 4.8833282863515274e+02,	 3.1895565264214305e+00 
1.0777720000000000e+00,	 2.8493599999999997e-01,	 4.8083060382783066e-02,	 1.5509126293869131e+03,	 -1.3217085909337726e+02,	 5.9370911624177961e+02,	 8.2128852834518657e+03,	 4.8900786624630729e+02,	 3.1830455853255404e+00 
1.0785950000000000e+00,	 2.8492760000000000e-01,	 4.8457115646980770e-02,	 1.5498913595983688e+03,	 -1.2866812806598094e+02,	 5.9594397455572425e+02,	 8.3079319437296035e+03,	 4.8992737105869156e+02,	 3.1743950939559151e+00 
1.0794250000000001e+00,	 2.8491919999999998e-01,	 4.8880294926901019e-02,	 1.5487461243158828e+03,	 -1.2475956181453543e+02,	 5.9840243512025518e+02,	 8.4150578760647932e+03,	 4.9093688497669154e+02,	 3.1648936192136432e+00 
1.0802590000000001e+00,	 2.8491079999999996e-01,	 4.9357998703367170e-02,	 1.5474620289136553e+03,	 -1.2041887249268953e+02,	 6.0102216742271912e+02,	 8.5344977853070923e+03,	 4.9201034206100661e+02,	 3.1546903451360002e+00 
1.0810999999999999e+00,	 2.8490219999999999e-01,	 4.9885037115208336e-02,	 1.5460571881283731e+03,	 -1.1566072914280687e+02,	 6.0381379346174492e+02,	 8.6656923561010244e+03,	 4.9315166240867165e+02,	 3.1438147061299904e+00 
1.0819460000000001e+00,	 2.8489369999999997e-01,	 5.0454766387629239e-02,	 1.5445703571489980e+03,	 -1.1061156483253805e+02,	 6.0671505992611355e+02,	 8.8067752312241882e+03,	 4.9433501548975528e+02,	 3.1325434483076782e+00 
1.0827979999999999e+00,	 2.8488500000000000e-01,	 5.1048057525746988e-02,	 1.5430232259252757e+03,	 -1.0541684726165042e+02,	 6.0967182806394226e+02,	 8.9537566338724300e+03,	 4.9553809883324527e+02,	 3.1210919840273474e+00 
1.0836560000000000e+00,	 2.8487629999999997e-01,	 5.1656528325627796e-02,	 1.5414626191515645e+03,	 -1.0023100884218313e+02,	 6.1260260721045347e+02,	 9.1040365689432092e+03,	 4.9672773190608297e+02,	 3.1097878353818516e+00 
1.0845190000000000e+00,	 2.8486760000000000e-01,	 5.2261279393784194e-02,	 1.5399190354043608e+03,	 -9.5183454477354275e+01,	 6.1544453943468989e+02,	 9.2533480457120349e+03,	 4.9787858655325050e+02,	 3.0988637593587578e+00 
1.0853889999999999e+00,	 2.8485869999999996e-01,	 5.2848198902538099e-02,	 1.5384215368843988e+03,	 -9.0384961177273709e+01,	 6.1814789760651456e+02,	 9.3983697033901935e+03,	 4.9897086154462954e+02,	 3.0885057741816655e+00 
1.0862639999999999e+00,	 2.8484989999999999e-01,	 5.3410319555416808e-02,	 1.5370033978340271e+03,	 -8.5928848545605746e+01,	 6.2066295224630721e+02,	 9.5369814234271071e+03,	 4.9998491100178182e+02,	 3.0788999645016215e+00 
1.0871459999999999e+00,	 2.8484090000000001e-01,	 5.3932502215189179e-02,	 1.5356735817566423e+03,	 -8.1867387381042562e+01,	 6.2297543646336135e+02,	 9.6661032649953431e+03,	 5.0091547424485498e+02,	 3.0700872792895737e+00 
1.0880330000000000e+00,	 2.8483189999999997e-01,	 5.4414675708061286e-02,	 1.5344523971162873e+03,	 -7.8233339225427557e+01,	 6.2506589247846455e+02,	 9.7852468159536165e+03,	 5.0175520622195421e+02,	 3.0621415161230736e+00 
1.0889270000000000e+00,	 2.8482279999999999e-01,	 5.4850703775608245e-02,	 1.5333406612920935e+03,	 -7.5029769954121974e+01,	 6.2693850005127877e+02,	 9.8932066843486227e+03,	 5.0250623738740666e+02,	 3.0550372042102114e+00 
1.0898270000000001e+00,	 2.8481370000000000e-01,	 5.5241751053812675e-02,	 1.5323425134464824e+03,	 -7.2248609025983171e+01,	 6.2859629252107572e+02,	 9.9900851303413674e+03,	 5.0317017897095138e+02,	 3.0487593688565382e+00 
1.0907330000000000e+00,	 2.8480450000000002e-01,	 5.5587839324168234e-02,	 1.5314509045042214e+03,	 -6.9861018270912410e+01,	 6.3005765106396234e+02,	 1.0076043198392246e+04,	 5.0375472359968654e+02,	 3.0432340350679503e+00 
1.0916459999999999e+00,	 2.8479529999999997e-01,	 5.5893793029428998e-02,	 1.5306608472367388e+03,	 -6.7830872367726300e+01,	 6.3133895822113845e+02,	 1.0152105194437430e+04,	 5.0426669000878678e+02,	 3.0383983216667962e+00 
1.0925650000000000e+00,	 2.8478589999999998e-01,	 5.6159909552320600e-02,	 1.5299596972452787e+03,	 -6.6124185346691689e+01,	 6.3246271351950509e+02,	 1.0218596819629913e+04,	 5.0471527663453890e+02,	 3.0341620921424641e+00 
1.0934910000000000e+00,	 2.8477659999999999e-01,	 5.6396677900987666e-02,	 1.5293456353016668e+03,	 -6.4697734606828647e+01,	 6.3344244712357272e+02,	 1.0277574222969492e+04,	 5.0510604683740246e+02,	 3.0304794922087077e+00 
1.0944229999999999e+00,	 2.8476710000000000e-01,	 5.6600237109967602e-02,	 1.5287978502854730e+03,	 -6.3514113000716122e+01,	 6.3430610010152213e+02,	 1.0328733596028533e+04,	 5.0545026733495075e+02,	 3.0272347875932994e+00 
1.0953619999999999e+00,	 2.8475760000000000e-01,	 5.6782187029548681e-02,	 1.5283154297551748e+03,	 -6.2535482172757881e+01,	 6.3506520174888396e+02,	 1.0374337433205148e+04,	 5.0575262404026182e+02,	 3.0243922280840532e+00 
1.0963069999999999e+00,	 2.8474800000000000e-01,	 5.6941317727133178e-02,	 1.5278833884792753e+03,	 -6.1726976622520866e+01,	 6.3574056920379098e+02,	 1.0414474889818910e+04,	 5.0602147682772619e+02,	 3.0218673414204367e+00 
1.0972599999999999e+00,	 2.8473830000000000e-01,	 5.7083400192697115e-02,	 1.5274959657294380e+03,	 -6.1058967144104457e+01,	 6.3634487065305382e+02,	 1.0450385694902534e+04,	 5.0626191836495519e+02,	 3.0196145229006697e+00 
1.0982190000000001e+00,	 2.8472860000000000e-01,	 5.7211664574701206e-02,	 1.5271480153561511e+03,	 -6.0505925781168742e+01,	 6.3688747096671580e+02,	 1.0482798228405079e+04,	 5.0647771278381583e+02,	 3.0175980808539538e+00 
1.0991850000000001e+00,	 2.8471879999999999e-01,	 5.7326193449266517e-02,	 1.5268299939934959e+03,	 -6.0042417306748206e+01,	 6.3738195076775696e+02,	 1.0511938307100208e+04,	 5.0667428943032172e+02,	 3.0157640725802297e+00 
1.1001580000000000e+00,	 2.8470889999999999e-01,	 5.7430573484947255e-02,	 1.5265393837079891e+03,	 -5.9649774713016811e+01,	 6.3783455303100015e+02,	 1.0538556611459964e+04,	 5.0685415115542889e+02,	 3.0140906373785343e+00 
1.1011380000000000e+00,	 2.8469899999999998e-01,	 5.7527259214879743e-02,	 1.5262749861543844e+03,	 -5.9309896630122580e+01,	 6.3824876138417721e+02,	 1.0563153757976492e+04,	 5.0701869942985957e+02,	 3.0125652606687678e+00 
1.1021250000000000e+00,	 2.8468899999999997e-01,	 5.7614687579032750e-02,	 1.5260310222520002e+03,	 -5.9006801419280222e+01,	 6.3863152748098787e+02,	 1.0585551840269018e+04,	 5.0717070950221705e+02,	 3.0111585131000282e+00 
1.1031190000000000e+00,	 2.8467890000000001e-01,	 5.7694813729232214e-02,	 1.5258073718971045e+03,	 -5.8726147807882811e+01,	 6.3898497203553188e+02,	 1.0606140045872728e+04,	 5.0731103449610083e+02,	 3.0098637574190543e+00 
1.1041200000000000e+00,	 2.8466870000000000e-01,	 5.7768159368196792e-02,	 1.5256039912062688e+03,	 -5.8456122023508996e+01,	 6.3930996800795765e+02,	 1.0625024581862901e+04,	 5.0744003055333070e+02,	 3.0086776990192661e+00 
1.1051290000000000e+00,	 2.8465849999999998e-01,	 5.7835998550282978e-02,	 1.5254235306610074e+03,	 -5.8184472821660009e+01,	 6.3960400652145881e+02,	 1.0642394439637033e+04,	 5.0755671085511023e+02,	 3.0076103113231478e+00 
1.1061449999999999e+00,	 2.8464819999999996e-01,	 5.7895152769802546e-02,	 1.5252625631664691e+03,	 -5.7899409774418814e+01,	 6.3986999389536436e+02,	 1.0657709700025658e+04,	 5.0766223680743809e+02,	 3.0066469319549545e+00 
1.1071690000000001e+00,	 2.8463780000000000e-01,	 5.7947737007187888e-02,	 1.5251252544644685e+03,	 -5.7591738778655049e+01,	 6.4010428899041108e+02,	 1.0671295718879870e+04,	 5.0775517122155100e+02,	 3.0058034707318875e+00 
1.1082000000000001e+00,	 2.8462739999999997e-01,	 5.7993331899223802e-02,	 1.5250142793361554e+03,	 -5.7249778519003129e+01,	 6.4030355487297618e+02,	 1.0683016803137805e+04,	 5.0783419772631760e+02,	 3.0050920164730508e+00 
1.1092379999999999e+00,	 2.8461680000000000e-01,	 5.8028240918505919e-02,	 1.5249262617748593e+03,	 -5.6865022045214403e+01,	 6.4047021758497704e+02,	 1.0692229757335155e+04,	 5.0790028475428460e+02,	 3.0044994998231473e+00 
1.1102850000000000e+00,	 2.8460619999999998e-01,	 5.8056993118519584e-02,	 1.5248705493495938e+03,	 -5.6428389273776574e+01,	 6.4059536121311726e+02,	 1.0699617836865262e+04,	 5.0794990250238720e+02,	 3.0040644976443955e+00 
1.1113390000000001e+00,	 2.8459550000000000e-01,	 5.8074638673696583e-02,	 1.5248450778344381e+03,	 -5.5932475681809521e+01,	 6.4067932978555700e+02,	 1.0704272746784758e+04,	 5.0798319218349383e+02,	 3.0037815804464159e+00 
1.1124000000000001e+00,	 2.8458479999999997e-01,	 5.8082419131522012e-02,	 1.5248549801428355e+03,	 -5.5360130811547663e+01,	 6.4071443926117422e+02,	 1.0706293511673124e+04,	 5.0799711083072958e+02,	 3.0036776713439508e+00 
1.1134700000000000e+00,	 2.8457389999999999e-01,	 5.8078303344662616e-02,	 1.5248930731383530e+03,	 -5.4719737843458702e+01,	 6.4070972223996478e+02,	 1.0705456035921763e+04,	 5.0799524085761078e+02,	 3.0037181938207134e+00 
1.1145480000000001e+00,	 2.8456300000000001e-01,	 5.8065086490580391e-02,	 1.5249724157860740e+03,	 -5.4003179387608711e+01,	 6.4065038618645337e+02,	 1.0702028594545667e+04,	 5.0797171762263173e+02,	 3.0039631316299720e+00 
1.1156340000000000e+00,	 2.8455199999999997e-01,	 5.8037940757186920e-02,	 1.5250892334889490e+03,	 -5.3200717997028669e+01,	 6.4053747537293884e+02,	 1.0695140052895924e+04,	 5.0792695215578755e+02,	 3.0044022337999809e+00 
1.1167270000000000e+00,	 2.8454089999999999e-01,	 5.8000433645722868e-02,	 1.5252408809094941e+03,	 -5.2290455900538454e+01,	 6.4037935180982458e+02,	 1.0685589797556688e+04,	 5.0786425467137366e+02,	 3.0050096087113674e+00 
1.1178300000000001e+00,	 2.8452970000000000e-01,	 5.7951210649688181e-02,	 1.5254305260836659e+03,	 -5.1279756458401877e+01,	 6.4016892508980141e+02,	 1.0673013028163839e+04,	 5.0778080648584825e+02,	 3.0058091763599224e+00 
1.1189400000000000e+00,	 2.8451840000000000e-01,	 5.7888763161529813e-02,	 1.5256601875077506e+03,	 -5.0175841832369350e+01,	 6.3990063269481129e+02,	 1.0657043725303791e+04,	 5.0767439081951773e+02,	 3.0068191000167128e+00 
1.1200580000000000e+00,	 2.8450710000000001e-01,	 5.7814577282639515e-02,	 1.5259313300719054e+03,	 -4.8971294446771800e+01,	 6.3957390406797572e+02,	 1.0637952024703191e+04,	 5.0754476683826778e+02,	 3.0080438982608522e+00 
1.1211860000000000e+00,	 2.8449560000000002e-01,	 5.7725798553587421e-02,	 1.5262376735097528e+03,	 -4.7664032172812277e+01,	 6.3919504388513042e+02,	 1.0615324774251822e+04,	 5.0739441909381702e+02,	 3.0094571456533736e+00 
1.1223209999999999e+00,	 2.8448409999999996e-01,	 5.7627036708542079e-02,	 1.5265846434007531e+03,	 -4.6254002785820248e+01,	 6.3875953926381999e+02,	 1.0589943044023112e+04,	 5.0722153738246510e+02,	 3.0110811456705382e+00 
1.1234649999999999e+00,	 2.8447249999999996e-01,	 5.7515272011501105e-02,	 1.5269664373334135e+03,	 -4.4739765043200869e+01,	 6.3827205806496158e+02,	 1.0561338152738028e+04,	 5.0702795267539875e+02,	 3.0128944983647337e+00 
1.1246179999999999e+00,	 2.8446080000000001e-01,	 5.7392092307771550e-02,	 1.5273822230500532e+03,	 -4.3123566213646662e+01,	 6.3773440725767716e+02,	 1.0529841744698513e+04,	 5.0681435925856351e+02,	 3.0148926161598997e+00 
1.1257800000000000e+00,	 2.8444900000000001e-01,	 5.7258196839043082e-02,	 1.5278313012902418e+03,	 -4.1408490955924478e+01,	 6.3714685535002263e+02,	 1.0495597046706578e+04,	 5.0658083856500178e+02,	 3.0170749162700110e+00 
1.1269499999999999e+00,	 2.8443720000000000e-01,	 5.7114571848948296e-02,	 1.5283128760232767e+03,	 -3.9596170877067294e+01,	 6.3651060830878851e+02,	 1.0458815675810034e+04,	 5.0632784268107036e+02,	 3.0194383918920185e+00 
1.1281289999999999e+00,	 2.8442519999999999e-01,	 5.6959181966109218e-02,	 1.5288201187541117e+03,	 -3.7690362344183548e+01,	 6.3583227777452248e+02,	 1.0419245038598550e+04,	 5.0605797350198191e+02,	 3.0219554338569763e+00 
1.1293169999999999e+00,	 2.8441319999999998e-01,	 5.6796848226230844e-02,	 1.5293572212991257e+03,	 -3.5695470357688123e+01,	 6.3510914368820465e+02,	 1.0377734108502505e+04,	 5.0577012095761620e+02,	 3.0246423632300838e+00 
1.1305149999999999e+00,	 2.8440100000000001e-01,	 5.6623659418214380e-02,	 1.5299162120030401e+03,	 -3.3614688060475828e+01,	 6.3434809033304714e+02,	 1.0333691863783335e+04,	 5.0546699713031938e+02,	 3.0274685788887985e+00 
1.1317210000000000e+00,	 2.8438880000000000e-01,	 5.6444380414875997e-02,	 1.5305004909228956e+03,	 -3.1452946974904371e+01,	 6.3354725001023644e+02,	 1.0287969257088775e+04,	 5.0514782994067872e+02,	 3.0304468455407423e+00 
1.1329370000000001e+00,	 2.8437639999999997e-01,	 5.6255582336291271e-02,	 1.5311017345265759e+03,	 -2.9214787013983894e+01,	 6.3271462480014020e+02,	 1.0240082019075604e+04,	 5.0481578122644260e+02,	 3.0335431026759943e+00 
1.1341619999999999e+00,	 2.8436400000000001e-01,	 5.6062090539718716e-02,	 1.5317249614137172e+03,	 -2.6905364181344588e+01,	 6.3184613253960731e+02,	 1.0190853479035279e+04,	 5.0446919594391596e+02,	 3.0367785729455115e+00 
1.1353960000000001e+00,	 2.8435149999999998e-01,	 5.5861061773273310e-02,	 1.5323627837515494e+03,	 -2.4528624810508873e+01,	 6.3094880958467047e+02,	 1.0139890124504924e+04,	 5.0411085504639624e+02,	 3.0401231622668972e+00 
1.1366400000000001e+00,	 2.8433890000000001e-01,	 5.5654739784848577e-02,	 1.5330149911884137e+03,	 -2.2089836312379113e+01,	 6.3002397767408479e+02,	 1.0087630644723629e+04,	 5.0374126185072106e+02,	 3.0435746478494603e+00 
1.1378940000000000e+00,	 2.8432619999999997e-01,	 5.5443485693319569e-02,	 1.5336803975770786e+03,	 -1.9593975451668889e+01,	 6.2907290022760503e+02,	 1.0034169671025324e+04,	 5.0336089704199833e+02,	 3.0471289401316457e+00 
1.1391570000000000e+00,	 2.8431339999999999e-01,	 5.5227114040981878e-02,	 1.5343563021520213e+03,	 -1.7043333054081245e+01,	 6.2809872264286014e+02,	 9.9795325008499694e+03,	 5.0297099557511314e+02,	 3.0507742389827981e+00 
1.1404300000000001e+00,	 2.8430040000000001e-01,	 5.5005706435797885e-02,	 1.5350398013551107e+03,	 -1.4443793651068852e+01,	 6.2710481826748503e+02,	 9.9237958564889377e+03,	 5.0257288698611080e+02,	 3.0544977520108945e+00 
1.1417130000000000e+00,	 2.8428739999999997e-01,	 5.4782562621763398e-02,	 1.5357335659143191e+03,	 -1.1802370587746921e+01,	 6.2608901341746355e+02,	 9.8675279265329973e+03,	 5.0216568003566806e+02,	 3.0583111867312436e+00 
1.1430050000000000e+00,	 2.8427429999999998e-01,	 5.4554821647009116e-02,	 1.5364304415027470e+03,	 -9.1216031863408595e+00,	 6.2505836387856880e+02,	 9.8103307266110314e+03,	 5.0175218452007181e+02,	 3.0621840135397314e+00 
1.1443080000000001e+00,	 2.8426109999999999e-01,	 5.4324790447857804e-02,	 1.5371319919837495e+03,	 -6.4053409907031149e+00,	 6.2401245216865607e+02,	 9.7526188904828741e+03,	 5.0133221717627140e+02,	 3.0661211967285431e+00 
1.1456210000000000e+00,	 2.8424779999999999e-01,	 5.4092542528658874e-02,	 1.5378371019631952e+03,	 -3.6583768179333509e+00,	 6.2295251842549874e+02,	 9.6944299881128700e+03,	 5.0090626031384238e+02,	 3.0701182541999072e+00 
1.1469440000000000e+00,	 2.8423440000000000e-01,	 5.3858173931191439e-02,	 1.5385438764353155e+03,	 -8.8279709661996919e-01,	 6.2188112107524694e+02,	 9.6358256828402809e+03,	 5.0047532812134574e+02,	 3.0741657845143262e+00 
1.1482779999999999e+00,	 2.8422080000000000e-01,	 5.3621437716193515e-02,	 1.5392494985556109e+03,	 1.9167460073560276e+00,	 6.2080162626192168e+02,	 9.5768180791972773e+03,	 5.0004076341143644e+02,	 3.0782504239556725e+00 
1.1496210000000000e+00,	 2.8420719999999999e-01,	 5.3385500676908421e-02,	 1.5399585295977154e+03,	 4.7345644626797387e+00,	 6.1970986369337220e+02,	 9.5179115876106389e+03,	 4.9960087569426929e+02,	 3.0823921307008426e+00 
1.1509760000000000e+00,	 2.8419349999999999e-01,	 5.3147502215964329e-02,	 1.5406649935400897e+03,	 7.5719775872923085e+00,	 6.1861161833494964e+02,	 9.4586873091798116e+03,	 4.9915798484791640e+02,	 3.0865650703185401e+00 
1.1523410000000001e+00,	 2.8417959999999998e-01,	 5.2908217476780595e-02,	 1.5413671646972566e+03,	 1.0423484968426887e+01,	 6.1750967662041762e+02,	 9.3993286490874052e+03,	 4.9871320806260269e+02,	 3.0907591452318974e+00 
1.1537160000000000e+00,	 2.8416569999999997e-01,	 5.2670740019996387e-02,	 1.5420695664350847e+03,	 1.3284995297684555e+01,	 6.1640024912472245e+02,	 9.3403287705708426e+03,	 4.9826500870592582e+02,	 3.0949931539040629e+00 
1.1551030000000000e+00,	 2.8415160000000000e-01,	 5.2424684646212007e-02,	 1.5427803087740740e+03,	 1.6082442121830478e+01,	 6.1526754469262380e+02,	 9.2796109964698517e+03,	 4.9780698933938208e+02,	 3.0993219537552417e+00 
1.1565000000000001e+00,	 2.8413739999999998e-01,	 5.2222048821848908e-02,	 1.5432643035420992e+03,	 1.8184498238780463e+01,	 6.1433763903683041e+02,	 9.2297719009368648e+03,	 4.9743065827720397e+02,	 3.1026865943621034e+00 
1.0567210000000000e+00,	 2.8585329999999998e-01,	 5.3580362812894342e-02,	 1.5391206322690714e+03,	 -7.1196118134414647e+01,	 6.1825174968168153e+02,	 9.5301764502889946e+03,	 4.9901277463964317e+02,	 3.0876292422311931e+00 
1.0574120000000000e+00,	 2.8584660000000001e-01,	 5.3294594804047392e-02,	 1.5397524583828908e+03,	 -7.4138098376257346e+01,	 6.1692897779230361e+02,	 9.4590663562113168e+03,	 4.9847866089427089e+02,	 3.0924819798657990e+00 
1.0581080000000000e+00,	 2.8583979999999998e-01,	 5.2964702277365737e-02,	 1.5405777960624300e+03,	 -7.7476854609614989e+01,	 6.1540832635308220e+02,	 9.3773438423903535e+03,	 4.9786393861833704e+02,	 3.0982857599477365e+00 
1.0588080000000000e+00,	 2.8583300000000000e-01,	 5.2642318145600796e-02,	 1.5413770555198355e+03,	 -8.0758578320143940e+01,	 6.1392148589391365e+02,	 9.2977481029539522e+03,	 4.9726214963691467e+02,	 3.1039789184309949e+00 
1.0595110000000001e+00,	 2.8582619999999997e-01,	 5.2327534264474201e-02,	 1.5421569181805492e+03,	 -8.3993524440018717e+01,	 6.1246197128571475e+02,	 9.2201786512466897e+03,	 4.9667071143890661e+02,	 3.1095906020585100e+00 
1.0602190000000000e+00,	 2.8581930000000000e-01,	 5.2017637382292523e-02,	 1.5429177301355380e+03,	 -8.7194082518906384e+01,	 6.1102524570942910e+02,	 9.1440736348269766e+03,	 4.9608781933993731e+02,	 3.1151330109893633e+00 
1.0609310000000001e+00,	 2.8581239999999997e-01,	 5.1713533119614685e-02,	 1.5436610958914073e+03,	 -9.0361714160520108e+01,	 6.0960889979215301e+02,	 9.0695438814793361e+03,	 4.9551252428688144e+02,	 3.1206145608583782e+00 
1.0616479999999999e+00,	 2.8580539999999999e-01,	 5.1413984323040521e-02,	 1.5443871200003603e+03,	 -9.3502032178190262e+01,	 6.0821099411932232e+02,	 8.9963317987352784e+03,	 4.9494406365244060e+02,	 3.1260400872275951e+00 
1.0623689999999999e+00,	 2.8579840000000001e-01,	 5.1119162096488348e-02,	 1.5450936192426796e+03,	 -9.6609431901638828e+01,	 6.0683432523787974e+02,	 8.9244981223576942e+03,	 4.9438360017681987e+02,	 3.1313963518618131e+00 
1.0630940000000000e+00,	 2.8579129999999997e-01,	 5.0830067255178392e-02,	 1.5457828864869825e+03,	 -9.9686545419976170e+01,	 6.0547660855424465e+02,	 8.8541727581398136e+03,	 4.9383022942565009e+02,	 3.1366931786003036e+00 
1.0638230000000000e+00,	 2.8578419999999999e-01,	 5.0546608866803275e-02,	 1.5464537180763527e+03,	 -1.0273028805049856e+02,	 6.0414091284713641e+02,	 8.7853730871553635e+03,	 4.9328522811009435e+02,	 3.1419187909402440e+00 
1.0645570000000000e+00,	 2.8577710000000001e-01,	 5.0268116147436800e-02,	 1.5471039757458643e+03,	 -1.0574016843293180e+02,	 6.0282851947977554e+02,	 8.7179894214077231e+03,	 4.9274914769138928e+02,	 3.1470643696498146e+00 
1.0652960000000000e+00,	 2.8576989999999997e-01,	 4.9995830495184204e-02,	 1.5477319606639321e+03,	 -1.0870699823909493e+02,	 6.0154309858485783e+02,	 8.6522781595810848e+03,	 4.9222351889537464e+02,	 3.1521144242311316e+00 
1.0660390000000000e+00,	 2.8576269999999998e-01,	 4.9731451223288758e-02,	 1.5483375629991615e+03,	 -1.1162167459137279e+02,	 6.0028873957722556e+02,	 8.5885780536233742e+03,	 4.9171005010876314e+02,	 3.1570553105414096e+00 
1.0667869999999999e+00,	 2.8575539999999999e-01,	 4.9474209922233760e-02,	 1.5489172477463540e+03,	 -1.1447920994631991e+02,	 5.9906965592686811e+02,	 8.5268009950742562e+03,	 4.9121050689689338e+02,	 3.1618664437590001e+00 
1.0675390000000000e+00,	 2.8574810000000000e-01,	 4.9226432944761964e-02,	 1.5494695504583171e+03,	 -1.1726578598594814e+02,	 5.9789110281102649e+02,	 8.4674062171031092e+03,	 4.9072708842032205e+02,	 3.1665271016468033e+00 
1.0682959999999999e+00,	 2.8574079999999996e-01,	 4.8987888213053846e-02,	 1.5499906915373970e+03,	 -1.1997225786358078e+02,	 5.9675888542543180e+02,	 8.4104173971382806e+03,	 4.9026222698880025e+02,	 3.1710107656086266e+00 
1.0690580000000001e+00,	 2.8573339999999997e-01,	 4.8761307106826371e-02,	 1.5504778705827639e+03,	 -1.2258144867476115e+02,	 5.9568061652794972e+02,	 8.3563908476761189e+03,	 4.8981910537466911e+02,	 3.1752865009573430e+00 
1.0698250000000000e+00,	 2.8572589999999998e-01,	 4.8547395175323131e-02,	 1.5509247134889424e+03,	 -1.2507430680111466e+02,	 5.9466758655248327e+02,	 8.3055832802404984e+03,	 4.8940242858061600e+02,	 3.1793055312119742e+00 
1.0705970000000000e+00,	 2.8571839999999998e-01,	 4.8349806922650763e-02,	 1.5513271404325362e+03,	 -1.2742425891563700e+02,	 5.9373167805156231e+02,	 8.2587610818193280e+03,	 4.8901715766305006e+02,	 3.1830203933218408e+00 
1.0713740000000000e+00,	 2.8571079999999999e-01,	 4.8169535892607952e-02,	 1.5516767871071424e+03,	 -1.2960957473950168e+02,	 5.9288614798630203e+02,	 8.2162510950292435e+03,	 4.8866883026396340e+02,	 3.1863715108599537e+00 
1.0721550000000000e+00,	 2.8570329999999999e-01,	 4.8011546871110602e-02,	 1.5519648738327796e+03,	 -1.3158694341693246e+02,	 5.9215165182634041e+02,	 8.1791576886638395e+03,	 4.8836604311587365e+02,	 3.1892744348790383e+00 
1.0729420000000001e+00,	 2.8569559999999999e-01,	 4.7879589702527259e-02,	 1.5521794061871205e+03,	 -1.3331990302668692e+02,	 5.9154795485146985e+02,	 8.1483620008183188e+03,	 4.8811703571749666e+02,	 3.1916412094095539e+00 
1.0737340000000000e+00,	 2.8568789999999999e-01,	 4.7775941202726907e-02,	 1.5523192596677040e+03,	 -1.3476054726966123e+02,	 5.9109999380368185e+02,	 8.1245654912607542e+03,	 4.8793218271590729e+02,	 3.1933899381253945e+00 
1.0745309999999999e+00,	 2.8568020000000000e-01,	 4.7709181439412669e-02,	 1.5523616774412349e+03,	 -1.3585485930140840e+02,	 5.9083348803150602e+02,	 8.1095546644686310e+03,	 4.8782217476038562e+02,	 3.1943914912269578e+00 
1.0753330000000001e+00,	 2.8567239999999999e-01,	 4.7682464597335848e-02,	 1.5522953513216678e+03,	 -1.3654507377091517e+02,	 5.9078075386352987e+02,	 8.1042899610618897e+03,	 4.8780040426915201e+02,	 3.1945222788325851e+00 
1.0761410000000000e+00,	 2.8566449999999999e-01,	 4.7705200978700624e-02,	 1.5521029150111967e+03,	 -1.3646829409905439e+02,	 5.9105434170975559e+02,	 8.1119091703703152e+03,	 4.8791334025593801e+02,	 3.1933761750735252e+00 
1.0769540000000000e+00,	 2.8565659999999998e-01,	 4.7790429106064826e-02,	 1.5517718579151679e+03,	 -1.3589600986802526e+02,	 5.9164270328924817e+02,	 8.1344909486130391e+03,	 4.8815612508840366e+02,	 3.1910098855772797e+00 
1.0777720000000000e+00,	 2.8564869999999998e-01,	 4.7915405611087286e-02,	 1.5513096313112289e+03,	 -1.3528512409743814e+02,	 5.9241262058030532e+02,	 8.1663766831879002e+03,	 4.8847364582071492e+02,	 3.1878840945197640e+00 
1.0785960000000001e+00,	 2.8564069999999997e-01,	 4.8088772391043137e-02,	 1.5506963826553690e+03,	 -1.3401549922152230e+02,	 5.9340216452686741e+02,	 8.2096143070825347e+03,	 4.8888143968069022e+02,	 3.1837506596212730e+00 