TITLE = "Final State"
VARIABLES = "X", "Y", "rho", "u", "v", "T", "p", "c", "M"
ZONE I=80, J=25, DATAPACKING=POINT, STRANDID=71000, SOLUTIONTIME=0.001713
9.5381020000000005e-01,	 2.7986069999999996e-01,	 4.6814770942456750e-02,	 1.5492624308317497e+03,	 1.4192459582229401e+02,	 5.8681879028153116e+02,	 7.9034525819651772e+03,	 4.8616198039347614e+02,	 3.2000642077433636e+00 
9.5459059999999996e-01,	 2.7996050000000000e-01,	 4.8560894732339044e-02,	 1.5457212435227470e+03,	 1.2558634103483332e+02,	 5.9595154272528316e+02,	 8.3258305133532303e+03,	 4.8993048195652938e+02,	 3.1653769490380510e+00 
9.5535530000000002e-01,	 2.8005829999999998e-01,	 5.0359954057268064e-02,	 1.5415681039193719e+03,	 1.0786976289705757e+02,	 6.0543727535683070e+02,	 8.7717131010597350e+03,	 4.9381418897330661e+02,	 3.1293907141485384e+00 
9.5611999999999997e-01,	 2.8015600000000002e-01,	 5.1868185630549457e-02,	 1.5381565472043444e+03,	 9.3133237394891722e+01,	 6.1307329264246346e+02,	 9.1483630532288662e+03,	 4.9691852248694255e+02,	 3.1010587086602084e+00 
9.5686959999999999e-01,	 2.8025180000000000e-01,	 5.3105455523396433e-02,	 1.5353922515778472e+03,	 8.1212299512092386e+01,	 6.1913532073401984e+02,	 9.4592054110702884e+03,	 4.9936922799617281e+02,	 3.0789613524380837e+00 
9.5761920000000000e-01,	 2.8034759999999997e-01,	 5.4116695862845260e-02,	 1.5331622741384422e+03,	 7.1581971505198254e+01,	 6.2396309008903461e+02,	 9.7144923408525865e+03,	 5.0131238801248702e+02,	 3.0616287372641913e+00 
9.5835420000000004e-01,	 2.8044150000000001e-01,	 5.4928972597221029e-02,	 1.5313794873676527e+03,	 6.3918367725949949e+01,	 6.2776250314666936e+02,	 9.9203452025105889e+03,	 5.0283635806866653e+02,	 3.0481345057089864e+00 
9.5908919999999998e-01,	 2.8053529999999999e-01,	 5.5584125856621390e-02,	 1.5299519467510247e+03,	 5.7784114693170778e+01,	 6.3077532052586275e+02,	 1.0086846469459180e+04,	 5.0404154377325079e+02,	 3.0375328954902101e+00 
9.5981019999999995e-01,	 2.8062739999999997e-01,	 5.6109428175471723e-02,	 1.5288166728722067e+03,	 5.2925085750318800e+01,	 6.3314304259544099e+02,	 1.0220393547594189e+04,	 5.0498666036998657e+02,	 3.0292532610438871e+00 
9.6053109999999997e-01,	 2.8071940000000001e-01,	 5.6531020478015392e-02,	 1.5279030799075426e+03,	 4.9033222035954878e+01,	 6.3502845451445341e+02,	 1.0327850636203337e+04,	 5.0573799146470463e+02,	 3.0226909712321253e+00 
9.6123840000000005e-01,	 2.8080959999999999e-01,	 5.6870236046252562e-02,	 1.5271696974321244e+03,	 4.5936145318249437e+01,	 6.3652383624159404e+02,	 1.0414289348579454e+04,	 5.0633310389415607e+02,	 3.0175005194782361e+00 
9.6194579999999996e-01,	 2.8089989999999998e-01,	 5.7148840754949692e-02,	 1.5265752340346564e+03,	 4.3440778783841608e+01,	 6.3772772980564787e+02,	 1.0485102110413607e+04,	 5.0681170593031902e+02,	 3.0133344876837662e+00 
9.6264000000000005e-01,	 2.8098839999999997e-01,	 5.7373876565321918e-02,	 1.5260868353198034e+03,	 4.1434054558639332e+01,	 6.3869970926993915e+02,	 1.0542433025150011e+04,	 5.0719778214260805e+02,	 3.0099682284903637e+00 
9.6333429999999998e-01,	 2.8107689999999996e-01,	 5.7562690892390911e-02,	 1.5256820461939583e+03,	 3.9796231221400063e+01,	 6.3949797820501442e+02,	 1.0590347261524650e+04,	 5.0751463981314004e+02,	 3.0072058323136543e+00 
9.6401590000000004e-01,	 2.8116379999999996e-01,	 5.7721156918929276e-02,	 1.5253432482889089e+03,	 3.8459714300660735e+01,	 6.4015567471730856e+02,	 1.0630423446854995e+04,	 5.0777555137318717e+02,	 3.0049261432226420e+00 
9.6469760000000004e-01,	 2.8125069999999996e-01,	 5.7856638381608053e-02,	 1.5250534743989792e+03,	 3.7348409146786921e+01,	 6.4070996527954026e+02,	 1.0664601027583120e+04,	 5.0799533720618462e+02,	 3.0030014520719615e+00 
9.6536699999999998e-01,	 2.8133599999999997e-01,	 5.7973487263967220e-02,	 1.5248026697730056e+03,	 3.6422328263277535e+01,	 6.4118014752371971e+02,	 1.0693981531011807e+04,	 5.0818169811584801e+02,	 3.0013627328811601e+00 
9.6603649999999996e-01,	 2.8142129999999999e-01,	 5.8077537199494336e-02,	 1.5245818543637661e+03,	 3.5634960808735308e+01,	 6.4158754860013187e+02,	 1.0719981998169967e+04,	 5.0834311990591812e+02,	 2.9999388137197052e+00 
9.6669430000000001e-01,	 2.8150510000000001e-01,	 5.8170246182379079e-02,	 1.5243905584326506e+03,	 3.4963158089326654e+01,	 6.4194679011330572e+02,	 1.0743106248044636e+04,	 5.0848541724010653e+02,	 2.9986926045274824e+00 
9.6735210000000005e-01,	 2.8158879999999997e-01,	 5.8253544745983432e-02,	 1.5242311487305221e+03,	 3.4376242152324473e+01,	 6.4228523894074021e+02,	 1.0764162267902591e+04,	 5.0861944206786347e+02,	 2.9975628533666971e+00 
9.6799869999999999e-01,	 2.8167110000000001e-01,	 5.8331863294198767e-02,	 1.5240782847468195e+03,	 3.3865583778943588e+01,	 6.4259737806110775e+02,	 1.0783872289474513e+04,	 5.0874301702465692e+02,	 2.9965118737862384e+00 
9.6864519999999998e-01,	 2.8175339999999999e-01,	 5.8405395841788665e-02,	 1.5239120603660335e+03,	 3.3409734621942334e+01,	 6.4285044683881188e+02,	 1.0801718604400774e+04,	 5.0884318417794543e+02,	 2.9955756422586357e+00 
9.6928099999999995e-01,	 2.8183429999999998e-01,	 5.8473850936841182e-02,	 1.5237538522180885e+03,	 3.2995339001280669e+01,	 6.4306965128293257e+02,	 1.0818066529114423e+04,	 5.0892993155518212e+02,	 2.9947365169454043e+00 
9.6991680000000002e-01,	 2.8191519999999998e-01,	 5.8540193789455408e-02,	 1.5236120437910658e+03,	 3.2614549478446392e+01,	 6.4329120363202674e+02,	 1.0834071717778050e+04,	 5.0901759306405995e+02,	 2.9939261418049434e+00 
9.7054220000000002e-01,	 2.8199479999999999e-01,	 5.8604093352590397e-02,	 1.5234804375298781e+03,	 3.2265095122846702e+01,	 6.4350457143599715e+02,	 1.0849495035278920e+04,	 5.0910200192981210e+02,	 2.9931566901995441e+00 
9.7116760000000002e-01,	 2.8207430000000000e-01,	 5.8664111826516332e-02,	 1.5233525313980858e+03,	 3.1936985743071780e+01,	 6.4371228651274998e+02,	 1.0864112042830777e+04,	 5.0918416112023328e+02,	 2.9924090130215411e+00 
9.7178310000000001e-01,	 2.8215249999999997e-01,	 5.8723394186663211e-02,	 1.5232306769666293e+03,	 3.1629732429875851e+01,	 6.4391114613017032e+02,	 1.0878450250271122e+04,	 5.0926280522151438e+02,	 2.9916950935088442e+00 
9.7239860000000000e-01,	 2.8223080000000000e-01,	 5.8783262713720044e-02,	 1.5231142618684862e+03,	 3.1339386990698006e+01,	 6.4410260388125698e+02,	 1.0892778684148232e+04,	 5.0933851059277117e+02,	 2.9910101307856367e+00 
9.7300460000000000e-01,	 2.8230780000000000e-01,	 5.8838842380383949e-02,	 1.5229988091169898e+03,	 3.1062363525740594e+01,	 6.4428887216714656e+02,	 1.0906230888772294e+04,	 5.0941215317129155e+02,	 2.9903400092392927e+00 
9.7361059999999999e-01,	 2.8238479999999999e-01,	 5.8895012575295544e-02,	 1.5228868281601135e+03,	 3.0797294911161369e+01,	 6.4447044022998125e+02,	 1.0919718901601025e+04,	 5.0948392723596282e+02,	 2.9896884303684783e+00 
9.7420750000000000e-01,	 2.8246060000000001e-01,	 5.8949144468562982e-02,	 1.5227768632012348e+03,	 3.0543104362637337e+01,	 6.4464730463890055e+02,	 1.0932754984251216e+04,	 5.0955383222042150e+02,	 2.9890524716407976e+00 
9.7480440000000002e-01,	 2.8253639999999997e-01,	 5.9003250570243020e-02,	 1.5226695718363635e+03,	 3.0297213559788304e+01,	 6.4482056934361867e+02,	 1.0945730686588555e+04,	 5.0962230513737239e+02,	 2.9884307359046258e+00 
9.7539260000000005e-01,	 2.8261110000000000e-01,	 5.9056354090430641e-02,	 1.5225645678974404e+03,	 3.0060653110662230e+01,	 6.4498951963094305e+02,	 1.0958452440993586e+04,	 5.0968906417070929e+02,	 2.9878241388662592e+00 
9.7598090000000004e-01,	 2.8268579999999999e-01,	 5.9108639111349323e-02,	 1.5224608678743843e+03,	 2.9830126135239283e+01,	 6.4515613680477509e+02,	 1.0970987762811996e+04,	 5.0975489273465507e+02,	 2.9872260134388764e+00 
9.7656080000000001e-01,	 2.8275939999999999e-01,	 5.9159652056074638e-02,	 1.5223584583275444e+03,	 2.9606885061542677e+01,	 6.4531970884493683e+02,	 1.0983240102013197e+04,	 5.0981950993240150e+02,	 2.9866380147436655e+00 
9.7714080000000003e-01,	 2.8283300000000000e-01,	 5.9210839335157979e-02,	 1.5222581957051743e+03,	 2.9388617280549965e+01,	 6.4548079787279312e+02,	 1.0995487319481297e+04,	 5.0988313824215260e+02,	 2.9860604174671770e+00 
9.7771290000000000e-01,	 2.8290559999999998e-01,	 5.9260710420196101e-02,	 1.5221585489332683e+03,	 2.9177468141253822e+01,	 6.4563949843361524e+02,	 1.1007454081648119e+04,	 5.0994581537144694e+02,	 2.9854900682383980e+00 
9.7828499999999996e-01,	 2.8297810000000001e-01,	 5.9308984754199781e-02,	 1.5220594159849495e+03,	 2.8968336154605637e+01,	 6.4579726507327393e+02,	 1.1019112799036960e+04,	 5.1000811602352314e+02,	 2.9849232015227418e+00 
9.7884959999999999e-01,	 2.8304979999999996e-01,	 5.9360602811348320e-02,	 1.5219654392199111e+03,	 2.8768031559710387e+01,	 6.4594962415436157e+02,	 1.1031304937728304e+04,	 5.1006827405574614e+02,	 2.9843794988412204e+00 
9.7941429999999996e-01,	 2.8312139999999997e-01,	 5.9407092943446552e-02,	 1.5218680112247821e+03,	 2.8569052410086922e+01,	 6.4610324406761379e+02,	 1.1042569975376204e+04,	 5.1012892273711202e+02,	 2.9838263897862034e+00 
9.7997179999999995e-01,	 2.8319200000000000e-01,	 5.9453723588712051e-02,	 1.5217720172173172e+03,	 2.8374235351796813e+01,	 6.4625494661268681e+02,	 1.1053832451557546e+04,	 5.1018880737207240e+02,	 2.9832808922269165e+00 
9.8052940000000000e-01,	 2.8326269999999998e-01,	 5.9502607695661777e-02,	 1.5216793200180960e+03,	 2.8184627640512996e+01,	 6.4640397361708096e+02,	 1.1065472266132119e+04,	 5.1024762899292364e+02,	 2.9827484338278984e+00 
9.8108019999999996e-01,	 2.8333249999999999e-01,	 5.9548536236603188e-02,	 1.5215855770963472e+03,	 2.7997985118518763e+01,	 6.4655227330065986e+02,	 1.1076554050153272e+04,	 5.1030615680636197e+02,	 2.9822159186565038e+00 
9.8163109999999998e-01,	 2.8340230000000000e-01,	 5.9594691308577030e-02,	 1.5214924482005904e+03,	 2.7813852336199943e+01,	 6.4669993098238683e+02,	 1.1087670892559270e+04,	 5.1036442457959538e+02,	 2.9816863816440047e+00 
9.8217560000000004e-01,	 2.8347129999999998e-01,	 5.9640784459653838e-02,	 1.5214006178303159e+03,	 2.7633261014210177e+01,	 6.4684564835751257e+02,	 1.1098746840930331e+04,	 5.1042192015979265e+02,	 2.9811641880105704e+00 
9.8272009999999999e-01,	 2.8354029999999997e-01,	 5.9686384099434206e-02,	 1.5213086881573672e+03,	 2.7454758178775034e+01,	 6.4699119365570914e+02,	 1.1109731839325501e+04,	 5.1047934137944924e+02,	 2.9806424667135851e+00 
9.8325870000000004e-01,	 2.8360849999999999e-01,	 5.9730642808782819e-02,	 1.5212160471953500e+03,	 2.7278531344985723e+01,	 6.4713661012206785e+02,	 1.1120468792209578e+04,	 5.1053670532203745e+02,	 2.9801199242920586e+00 
9.8379729999999999e-01,	 2.8367670000000000e-01,	 5.9775587336851531e-02,	 1.5211240370232758e+03,	 2.7103709328247881e+01,	 6.4728175635312846e+02,	 1.1131332513331481e+04,	 5.1059395623536273e+02,	 2.9795994823083762e+00 
9.8433029999999999e-01,	 2.8374420000000000e-01,	 5.9820267060496000e-02,	 1.5210327368704334e+03,	 2.6929733561259891e+01,	 6.4742559745361382e+02,	 1.1142128204247838e+04,	 5.1065068602577793e+02,	 2.9790836553264395e+00 
9.8486330000000000e-01,	 2.8381170000000000e-01,	 5.9864620286865816e-02,	 1.5209409888471466e+03,	 2.6755521008909462e+01,	 6.4756985093729486e+02,	 1.1152873868461624e+04,	 5.1070757212814419e+02,	 2.9785661845387339e+00 
9.8539109999999996e-01,	 2.8387849999999998e-01,	 5.9908311165094666e-02,	 1.5208487651238643e+03,	 2.6581611634369960e+01,	 6.4771432501434720e+02,	 1.1163503592040253e+04,	 5.1076453887091395e+02,	 2.9780474763338391e+00 
9.8591890000000004e-01,	 2.8394530000000001e-01,	 5.9952345258752253e-02,	 1.5207556272518830e+03,	 2.6408035721177995e+01,	 6.4786017546941730e+02,	 1.1174224657310329e+04,	 5.1082204188139798e+02,	 2.9775240182069602e+00 
9.8644180000000004e-01,	 2.8401139999999997e-01,	 5.9994933955203861e-02,	 1.5206608346800319e+03,	 2.6232649582666824e+01,	 6.4800766121787308e+02,	 1.1184708182175604e+04,	 5.1088018304115343e+02,	 2.9769936977810927e+00 
9.8696479999999998e-01,	 2.8407759999999999e-01,	 6.0040547905973941e-02,	 1.5205674328621412e+03,	 2.6057325229426244e+01,	 6.4815521377768607e+02,	 1.1195760594322055e+04,	 5.1093834391842984e+02,	 2.9764661456555435e+00 
9.8748320000000001e-01,	 2.8414319999999998e-01,	 6.0084460038173540e-02,	 1.5204718378084117e+03,	 2.5879441589903916e+01,	 6.4830449246372086e+02,	 1.1206529306396051e+04,	 5.1099717844747931e+02,	 2.9759304525531589e+00 
9.8800169999999998e-01,	 2.8420879999999998e-01,	 6.0128469354135530e-02,	 1.5203736401881283e+03,	 2.5699276816472764e+01,	 6.4845688200467589e+02,	 1.1217373733744538e+04,	 5.1105723205720744e+02,	 2.9753826579917506e+00 
9.8851599999999995e-01,	 2.8427379999999997e-01,	 6.0172285168625869e-02,	 1.5202740530414835e+03,	 2.5515224174369585e+01,	 6.4861126781423957e+02,	 1.1228220470210892e+04,	 5.1111806516044794e+02,	 2.9748276504215894e+00 
9.8903030000000003e-01,	 2.8433890000000001e-01,	 6.0218906290861081e-02,	 1.5201743028866099e+03,	 2.5330595251857524e+01,	 6.4876695096644903e+02,	 1.1239617173210081e+04,	 5.1117940212852420e+02,	 2.9742695483951067e+00 
9.8954089999999995e-01,	 2.8440339999999997e-01,	 6.0261851784308443e-02,	 1.5200701950613461e+03,	 2.5139217928449789e+01,	 6.4892697951388459e+02,	 1.1250407182298992e+04,	 5.1124244345113249e+02,	 2.9736929689086136e+00 
9.9005149999999997e-01,	 2.8446800000000000e-01,	 6.0309400585267028e-02,	 1.5199698179491284e+03,	 2.4946435888538929e+01,	 6.4908883879791506e+02,	 1.1262092522884912e+04,	 5.1130619806386926e+02,	 2.9731196806270872e+00 
9.9055859999999996e-01,	 2.8453210000000001e-01,	 6.0354135790891841e-02,	 1.5198687343768361e+03,	 2.4749005284427874e+01,	 6.4925397755331051e+02,	 1.1273313696986315e+04,	 5.1137123623299800e+02,	 2.9725375917622725e+00 
9.9106570000000005e-01,	 2.8459619999999997e-01,	 6.0400361557170691e-02,	 1.5197672045036411e+03,	 2.4549286388708389e+01,	 6.4942118174182792e+02,	 1.1284853499186909e+04,	 5.1143707942477425e+02,	 2.9719500774631626e+00 
9.9156979999999995e-01,	 2.8465989999999997e-01,	 6.0446645435985109e-02,	 1.5196624274366097e+03,	 2.4347028188451162e+01,	 6.4958979899266342e+02,	 1.1296433182137340e+04,	 5.1150347048173148e+02,	 2.9713531552337664e+00 
9.9207380000000001e-01,	 2.8472359999999997e-01,	 6.0493258126843086e-02,	 1.5195561677263363e+03,	 2.4142858202362589e+01,	 6.4976056363369571e+02,	 1.1308116192927020e+04,	 5.1157069826684443e+02,	 2.9707486234623870e+00 
9.9257519999999999e-01,	 2.8478690000000001e-01,	 6.0538850630157473e-02,	 1.5194455777515016e+03,	 2.3935586594561116e+01,	 6.4993477403869201e+02,	 1.1319673041617583e+04,	 5.1163927350105962e+02,	 2.9701279231737212e+00 
9.9307650000000003e-01,	 2.8485030000000000e-01,	 6.0587377125530500e-02,	 1.5193357941390850e+03,	 2.3730746032013492e+01,	 6.5010925090019327e+02,	 1.1331787855560400e+04,	 5.1170794441073122e+02,	 2.9695085381658104e+00 
9.9357540000000000e-01,	 2.8491329999999998e-01,	 6.0632363676706685e-02,	 1.5192229145454417e+03,	 2.3523021421069718e+01,	 6.5028309509338487e+02,	 1.1343234244099292e+04,	 5.1177635714939123e+02,	 2.9688847341034865e+00 
9.9407440000000002e-01,	 2.8497639999999996e-01,	 6.0680225398868678e-02,	 1.5191122112706191e+03,	 2.3319266784707743e+01,	 6.5045381235517448e+02,	 1.1355168581781249e+04,	 5.1184353045095452e+02,	 2.9682727094867145e+00 
9.9457130000000005e-01,	 2.8503909999999999e-01,	 6.0723399828143780e-02,	 1.5189993648674320e+03,	 2.3113887948542619e+01,	 6.5062637845795962e+02,	 1.1366262550230616e+04,	 5.1191142227054507e+02,	 2.9676524982552275e+00 
9.9506819999999996e-01,	 2.8510189999999996e-01,	 6.0771129425864018e-02,	 1.5188873970127056e+03,	 2.2914524585075178e+01,	 6.5079680517110296e+02,	 1.1378176268465360e+04,	 5.1197846356457103e+02,	 2.9670393268240285e+00 
9.9556339999999999e-01,	 2.8516449999999999e-01,	 6.0815832695319524e-02,	 1.5187782388035910e+03,	 2.2719619740143223e+01,	 6.5096638148072998e+02,	 1.1389513020488421e+04,	 5.1204516162065647e+02,	 2.9664339713752610e+00 
9.9605860000000002e-01,	 2.8522700000000001e-01,	 6.0857917140355697e-02,	 1.5186687130022356e+03,	 2.2527640026929742e+01,	 6.5113586797182154e+02,	 1.1400361983796001e+04,	 5.1211181566922141e+02,	 2.9658284434813535e+00 
9.9655249999999995e-01,	 2.8528939999999997e-01,	 6.0902549327243274e-02,	 1.5185615248518916e+03,	 2.2344576232627389e+01,	 6.5130077339512582e+02,	 1.1411612171458821e+04,	 5.1217665979289848e+02,	 2.9652384179607107e+00 
9.9704640000000000e-01,	 2.8535179999999999e-01,	 6.0944189703910814e-02,	 1.5184578400008841e+03,	 2.2168470595129115e+01,	 6.5146327813086623e+02,	 1.1422263769952488e+04,	 5.1224055188783484e+02,	 2.9646611308236404e+00 
9.9753919999999996e-01,	 2.8541400000000000e-01,	 6.0984309801827619e-02,	 1.5183546702483827e+03,	 2.1999114721870232e+01,	 6.5162236342873939e+02,	 1.1432574264341207e+04,	 5.1230309184152463e+02,	 2.9640930462689683e+00 
9.9803200000000003e-01,	 2.8547630000000002e-01,	 6.1025761733546402e-02,	 1.5182571609388610e+03,	 2.1841996898430445e+01,	 6.5177479120786757e+02,	 1.1443021283486158e+04,	 5.1236300741592811e+02,	 2.9635517061730225e+00 
9.9852419999999997e-01,	 2.8553839999999997e-01,	 6.1061834116248825e-02,	 1.5181600510238468e+03,	 2.1690167509753188e+01,	 6.5192604551649640e+02,	 1.1452442361453970e+04,	 5.1242245480321833e+02,	 2.9630141578148645e+00 
9.9901640000000003e-01,	 2.8560059999999998e-01,	 6.1101414660511097e-02,	 1.5180668350756168e+03,	 2.1537106821345290e+01,	 6.5207268028726708e+02,	 1.1462443499687473e+04,	 5.1248007999324091e+02,	 2.9624948601942465e+00 
9.9950819999999996e-01,	 2.8566269999999999e-01,	 6.1145020365331322e-02,	 1.5179298651674201e+03,	 2.1617630001282034e+01,	 6.5226552085830247e+02,	 1.1474016062516266e+04,	 5.1255585348344835e+02,	 2.9617919315742189e+00 
1.0000000000000000e+00,	 2.8572480000000000e-01,	 6.1209654503605312e-02,	 1.5177194457728115e+03,	 2.1342641353753351e+01,	 6.5261145110959546e+02,	 1.1492236518890333e+04,	 5.1269175294982779e+02,	 2.9605888782902769e+00 
9.5378750000000001e-01,	 2.8078490000000000e-01,	 5.0581585746831068e-02,	 1.5433058360983555e+03,	 9.3766405299713625e+01,	 6.0823910118455512e+02,	 8.8510891210173104e+03,	 4.9495549986824460e+02,	 3.1238195928198325e+00 
9.5456799999999997e-01,	 2.8088049999999998e-01,	 5.1850702981291866e-02,	 1.5405849906595931e+03,	 8.3331871173107814e+01,	 6.1429316042247569e+02,	 9.1634764106990642e+03,	 4.9741265073095053e+02,	 3.1017246883061516e+00 
9.5533279999999998e-01,	 2.8097420000000001e-01,	 5.3109081423108578e-02,	 1.5373730929677056e+03,	 7.3631554379165152e+01,	 6.2009956960044747e+02,	 9.4745841477583126e+03,	 4.9975793855907881e+02,	 3.0797616877567702e+00 
9.5609770000000005e-01,	 2.8106789999999998e-01,	 5.4141333978129973e-02,	 1.5347591619794111e+03,	 6.5784000609035488e+01,	 6.2474374222617439e+02,	 9.7310746511813395e+03,	 5.0162589073665083e+02,	 3.0623785275678830e+00 
9.5684749999999996e-01,	 2.8115970000000001e-01,	 5.4969419096007985e-02,	 1.5326575284153607e+03,	 5.9509884611204420e+01,	 6.2839318105795485e+02,	 9.9376237226199810e+03,	 5.0308888045753133e+02,	 3.0487901343606931e+00 
9.5759729999999998e-01,	 2.8125139999999998e-01,	 5.5636149619845983e-02,	 1.5309700300130057e+03,	 5.4438554527521333e+01,	 6.3128334178933085e+02,	 1.0104418684050393e+04,	 5.0424447838118812e+02,	 3.0380850137887787e+00 
9.5833250000000003e-01,	 2.8134139999999996e-01,	 5.6166531317000779e-02,	 1.5296274116882628e+03,	 5.0382456072307917e+01,	 6.3354634860863962e+02,	 1.0237311864846351e+04,	 5.0514747058214431e+02,	 3.0297230369009602e+00 
9.5906769999999997e-01,	 2.8143140000000000e-01,	 5.6591222669750224e-02,	 1.5285542576865323e+03,	 4.7093732317482953e+01,	 6.3533935716941232e+02,	 1.0343910968102960e+04,	 5.0586177807828358e+02,	 3.0231174108252845e+00 
9.5978889999999994e-01,	 2.8151949999999998e-01,	 5.6930277334261481e-02,	 1.5277028527163525e+03,	 4.4447631951744086e+01,	 6.3674846295377108e+02,	 1.0428963373850997e+04,	 5.0642243747559456e+02,	 3.0179336299708037e+00 
9.6050999999999997e-01,	 2.8160770000000002e-01,	 5.7205435099846443e-02,	 1.5270251021129629e+03,	 4.2278821765860165e+01,	 6.3787343933149509e+02,	 1.0497883512239514e+04,	 5.0686960138647919e+02,	 3.0138131656673250e+00 
9.6121760000000001e-01,	 2.8169420000000001e-01,	 5.7426917809599534e-02,	 1.5264806888170124e+03,	 4.0507974957608084e+01,	 6.3876984016126949e+02,	 1.0553337995030999e+04,	 5.0722562719690643e+02,	 3.0105302042923299e+00 
9.6192509999999998e-01,	 2.8178070000000000e-01,	 5.7610954997659405e-02,	 1.5260382998581749e+03,	 3.9035544296874555e+01,	 6.3949750411550212e+02,	 1.0599219003218344e+04,	 5.0751445169103420e+02,	 3.0078699653762762e+00 
9.6261960000000002e-01,	 2.8186559999999999e-01,	 5.7763371825288165e-02,	 1.5256762186947262e+03,	 3.7812126542121845e+01,	 6.4008956873648879e+02,	 1.0637099547573764e+04,	 5.0774933285415472e+02,	 3.0057050063893489e+00 
9.6331409999999995e-01,	 2.8195039999999999e-01,	 5.7892714660561326e-02,	 1.5253736775731070e+03,	 3.6774613257671987e+01,	 6.4058343691091636e+02,	 1.0669143522849401e+04,	 5.0794517488750427e+02,	 3.0039007765153150e+00 
9.6399599999999996e-01,	 2.8203370000000000e-01,	 5.8003723062216794e-02,	 1.5251182866290787e+03,	 3.5895115505082906e+01,	 6.4099800508335557e+02,	 1.0696519462845659e+04,	 5.0810951245203404e+02,	 3.0023855166549298e+00 
9.6467780000000003e-01,	 2.8211690000000000e-01,	 5.8101728102744415e-02,	 1.5248984656935752e+03,	 3.5132943134705663e+01,	 6.4135568467667440e+02,	 1.0720571449684467e+04,	 5.0825125630804229e+02,	 3.0010808951427079e+00 
9.6534750000000003e-01,	 2.8219869999999997e-01,	 5.8188764976355341e-02,	 1.5247069081189779e+03,	 3.4471293611496499e+01,	 6.4166720646783665e+02,	 1.0741845993562056e+04,	 5.0837467621671874e+02,	 2.9999459086494999e+00 
9.6601729999999997e-01,	 2.8228039999999999e-01,	 5.8267860170440819e-02,	 1.5245413729113163e+03,	 3.3884792869543006e+01,	 6.4195022906219720e+02,	 1.0761191625297985e+04,	 5.0848677923228951e+02,	 2.9989332154505335e+00 
9.6667530000000002e-01,	 2.8236069999999996e-01,	 5.8341240025620140e-02,	 1.5243929726007502e+03,	 3.3364932324161543e+01,	 6.4221074717125043e+02,	 1.0779116411469140e+04,	 5.0858994655826933e+02,	 2.9980106258144583e+00 
9.6733340000000001e-01,	 2.8244100000000000e-01,	 5.8409953333813658e-02,	 1.5242374070622077e+03,	 3.2893546527506601e+01,	 6.4244367247737944e+02,	 1.0795725983233391e+04,	 5.0868216918923537e+02,	 2.9971412109373627e+00 
9.6798019999999996e-01,	 2.8251979999999999e-01,	 5.8474673720848608e-02,	 1.5240864786657985e+03,	 3.2467506948783694e+01,	 6.4264098953327732e+02,	 1.0811007467878630e+04,	 5.0876028028798027e+02,	 2.9963665109308515e+00 
9.6862700000000002e-01,	 2.8259869999999998e-01,	 5.8537191410615523e-02,	 1.5239584137013076e+03,	 3.2074568174858996e+01,	 6.4283855320884743e+02,	 1.0825893086115253e+04,	 5.0883847700183225e+02,	 2.9956380659093842e+00 
9.6926299999999999e-01,	 2.8267619999999999e-01,	 5.8597205746570867e-02,	 1.5238401367899519e+03,	 3.1710711252520955e+01,	 6.4304388677069369e+02,	 1.0840453682462557e+04,	 5.0891973634323051e+02,	 2.9949124351060235e+00 
9.6989899999999996e-01,	 2.8275370000000000e-01,	 5.8655376735874253e-02,	 1.5237224114124706e+03,	 3.1368118351620936e+01,	 6.4323811719398350e+02,	 1.0854492879310978e+04,	 5.0899658975461671e+02,	 2.9942150651746524e+00 
9.7052470000000002e-01,	 2.8282999999999997e-01,	 5.8712661424913042e-02,	 1.5236076164582460e+03,	 3.1047743369359555e+01,	 6.4342391023721473e+02,	 1.0868231995188014e+04,	 5.0907009379231340e+02,	 2.9935443945253151e+00 
9.7115039999999997e-01,	 2.8290620000000000e-01,	 5.8769155109702091e-02,	 1.5234957832776870e+03,	 3.0742632552998785e+01,	 6.4360535083353739e+02,	 1.0881757181818190e+04,	 5.0914186565936092e+02,	 2.9928906507005975e+00 
9.7176620000000002e-01,	 2.8298119999999999e-01,	 5.8823095974772734e-02,	 1.5233843548249342e+03,	 3.0453281617131161e+01,	 6.4378304894531186e+02,	 1.0894752116193902e+04,	 5.0921214731877205e+02,	 2.9922473791587429e+00 
9.7238190000000002e-01,	 2.8305619999999998e-01,	 5.8877588913193925e-02,	 1.5232753040368846e+03,	 3.0177290293702683e+01,	 6.4395771474254627e+02,	 1.0907803481225963e+04,	 5.0928122021055742e+02,	 2.9916166790820529e+00 
9.7298819999999997e-01,	 2.8312999999999999e-01,	 5.8930638297817063e-02,	 1.5231682628248864e+03,	 2.9913828651463696e+01,	 6.4412904786186346e+02,	 1.0920536311960186e+04,	 5.0934896606940976e+02,	 2.9909984667595557e+00 
9.7359450000000003e-01,	 2.8320370000000000e-01,	 5.8983344086689211e-02,	 1.5230625217471988e+03,	 2.9659690398950445e+01,	 6.4429852029751066e+02,	 1.0933179109041092e+04,	 5.0941596734275674e+02,	 2.9903877857344439e+00 
9.7419169999999999e-01,	 2.8327639999999998e-01,	 5.9035032392264881e-02,	 1.5229581902343039e+03,	 2.9415621853768208e+01,	 6.4446517765421106e+02,	 1.0945590583536741e+04,	 5.0948184707597653e+02,	 2.9897870764327923e+00 
9.7478889999999996e-01,	 2.8334909999999996e-01,	 5.9086172628012128e-02,	 1.5228544718008770e+03,	 2.9178864423177583e+01,	 6.4463064453462744e+02,	 1.0957885134972548e+04,	 5.0954724778675870e+02,	 2.9891908858395517e+00 
9.7537739999999995e-01,	 2.8342059999999997e-01,	 5.9136572869712821e-02,	 1.5227518505776920e+03,	 2.8950786648440697e+01,	 6.4479364901586496e+02,	 1.0970005390481847e+04,	 5.0961166702862607e+02,	 2.9886031513815241e+00 
9.7596590000000005e-01,	 2.8349219999999997e-01,	 5.9186782627252438e-02,	 1.5226503079229574e+03,	 2.8728550434164177e+01,	 6.4495547875981185e+02,	 1.0982075025752565e+04,	 5.0967561396093555e+02,	 2.9880207322918291e+00 
9.7654620000000003e-01,	 2.8356270000000000e-01,	 5.9236136148370588e-02,	 1.5225498743478634e+03,	 2.8513352633580713e+01,	 6.4511508758733146e+02,	 1.0993952573710270e+04,	 5.0973867544158446e+02,	 2.9874461451353302e+00 
9.7712639999999995e-01,	 2.8363329999999998e-01,	 5.9284707736480785e-02,	 1.5224494381071036e+03,	 2.8302923617891430e+01,	 6.4527403870528224e+02,	 1.1005678277311372e+04,	 5.0980146930861127e+02,	 2.9868734952678482e+00 
9.7769879999999998e-01,	 2.8370279999999998e-01,	 5.9333812844365313e-02,	 1.5223516002627475e+03,	 2.8099452143389076e+01,	 6.4543017522926095e+02,	 1.1017459445813498e+04,	 5.0986314373686861e+02,	 2.9863129462812217e+00 
9.7827120000000001e-01,	 2.8377239999999998e-01,	 5.9380513519355853e-02,	 1.5222523107839334e+03,	 2.7898639330580895e+01,	 6.4558671883798513e+02,	 1.1028805402673725e+04,	 5.0992497147630786e+02,	 2.9857489368235037e+00 
9.7883620000000005e-01,	 2.8384100000000001e-01,	 5.9427794102853426e-02,	 1.5221539580942745e+03,	 2.7704928353124558e+01,	 6.4574095334610024e+02,	 1.1040223820485815e+04,	 5.0998587989344776e+02,	 2.9851925862981616e+00 
9.7940110000000002e-01,	 2.8390959999999998e-01,	 5.9475460204085437e-02,	 1.5220580747515207e+03,	 2.7514347420076543e+01,	 6.4589399901151432e+02,	 1.1051697729088541e+04,	 5.1004631163763355e+02,	 2.9846441569510778e+00 
9.7995900000000002e-01,	 2.8397739999999999e-01,	 5.9520922011646028e-02,	 1.5219613228247458e+03,	 2.7326878329702460e+01,	 6.4604634868111566e+02,	 1.1062754219403490e+04,	 5.1010646144979040e+02,	 2.9840959597787173e+00 
9.8051679999999997e-01,	 2.8404509999999999e-01,	 5.9566763438337417e-02,	 1.5218646169453111e+03,	 2.7143096120013965e+01,	 6.4619823269231620e+02,	 1.1073877288826274e+04,	 5.1016642035407847e+02,	 2.9835492718542320e+00 
9.8106800000000005e-01,	 2.8411199999999998e-01,	 5.9612208519644681e-02,	 1.5217689533531814e+03,	 2.6962968137231272e+01,	 6.4634883022971485e+02,	 1.1084908600654748e+04,	 5.1022586444327288e+02,	 2.9830079342594411e+00 
9.8161909999999997e-01,	 2.8417890000000001e-01,	 5.9657164594553856e-02,	 1.5216731315380953e+03,	 2.6784580299534156e+01,	 6.4649957204235011e+02,	 1.1095855374497878e+04,	 5.1028535854630172e+02,	 2.9824662214472815e+00 
9.8216400000000004e-01,	 2.8424499999999997e-01,	 5.9701508860014643e-02,	 1.5215771639335831e+03,	 2.6609229710000218e+01,	 6.4664966621957512e+02,	 1.1106681104766503e+04,	 5.1034459015251713e+02,	 2.9819260273139543e+00 
9.8270880000000005e-01,	 2.8431109999999998e-01,	 5.9746166442479882e-02,	 1.5214815484483695e+03,	 2.6435360670499243e+01,	 6.4679974469521449e+02,	 1.1117568696856542e+04,	 5.1040380868976047e+02,	 2.9813868139211799e+00 
9.8324769999999995e-01,	 2.8437649999999998e-01,	 5.9790195331906826e-02,	 1.5213859132708353e+03,	 2.6262893374626746e+01,	 6.4694961479431220e+02,	 1.1128339546567819e+04,	 5.1046293814938315e+02,	 2.9808482927941062e+00 
9.8378659999999996e-01,	 2.8444179999999997e-01,	 5.9834025199438284e-02,	 1.5212894806689756e+03,	 2.6090563195228142e+01,	 6.4710092713654353e+02,	 1.1139101968436560e+04,	 5.1052262968119550e+02,	 2.9803050955765675e+00 
9.8431990000000003e-01,	 2.8450650000000000e-01,	 5.9877520326498367e-02,	 1.5211926627523339e+03,	 2.5919131774607280e+01,	 6.4725267468886409e+02,	 1.1149813371265600e+04,	 5.1058248589137798e+02,	 2.9797603772308410e+00 
9.8485319999999998e-01,	 2.8457119999999997e-01,	 5.9921408728924881e-02,	 1.5210958567053590e+03,	 2.5747090406045565e+01,	 6.4740520770139176e+02,	 1.1160615361461805e+04,	 5.1064264485241341e+02,	 2.9792140603810582e+00 
9.8538139999999996e-01,	 2.8463519999999998e-01,	 5.9964631500520671e-02,	 1.5209981556384860e+03,	 2.5574329938764190e+01,	 6.4755842189636087e+02,	 1.1171308949154325e+04,	 5.1070306533749221e+02,	 2.9786646083179740e+00 
9.8590949999999999e-01,	 2.8469919999999999e-01,	 6.0008995528866869e-02,	 1.5209003134155823e+03,	 2.5399642731379586e+01,	 6.4771276976990202e+02,	 1.1182238583800039e+04,	 5.1076392566524748e+02,	 2.9781124200141882e+00 
9.8643270000000005e-01,	 2.8476259999999998e-01,	 6.0052159197323506e-02,	 1.5208000632083199e+03,	 2.5222217958028750e+01,	 6.4786916706431009e+02,	 1.1192983833840070e+04,	 5.1082558669639053e+02,	 2.9775509324522829e+00 