TITLE = "Final State"
VARIABLES = "X", "Y", "rho", "u", "v", "T", "p", "c", "M"
ZONE I=98, J=27, DATAPACKING=POINT, STRANDID=32000, SOLUTIONTIME=0.000772
1.3750690000000001e+00,	 2.6012380000000002e-01,	 4.3213651059630862e-02,	 1.5223078597797285e+03,	 -3.1990881116571327e+01,	 7.0491233502531452e+02,	 8.7636698551172740e+03,	 5.3283965897917392e+02,	 2.8576025391560385e+00 
1.3782630000000000e+00,	 2.6005629999999996e-01,	 4.3122452093226210e-02,	 1.5229226343476221e+03,	 -3.1968204686467168e+01,	 7.0475287631993433e+02,	 8.7431965763301778e+03,	 5.3277938855718833e+02,	 2.8590785567622619e+00 
1.3814830000000000e+00,	 2.5998830000000001e-01,	 4.2960884640898533e-02,	 1.5239882578981446e+03,	 -3.1956128927171033e+01,	 7.0434172010599718e+02,	 8.7053566163904670e+03,	 5.3262395285592083e+02,	 2.8619127114829621e+00 
1.3847300000000000e+00,	 2.5991969999999998e-01,	 4.2771197950821772e-02,	 1.5251672127800548e+03,	 -3.1944492091791084e+01,	 7.0376343827325252e+02,	 8.6598037985670453e+03,	 5.3240525929208047e+02,	 2.8653017353825301e+00 
1.3880049999999999e+00,	 2.5985049999999998e-01,	 4.2557689619001762e-02,	 1.5264491949052622e+03,	 -3.1930384705822970e+01,	 7.0304009179863806e+02,	 8.6077188278238118e+03,	 5.3213157892255674e+02,	 2.8691834501262212e+00 
1.3913059999999999e+00,	 2.5978069999999998e-01,	 4.2322298049545418e-02,	 1.5278283684077935e+03,	 -3.1911138238458165e+01,	 7.0218132739523469e+02,	 8.5496523421754337e+03,	 5.3180647990073305e+02,	 2.8735294649411469e+00 
1.3946350000000001e+00,	 2.5971040000000001e-01,	 4.2065507026477336e-02,	 1.5293099184323046e+03,	 -3.1889448188592226e+01,	 7.0118382520691262e+02,	 8.4857054883185265e+03,	 5.3142860980018611e+02,	 2.8783590803592891e+00 
1.3979919999999999e+00,	 2.5963939999999996e-01,	 4.1785412873159913e-02,	 1.5308879249454653e+03,	 -3.1885571834938926e+01,	 7.0004756875434782e+02,	 8.4155438413545344e+03,	 5.3099784971172130e+02,	 2.8836650630446612e+00 
1.4013760000000000e+00,	 2.5956789999999996e-01,	 4.1487753192592298e-02,	 1.5325572229059869e+03,	 -3.1863171084599628e+01,	 6.9879188706965272e+02,	 8.3406079471142293e+03,	 5.3052140813259894e+02,	 2.8893997393227608e+00 
1.4047890000000001e+00,	 2.5949580000000000e-01,	 4.1170174358748826e-02,	 1.5343187006107480e+03,	 -3.1852587737885919e+01,	 6.9740924266209163e+02,	 8.2603860094279789e+03,	 5.2999629781592603e+02,	 2.8955849362428929e+00 
1.4082300000000001e+00,	 2.5942309999999996e-01,	 4.0832999793792554e-02,	 1.5361706979202022e+03,	 -3.1863852733235063e+01,	 6.9590298286698442e+02,	 8.1750406718745135e+03,	 5.2942364722607454e+02,	 2.9022147701061196e+00 
1.4116990000000000e+00,	 2.5934970000000002e-01,	 4.0479731034475344e-02,	 1.5380979698652523e+03,	 -3.1873038534667863e+01,	 6.9429597951605115e+02,	 8.0855991314815892e+03,	 5.2881201217783780e+02,	 2.9092156408610790e+00 
1.4151980000000000e+00,	 2.5927580000000000e-01,	 4.0114588401499007e-02,	 1.5400988639312968e+03,	 -3.1856323575898401e+01,	 6.9260036491830374e+02,	 7.9930953543827709e+03,	 5.2816588320582377e+02,	 2.9165615297746812e+00 
1.4187250000000000e+00,	 2.5920129999999997e-01,	 3.9733075553469624e-02,	 1.5421757098736834e+03,	 -3.1867064624989801e+01,	 6.9080215056950692e+02,	 7.8965211236502582e+03,	 5.2747979293828701e+02,	 2.9242919656907387e+00 
1.4222830000000000e+00,	 2.5912609999999997e-01,	 3.9338441445369160e-02,	 1.5443201437464736e+03,	 -3.1890364427649203e+01,	 6.8891821029937705e+02,	 7.7967705157736618e+03,	 5.2676003629384059e+02,	 2.9323587057146665e+00 
1.4258690000000001e+00,	 2.5905030000000001e-01,	 3.8934201270547406e-02,	 1.5465223956339414e+03,	 -3.1905911128441844e+01,	 6.8696687263870695e+02,	 7.6947940737981944e+03,	 5.2601349223544878e+02,	 2.9407068541628636e+00 
1.4294860000000000e+00,	 2.5897389999999998e-01,	 3.8520499153808112e-02,	 1.5487814618194614e+03,	 -3.1927255072874321e+01,	 6.8495070965553396e+02,	 7.5906883947037486e+03,	 5.2524103271206934e+02,	 2.9493326140804776e+00 
1.4331320000000001e+00,	 2.5889679999999998e-01,	 3.8097895079658314e-02,	 1.5510888613970619e+03,	 -3.1962324943875529e+01,	 6.8287890206483303e+02,	 7.4847037280270160e+03,	 5.2444606858312045e+02,	 2.9582033945418633e+00 
1.4368090000000000e+00,	 2.5881909999999997e-01,	 3.7670168410984951e-02,	 1.5534392064674951e+03,	 -3.1989717194190249e+01,	 6.8076834495671255e+02,	 7.3777995670154842e+03,	 5.2363499509311953e+02,	 2.9672740851903292e+00 
1.4405170000000000e+00,	 2.5874069999999999e-01,	 3.7236766404030092e-02,	 1.5558259419699134e+03,	 -3.2022742377153506e+01,	 6.7862407427997437e+02,	 7.2699455822234177e+03,	 5.2280967710935533e+02,	 2.9765238265330898e+00 
1.4442560000000000e+00,	 2.5866169999999999e-01,	 3.6800805842295475e-02,	 1.5582462571350065e+03,	 -3.2045480294971966e+01,	 6.7645705079840855e+02,	 7.1618874876462396e+03,	 5.2197427590533368e+02,	 2.9859244093062189e+00 
1.4480249999999999e+00,	 2.5858209999999998e-01,	 3.6359913752246870e-02,	 1.5607035189111566e+03,	 -3.2087922427844809e+01,	 6.7425942559890336e+02,	 7.0530962113688765e+03,	 5.2112570984007073e+02,	 2.9955024612433485e+00 
1.4518260000000001e+00,	 2.5850170000000000e-01,	 3.5916429726247798e-02,	 1.5631876896436238e+03,	 -3.2131100868411458e+01,	 6.7204574707677909e+02,	 6.9441954136450813e+03,	 5.2026954590501509e+02,	 3.0052073817960330e+00 
1.4556590000000000e+00,	 2.5842080000000001e-01,	 3.5472945103893025e-02,	 1.5657043351450307e+03,	 -3.2158022596889779e+01,	 6.6981912591214336e+02,	 6.8357272921670865e+03,	 5.1940695260814402e+02,	 3.0150434827475872e+00 
1.4595240000000000e+00,	 2.5833909999999999e-01,	 3.5024305766959390e-02,	 1.5682543815054059e+03,	 -3.2220331312083680e+01,	 6.6756345844050134e+02,	 6.7265446463608369e+03,	 5.1853164361970971e+02,	 3.0250522891657745e+00 
1.4634210000000001e+00,	 2.5825670000000001e-01,	 3.4576589540773181e-02,	 1.5708295945133154e+03,	 -3.2263181200448315e+01,	 6.6530288730079201e+02,	 6.6180721898922748e+03,	 5.1765294686493041e+02,	 3.0351626411693013e+00 
1.4673510000000001e+00,	 2.5817370000000001e-01,	 3.4129304308700224e-02,	 1.5734346032949095e+03,	 -3.2294576628702913e+01,	 6.6303105758910533e+02,	 6.5101537472039172e+03,	 5.1676836855301030e+02,	 3.0453992262852960e+00 
1.4713130000000001e+00,	 2.5808999999999999e-01,	 3.3679355761075863e-02,	 1.5760750500820741e+03,	 -3.2352648338952143e+01,	 6.6073297293619157e+02,	 6.4020593086166100e+03,	 5.1587202420015012e+02,	 3.0558103527020206e+00 
1.4753080000000001e+00,	 2.5800550000000000e-01,	 3.3229963625830916e-02,	 1.5787430823688260e+03,	 -3.2409021751191858e+01,	 6.5842343220233215e+02,	 6.2945557105841863e+03,	 5.1496963968076886e+02,	 3.0663471743694428e+00 
1.4793369999999999e+00,	 2.5792039999999999e-01,	 3.2782628701254909e-02,	 1.5814414186451409e+03,	 -3.2451449483284208e+01,	 6.5610501604853039e+02,	 6.1879539116986234e+03,	 5.1406219416872887e+02,	 3.0770096618726859e+00 
1.4833989999999999e+00,	 2.5783449999999997e-01,	 3.2335589363266859e-02,	 1.5841674697047677e+03,	 -3.2502458230142778e+01,	 6.5377231493272348e+02,	 6.0818715590918027e+03,	 5.1314753783749120e+02,	 3.0878075898701152e+00 
1.4874959999999999e+00,	 2.5774799999999998e-01,	 3.1891585509310899e-02,	 1.5869255618257826e+03,	 -3.2544034578198705e+01,	 6.5142918903387476e+02,	 5.9768624727047454e+03,	 5.1222714971546429e+02,	 3.0987409153351337e+00 
1.4916259999999999e+00,	 2.5766069999999996e-01,	 3.1447895574501526e-02,	 1.5897149841629969e+03,	 -3.2608047089313473e+01,	 6.4906649791277198e+02,	 5.8723336011155861e+03,	 5.1129739870494126e+02,	 3.1098327103519923e+00 
1.4957910000000001e+00,	 2.5757269999999999e-01,	 3.1007753808338707e-02,	 1.5925351643387078e+03,	 -3.2667849439852922e+01,	 6.4669465703025548e+02,	 5.7689864317567535e+03,	 5.1036234351935121e+02,	 3.1210574387478465e+00 
1.4999910000000001e+00,	 2.5748389999999999e-01,	 3.0570333956820010e-02,	 1.5953825394376381e+03,	 -3.2733688834702214e+01,	 6.4431414535675140e+02,	 5.6666682310776978e+03,	 5.0942214429812742e+02,	 3.1324086184320303e+00 
1.5042249999999999e+00,	 2.5739439999999997e-01,	 3.0138225808869844e-02,	 1.5982540784815410e+03,	 -3.2784968627865176e+01,	 6.4193480691059358e+02,	 5.5659403094027984e+03,	 5.0848067127645277e+02,	 3.1438565756225811e+00 
1.5084960000000001e+00,	 2.5730419999999998e-01,	 2.9710348724891582e-02,	 1.6011549980010391e+03,	 -3.2840685498284472e+01,	 6.3954806058034910e+02,	 5.4665191408480150e+03,	 5.0753451246475129e+02,	 3.1554341915772168e+00 
1.5128010000000001e+00,	 2.5721319999999998e-01,	 2.9285807887569289e-02,	 1.6040834224631853e+03,	 -3.2918325646247283e+01,	 6.3715222944131710e+02,	 5.3682205921614086e+03,	 5.0658297496880806e+02,	 3.1671438524519204e+00 
1.5171429999999999e+00,	 2.5712140000000000e-01,	 2.8867961801367612e-02,	 1.6070324009247408e+03,	 -3.2985958012443099e+01,	 6.3476486127226735e+02,	 5.2718001352483470e+03,	 5.0563301746505664e+02,	 3.1789278879225318e+00 
1.5215209999999999e+00,	 2.5702890000000000e-01,	 2.8456975172060812e-02,	 1.6100011396255454e+03,	 -3.3048180240466095e+01,	 6.3238775207149490e+02,	 5.1772855926907587e+03,	 5.0468536553600018e+02,	 3.1907806341434766e+00 
1.5259360000000000e+00,	 2.5693559999999999e-01,	 2.8052890182037594e-02,	 1.6129873146177201e+03,	 -3.3116759809971683e+01,	 6.3002268151928251e+02,	 5.0846812611989999e+03,	 5.0374074367441779e+02,	 3.2026935769343834e+00 
1.5303869999999999e+00,	 2.5684160000000000e-01,	 2.7656870148470548e-02,	 1.6159903704557744e+03,	 -3.3196224724061778e+01,	 6.2767533841746877e+02,	 4.9942241860106933e+03,	 5.0280144748042466e+02,	 3.2146512438876660e+00 
1.5348759999999999e+00,	 2.5674669999999999e-01,	 2.7269206112958952e-02,	 1.6190015361328028e+03,	 -3.3297316311692796e+01,	 6.2535729464092503e+02,	 4.9060351127827098e+03,	 5.0187215030495742e+02,	 3.2266064272004717e+00 
1.5394019999999999e+00,	 2.5665099999999996e-01,	 2.6894656125728549e-02,	 1.6220061971901894e+03,	 -3.3387958343792576e+01,	 6.2310096982827349e+02,	 4.8211912585957061e+03,	 5.0096594047024706e+02,	 3.2384433044280523e+00 
1.5439659999999999e+00,	 2.5655459999999997e-01,	 2.6534882666649572e-02,	 1.6249958859621026e+03,	 -3.3484259988103325e+01,	 6.2092515076566792e+02,	 4.7400875201710314e+03,	 5.0009050894390379e+02,	 3.2500933419792770e+00 
1.5485690000000001e+00,	 2.5645730000000000e-01,	 2.6192462725948676e-02,	 1.6279511201293055e+03,	 -3.3605819107991181e+01,	 6.1886229959959962e+02,	 4.6633745557064358e+03,	 4.9925911201489350e+02,	 3.2614285983169662e+00 
1.5532090000000001e+00,	 2.5635930000000001e-01,	 2.5874232273598734e-02,	 1.6308469331344679e+03,	 -3.3743508898373634e+01,	 6.1696935367730043e+02,	 4.5926251749014427e+03,	 4.9849497248646225e+02,	 3.2722415986388937e+00 
1.5578890000000001e+00,	 2.5626040000000000e-01,	 2.5585959972322415e-02,	 1.6336464194543923e+03,	 -3.3923232430687882e+01,	 6.1531409206833450e+02,	 4.5292731744069060e+03,	 4.9782581949784333e+02,	 3.2822696841321459e+00 
1.5626070000000001e+00,	 2.5616069999999996e-01,	 2.5338571731818450e-02,	 1.6362986064992253e+03,	 -3.4143478221512865e+01,	 6.1400123346011674e+02,	 4.4759096595119427e+03,	 4.9729444542668267e+02,	 3.2911181828217604e+00 
1.5673649999999999e+00,	 2.5606010000000001e-01,	 2.5145164538558324e-02,	 1.6387350865802366e+03,	 -3.4412038028755290e+01,	 6.1316302574396218e+02,	 4.4356817392069761e+03,	 4.9695488715104773e+02,	 3.2982799864729984e+00 
1.5721630000000000e+00,	 2.5595869999999998e-01,	 2.5023989897023598e-02,	 1.6408821585508076e+03,	 -3.4729140219529057e+01,	 6.1294643379270633e+02,	 4.4127468755195123e+03,	 4.9686710793805725e+02,	 3.3031963897885235e+00 
1.5770010000000001e+00,	 2.5585649999999999e-01,	 2.4994528882081295e-02,	 1.6426584340015324e+03,	 -3.5121436673321639e+01,	 6.1350723259335155e+02,	 4.4115842712233016e+03,	 4.9709435354867531e+02,	 3.3052756332672852e+00 
1.5818800000000000e+00,	 2.5575339999999996e-01,	 2.5077638166366822e-02,	 1.6439637016398588e+03,	 -3.5595772865399198e+01,	 6.1503963807668515e+02,	 4.4373090282669355e+03,	 4.9771478228605901e+02,	 3.3037978418671727e+00 
1.5867990000000001e+00,	 2.5564939999999997e-01,	 2.5293694998465375e-02,	 1.6448506312358072e+03,	 -3.6111646880860221e+01,	 6.1772014911487793e+02,	 4.4950443646347057e+03,	 4.9879819172706578e+02,	 3.2984221171215156e+00 
1.5917600000000001e+00,	 2.5554460000000001e-01,	 2.5655397568624085e-02,	 1.6448319042415510e+03,	 -3.6624299686571490e+01,	 6.2165145424824436e+02,	 4.5883405121540654e+03,	 5.0038290435173445e+02,	 3.2879612452705484e+00 
1.5967620000000000e+00,	 2.5543889999999997e-01,	 2.6156919132016246e-02,	 1.6444073306620148e+03,	 -3.7093838355749945e+01,	 6.2676516566181670e+02,	 4.7165167208940920e+03,	 5.0243676675105820e+02,	 3.2736968306930003e+00 
1.6018060000000001e+00,	 2.5533230000000001e-01,	 2.6780769102981591e-02,	 1.6434664860211956e+03,	 -3.7439796897993105e+01,	 6.3287510358331519e+02,	 4.8760819285438674e+03,	 5.0487979672638875e+02,	 3.2560084582934095e+00 
1.6068920000000000e+00,	 2.5522479999999997e-01,	 2.7487715174026636e-02,	 1.6422159101840443e+03,	 -3.7613249397778674e+01,	 6.3961089833449762e+02,	 5.0580653323442093e+03,	 5.0755944534121363e+02,	 3.2363629816887487e+00 
1.6120200000000000e+00,	 2.5511639999999997e-01,	 2.8228096108262733e-02,	 1.6408984090125894e+03,	 -3.7582962744293653e+01,	 6.4651019007222635e+02,	 5.2503336061338769e+03,	 5.1028954896124543e+02,	 3.2164655419947361e+00 
1.6171920000000000e+00,	 2.5500719999999999e-01,	 2.8947797507338668e-02,	 1.6397570991708421e+03,	 -3.7382910015291898e+01,	 6.5311107992483426e+02,	 5.4391685254154208e+03,	 5.1288796967594146e+02,	 3.1979365192361233e+00 
1.6224069999999999e+00,	 2.5489699999999998e-01,	 2.9596950510140902e-02,	 1.6391199367525564e+03,	 -3.7089532280956668e+01,	 6.5904286636549728e+02,	 5.6116498851385750e+03,	 5.1521182030676880e+02,	 3.1822629917264966e+00 
1.6276649999999999e+00,	 2.5478580000000001e-01,	 3.0144936813490862e-02,	 1.6388375557219497e+03,	 -3.6711451488313322e+01,	 6.6409338265404949e+02,	 5.7593499517396504e+03,	 5.1718219250936750e+02,	 3.1695768200101080e+00 
1.6329680000000000e+00,	 2.5467380000000001e-01,	 3.0573305788311356e-02,	 1.6389393506570796e+03,	 -3.6299738593493686e+01,	 6.6815283222556502e+02,	 5.8768979740272289e+03,	 5.1876049192610992e+02,	 3.1601120668136398e+00 
1.6383150000000000e+00,	 2.5456079999999998e-01,	 3.0872036043770611e-02,	 1.6397470690339042e+03,	 -3.5932488091116994e+01,	 6.7118916901700231e+02,	 5.9612886300706714e+03,	 5.1993787683661651e+02,	 3.1544936365313161e+00 
1.6437059999999999e+00,	 2.5444679999999997e-01,	 3.1050091487133204e-02,	 1.6410797874057389e+03,	 -3.5606563124592824e+01,	 6.7328850211989288e+02,	 6.0144236983657584e+03,	 5.2075036805936998e+02,	 3.1521168702554769e+00 
1.6491430000000000e+00,	 2.5433190000000000e-01,	 3.1121257465970768e-02,	 1.6428820747559873e+03,	 -3.5320342201152627e+01,	 6.7455725138593084e+02,	 6.0395681923334314e+03,	 5.2124078983285904e+02,	 3.1525961497743573e+00 
1.6546250000000000e+00,	 2.5421610000000000e-01,	 3.1097243426955589e-02,	 1.6451090548424859e+03,	 -3.5094516773517242e+01,	 6.7512247358812931e+02,	 6.0399646362500716e+03,	 5.2145912206211619e+02,	 3.1555365933143165e+00 
1.6601539999999999e+00,	 2.5409929999999997e-01,	 3.0990953135311340e-02,	 1.6477107333233018e+03,	 -3.4933637884366121e+01,	 6.7500720551110999e+02,	 6.0182923360073455e+03,	 5.2141460409800197e+02,	 3.1607879762746283e+00 
1.6657280000000001e+00,	 2.5398149999999997e-01,	 3.0819341473411435e-02,	 1.6506151247836333e+03,	 -3.4824751184413515e+01,	 6.7438189666783933e+02,	 5.9794218715444222e+03,	 5.2117303578199562e+02,	 3.1678201626596207e+00 
1.6713499999999999e+00,	 2.5386270000000000e-01,	 3.0594616527233574e-02,	 1.6537927263828587e+03,	 -3.4748977332818995e+01,	 6.7331722419822518e+02,	 5.9264506989168613e+03,	 5.2076147538802991e+02,	 3.1764211287067732e+00 
1.6770179999999999e+00,	 2.5374289999999999e-01,	 3.0327576870189516e-02,	 1.6572132374676719e+03,	 -3.4708989997702375e+01,	 6.7187695743938116e+02,	 5.8621563388128907e+03,	 5.2020420688382069e+02,	 3.1863961335438473e+00 
1.6827340000000000e+00,	 2.5362209999999996e-01,	 3.0027762422984682e-02,	 1.6608411728089786e+03,	 -3.4692226095974767e+01,	 6.7011910651614994e+02,	 5.7890181254352010e+03,	 5.1952324860808051e+02,	 3.1975536597577863e+00 
1.6884980000000001e+00,	 2.5350030000000001e-01,	 2.9702034117349285e-02,	 1.6646437555591679e+03,	 -3.4696940016702030e+01,	 6.6809310410859780e+02,	 5.7089089837563424e+03,	 5.1873730465642643e+02,	 3.2097273582114325e+00 
1.6943100000000000e+00,	 2.5337749999999998e-01,	 2.9355546608193162e-02,	 1.6685967106140720e+03,	 -3.4726022224810563e+01,	 6.6583948512086636e+02,	 5.6232792989785312e+03,	 5.1786166041616559e+02,	 3.2227873766264143e+00 
1.7001710000000001e+00,	 2.5325359999999997e-01,	 2.8992819074197179e-02,	 1.6726780220298770e+03,	 -3.4772809657312024e+01,	 6.6339600266446064e+02,	 5.5334148744332833e+03,	 5.1691056862418804e+02,	 3.2366129179330523e+00 
1.7060800000000000e+00,	 2.5312869999999998e-01,	 2.8618814059870316e-02,	 1.6768710402924462e+03,	 -3.4817629054094738e+01,	 6.6079532095897105e+02,	 5.4406217025078822e+03,	 5.1589636295976607e+02,	 3.2511034944698105e+00 
1.7120400000000000e+00,	 2.5300279999999997e-01,	 2.8235158664991766e-02,	 1.6811679752149894e+03,	 -3.4872544241557648e+01,	 6.5805146687158140e+02,	 5.3453978123773122e+03,	 5.1482415737865938e+02,	 3.2662212788735783e+00 
1.7180489999999999e+00,	 2.5287579999999998e-01,	 2.7843011372259769e-02,	 1.6855576706991110e+03,	 -3.4948026479256043e+01,	 6.5518077856143873e+02,	 5.2481626968734008e+03,	 5.1369999377588056e+02,	 3.2819154273019464e+00 
1.7241089999999999e+00,	 2.5274769999999996e-01,	 2.7445870062009020e-02,	 1.6900276968012968e+03,	 -3.5021260286001208e+01,	 6.5220821211133364e+02,	 5.1498336797919128e+03,	 5.1253333613582686e+02,	 3.2981084335392139e+00 
1.7302190000000000e+00,	 2.5261859999999997e-01,	 2.7044958029409691e-02,	 1.6945715330255657e+03,	 -3.5093194506385728e+01,	 6.4914447467677451e+02,	 5.0507702547747895e+03,	 5.1132811059605808e+02,	 3.3147695866310172e+00 
1.7363810000000000e+00,	 2.5248840000000000e-01,	 2.6640420161646368e-02,	 1.6991842637669570e+03,	 -3.5175717533746365e+01,	 6.4599482041032434e+02,	 4.9510811355820324e+03,	 5.1008611815083850e+02,	 3.3318850678592313e+00 
1.7425940000000000e+00,	 2.5235710000000000e-01,	 2.6233725407735827e-02,	 1.7038590764813839e+03,	 -3.5262877346786020e+01,	 6.4277048718874698e+02,	 4.8511626262821264e+03,	 5.0881153747970194e+02,	 3.3494207779674920e+00 
1.7488600000000001e+00,	 2.5222469999999997e-01,	 2.5826006893273780e-02,	 1.7085915371145038e+03,	 -3.5350145863513006e+01,	 6.3947923038130966e+02,	 4.7513130275265039e+03,	 5.0750720048959630e+02,	 3.3673555513239619e+00 
1.7551779999999999e+00,	 2.5209120000000002e-01,	 2.5417077766830866e-02,	 1.7133787281456216e+03,	 -3.5447160023978626e+01,	 6.3612421550354975e+02,	 4.6515477494290481e+03,	 5.0617413657395701e+02,	 3.3856833816507987e+00 
1.7615490000000000e+00,	 2.5195649999999997e-01,	 2.5008426173452735e-02,	 1.7182130173165833e+03,	 -3.5541381688083881e+01,	 6.3271817212049200e+02,	 4.5522552662395574e+03,	 5.0481719635161471e+02,	 3.4043621704437648e+00 
1.7679730000000000e+00,	 2.5182080000000001e-01,	 2.4600945927706647e-02,	 1.7230951409460226e+03,	 -3.5628690571894126e+01,	 6.2926433948634690e+02,	 4.4536374968047840e+03,	 5.0343748252739903e+02,	 3.4233912078954187e+00 
1.7744510000000000e+00,	 2.5168390000000002e-01,	 2.4193206771786775e-02,	 1.7280234586716886e+03,	 -3.5733535304569699e+01,	 6.2575997607418162e+02,	 4.3554311884846256e+03,	 5.0203370760643918e+02,	 3.4427825406485209e+00 
1.7809839999999999e+00,	 2.5154579999999999e-01,	 2.3787113612973684e-02,	 1.7329930425780840e+03,	 -3.5835010750025802e+01,	 6.2221708731980402e+02,	 4.2580780513030913e+03,	 5.0061049874115400e+02,	 3.4624993031186300e+00 
1.7875710000000000e+00,	 2.5140659999999998e-01,	 2.3382963234576462e-02,	 1.7380028772600658e+03,	 -3.5932016994827123e+01,	 6.1863892911021969e+02,	 4.1616612784047302e+03,	 4.9916900326454919e+02,	 3.4825364978754414e+00 
1.7942140000000000e+00,	 2.5126620000000000e-01,	 2.2980812156737269e-02,	 1.7430515917504731e+03,	 -3.6029942889331451e+01,	 6.1502684848918079e+02,	 4.0662060789984953e+03,	 4.9770960733516227e+02,	 3.5028938697782213e+00 
1.8009120000000001e+00,	 2.5112469999999998e-01,	 2.2580721708957641e-02,	 1.7481407783268651e+03,	 -3.6132346377148437e+01,	 6.1138053289369032e+02,	 3.9717267510687584e+03,	 4.9623202617265008e+02,	 3.5235818250760391e+00 
1.8076669999999999e+00,	 2.5098189999999998e-01,	 2.2182803167975267e-02,	 1.7532665282497640e+03,	 -3.6239538287881160e+01,	 6.0770483294858445e+02,	 3.8782790419670864e+03,	 4.9473807131372644e+02,	 3.5445847420979280e+00 
1.8144780000000000e+00,	 2.5083800000000001e-01,	 2.1788479641314369e-02,	 1.7584291618470479e+03,	 -3.6336666377843486e+01,	 6.0400523923335675e+02,	 3.7861478590573847e+03,	 4.9322983577864613e+02,	 3.5658924697051440e+00 
1.8213459999999999e+00,	 2.5069290000000000e-01,	 2.1396386664310436e-02,	 1.7636313937208051e+03,	 -3.6445865823525857e+01,	 6.0027514494706043e+02,	 3.6950535471958779e+03,	 4.9170448224309644e+02,	 3.5875368204033915e+00 
1.8282719999999999e+00,	 2.5054650000000001e-01,	 2.1007231639264819e-02,	 1.7688710291681271e+03,	 -3.6559537421748786e+01,	 5.9652058721932406e+02,	 3.6051571329509798e+03,	 4.9016433127461937e+02,	 3.6095013192170926e+00 
1.8352560000000000e+00,	 2.5039889999999998e-01,	 2.0622028090032947e-02,	 1.7741475477123827e+03,	 -3.6664800141877933e+01,	 5.9274731286294877e+02,	 3.5166642413824225e+03,	 4.8861161154686619e+02,	 3.6317728139724488e+00 
1.8422980000000000e+00,	 2.5025009999999998e-01,	 2.0240194364139569e-02,	 1.7794639286978190e+03,	 -3.6772953689422053e+01,	 5.8895172306733866e+02,	 3.4294487163860681e+03,	 4.8704471480115268e+02,	 3.6543746272618627e+00 
1.8493999999999999e+00,	 2.5009999999999999e-01,	 2.0009864144658735e-02,	 1.7825650476745402e+03,	 -3.6843791205432566e+01,	 5.8664515531135919e+02,	 3.3771438976286358e+03,	 4.8609004935812408e+02,	 3.6679330734271778e+00 
1.3750690000000001e+00,	 2.6096219999999998e-01,	 4.4373920261554969e-02,	 1.5333417648731559e+03,	 -3.1943426100040689e+01,	 6.8683244609032863e+02,	 8.7681614751825218e+03,	 5.2596202422404895e+02,	 2.9159414363184326e+00 
1.3782630000000000e+00,	 2.6089599999999996e-01,	 4.4277969274234413e-02,	 1.5339343248254077e+03,	 -3.1799768445948196e+01,	 6.8666767832470430e+02,	 8.7471029397476905e+03,	 5.2589893257333063e+02,	 2.9174120968229080e+00 
1.3814839999999999e+00,	 2.6082929999999999e-01,	 4.4111776599301898e-02,	 1.5349500766918989e+03,	 -3.1574614929796571e+01,	 6.8627927936492063e+02,	 8.7093425716407237e+03,	 5.2575017976566585e+02,	 2.9201602842241434e+00 
1.3847309999999999e+00,	 2.6076210000000000e-01,	 4.3918275276512722e-02,	 1.5360681786860378e+03,	 -3.1380590955446870e+01,	 6.8574298186591545e+02,	 8.6643619319541831e+03,	 5.2554471413300746e+02,	 2.9234214398396303e+00 
1.3880049999999999e+00,	 2.6069429999999999e-01,	 4.3698990430682892e-02,	 1.5372857852424931e+03,	 -3.1220995043355092e+01,	 6.8506526309296430e+02,	 8.6125803748451726e+03,	 5.2528495240545590e+02,	 2.9271784423502467e+00 
1.3913070000000001e+00,	 2.6062589999999997e-01,	 4.3455543090529035e-02,	 1.5385954691224617e+03,	 -3.1067107153084432e+01,	 6.8425683317923040e+02,	 8.5544927484915297e+03,	 5.2497492250950461e+02,	 2.9313954296533984e+00 
1.3946360000000000e+00,	 2.6055689999999998e-01,	 4.3189716058780116e-02,	 1.5399991090232504e+03,	 -3.0912354036666304e+01,	 6.8332221661541064e+02,	 8.4905500690143745e+03,	 5.2461627215197791e+02,	 2.9360685340887387e+00 
1.3979919999999999e+00,	 2.6048739999999998e-01,	 4.2900499434415318e-02,	 1.5414944005919615e+03,	 -3.0776687203136472e+01,	 6.8225834805403781e+02,	 8.4205632813615612e+03,	 5.2420772392201229e+02,	 2.9412035256309874e+00 
1.4013770000000001e+00,	 2.6041729999999996e-01,	 4.2591343238201407e-02,	 1.5430737359241082e+03,	 -3.0636857624872750e+01,	 6.8108178223001119e+02,	 8.3454649648919731e+03,	 5.2375552643020967e+02,	 2.9467523812684315e+00 
1.4047890000000001e+00,	 2.6034669999999999e-01,	 4.2262242355365819e-02,	 1.5447374281656603e+03,	 -3.0506924765205888e+01,	 6.7979298296576724e+02,	 8.2653100773986407e+03,	 5.2325974502233453e+02,	 2.9527183262042547e+00 
1.4082300000000001e+00,	 2.6027539999999999e-01,	 4.1913396591000206e-02,	 1.5464852185795730e+03,	 -3.0401020763951486e+01,	 6.7839264666513088e+02,	 8.1802000760626879e+03,	 5.2272052398444885e+02,	 2.9591032540027351e+00 
1.4117000000000000e+00,	 2.6020349999999998e-01,	 4.1546825431640767e-02,	 1.5483062523629419e+03,	 -3.0308583124827241e+01,	 6.7689236851981082e+02,	 8.0907242637843219e+03,	 5.2214220091081825e+02,	 2.9658642248883154e+00 
1.4151980000000000e+00,	 2.6013110000000000e-01,	 4.1166497180815401e-02,	 1.5501939409828735e+03,	 -3.0202899570052310e+01,	 6.7531153815669109e+02,	 7.9979378004197479e+03,	 5.2153213292043586e+02,	 2.9729484365968486e+00 
1.4187259999999999e+00,	 2.6005800000000001e-01,	 4.0770966466396143e-02,	 1.5521513993732578e+03,	 -3.0116996217396849e+01,	 6.7364379910495552e+02,	 7.9015312190759578e+03,	 5.2088775094391042e+02,	 2.9803802353751663e+00 
1.4222830000000000e+00,	 2.5998440000000000e-01,	 4.0361576601259941e-02,	 1.5541733113784126e+03,	 -3.0053732272676530e+01,	 6.7189478160932288e+02,	 7.8018811073676425e+03,	 5.2021110706590810e+02,	 2.9881404764692148e+00 
1.4258700000000000e+00,	 2.5991009999999998e-01,	 3.9941068851761095e-02,	 1.5562484820179548e+03,	 -2.9997022574590407e+01,	 6.7008360990162714e+02,	 7.6997852998371091e+03,	 5.1950948869545414e+02,	 2.9961677092639958e+00 
1.4294860000000000e+00,	 2.5983519999999999e-01,	 3.9511153610740521e-02,	 1.5583762653611352e+03,	 -2.9950644506813497e+01,	 6.6821587107774940e+02,	 7.5956760480500188e+03,	 5.1878496334423880e+02,	 3.0044510956665573e+00 
1.4331330000000000e+00,	 2.5975969999999998e-01,	 3.9072217140288926e-02,	 1.5605500022910303e+03,	 -2.9924719930586917e+01,	 6.6629765870410540e+02,	 7.4897320446448084e+03,	 5.1803980374846253e+02,	 3.0129671101170343e+00 
1.4368099999999999e+00,	 2.5968350000000001e-01,	 3.8627134326839889e-02,	 1.5627632342207899e+03,	 -2.9903809793305619e+01,	 6.6434435701576740e+02,	 7.3827077648283394e+03,	 5.1727991009916764e+02,	 3.0216702513038771e+00 
1.4405180000000000e+00,	 2.5960669999999997e-01,	 3.8176588881101030e-02,	 1.5650119617333980e+03,	 -2.9893778508380020e+01,	 6.6236054318060701e+02,	 7.2748076062814653e+03,	 5.1650700199997448e+02,	 3.0305444743222307e+00 
1.4442560000000000e+00,	 2.5952929999999996e-01,	 3.7722565484626935e-02,	 1.5672908852398846e+03,	 -2.9882147161862903e+01,	 6.6035770104901098e+02,	 7.1665544601822976e+03,	 5.1572550527940859e+02,	 3.0395543976895318e+00 
1.4480260000000000e+00,	 2.5945119999999999e-01,	 3.7264619293640708e-02,	 1.5696047388769853e+03,	 -2.9885814060258291e+01,	 6.5833128447398371e+02,	 7.0578288037792372e+03,	 5.1493360288396252e+02,	 3.0487216650680540e+00 
1.4518270000000000e+00,	 2.5937250000000001e-01,	 3.6803261726170204e-02,	 1.5719457055221123e+03,	 -2.9899809689338802e+01,	 6.5628715052139637e+02,	 6.9488053902122892e+03,	 5.1413354094063482e+02,	 3.0580188125007184e+00 
1.4556600000000000e+00,	 2.5929310000000000e-01,	 3.6341139677552370e-02,	 1.5743151671403855e+03,	 -2.9901928943255342e+01,	 6.5423462769236630e+02,	 6.8400930122362470e+03,	 5.1332894099866542e+02,	 3.0674271184958921e+00 
1.4595250000000000e+00,	 2.5921309999999997e-01,	 3.5875643276027387e-02,	 1.5767184437601170e+03,	 -2.9930339886584107e+01,	 6.5215908070732564e+02,	 6.7310556365256671e+03,	 5.1251403098434980e+02,	 3.0769938028033157e+00 
1.4634220000000000e+00,	 2.5913239999999998e-01,	 3.5409288058675194e-02,	 1.5791460960360364e+03,	 -2.9954562404401877e+01,	 6.5007563976026563e+02,	 6.6223331406084744e+03,	 5.1169471639589750e+02,	 3.0866650005522285e+00 
1.4673510000000001e+00,	 2.5905099999999998e-01,	 3.4943295093185472e-02,	 1.5816006963599075e+03,	 -2.9967747303303184e+01,	 6.4798652307585917e+02,	 6.5141801782837647e+03,	 5.1087185046534006e+02,	 3.0964410739696757e+00 
1.4713130000000001e+00,	 2.5896900000000000e-01,	 3.4476002542238940e-02,	 1.5840895692005265e+03,	 -2.9998567412422673e+01,	 6.4587872690008453e+02,	 6.4061606004962323e+03,	 5.1004028160007044e+02,	 3.1063695331740186e+00 
1.4753090000000000e+00,	 2.5888620000000001e-01,	 3.4008326743571002e-02,	 1.5866057050189238e+03,	 -3.0037399578513440e+01,	 6.4375890054688625e+02,	 6.2985190705575878e+03,	 5.0920259691731980e+02,	 3.1164216779305574e+00 
1.4793369999999999e+00,	 2.5880280000000000e-01,	 3.3542419105996965e-02,	 1.5891505348134961e+03,	 -3.0067954964082539e+01,	 6.4163326892946247e+02,	 6.1917183481331267e+03,	 5.0836123216578341e+02,	 3.1265857096312670e+00 
1.4834000000000001e+00,	 2.5871859999999997e-01,	 3.3077276779989881e-02,	 1.5917226473789740e+03,	 -3.0105703811750093e+01,	 6.3949816114880582e+02,	 6.0855380863313394e+03,	 5.0751471240652495e+02,	 3.1368693189299388e+00 
1.4874959999999999e+00,	 2.5863379999999997e-01,	 3.2614806822999658e-02,	 1.5943244659786337e+03,	 -3.0138539040832224e+01,	 6.3735644024955900e+02,	 5.9803572259452849e+03,	 5.0666414978563887e+02,	 3.1472708406271739e+00 
1.4916259999999999e+00,	 2.5854830000000001e-01,	 3.2153566735507934e-02,	 1.5969571810283760e+03,	 -3.0189944757356557e+01,	 6.3520144605323321e+02,	 5.8758482478088217e+03,	 5.0580687218591930e+02,	 3.1578110318465389e+00 
1.4957910000000001e+00,	 2.5846199999999997e-01,	 3.1695258912075856e-02,	 1.5996193019235106e+03,	 -3.0245518247928448e+01,	 6.3303919165440595e+02,	 5.7723790181043378e+03,	 5.0494524359128479e+02,	 3.1684726948460988e+00 