TITLE = "Initial State"
VARIABLES = "X", "Y", "rho", "u", "v", "T", "p", "c", "M"
ZONE I=102, J=27, DATAPACKING=POINT, STRANDID=0, SOLUTIONTIME=0.000000
1.0000000000000000e+00,	 2.6805000000000001e-01,	 1.1586407740522199e-02,	 1.7360000000000000e+03,	 0.0000000000000000e+00,	 3.0000000000000000e+02,	 1.0000000000000000e+03,	 3.4760788074254771e+02,	 4.9941330337264445e+00 
1.0004999999999999e+00,	 2.6803939999999998e-01,	 1.1586407740522199e-02,	 1.7360000000000000e+03,	 0.0000000000000000e+00,	 3.0000000000000000e+02,	 1.0000000000000000e+03,	 3.4760788074254771e+02,	 4.9941330337264445e+00 
1.0009999999999999e+00,	 2.6802890000000001e-01,	 1.1586407740522199e-02,	 1.7360000000000000e+03,	 0.0000000000000000e+00,	 3.0000000000000000e+02,	 1.0000000000000000e+03,	 3.4760788074254771e+02,	 4.9941330337264445e+00 
1.0014989999999999e+00,	 2.6801829999999999e-01,	 1.1586407740522199e-02,	 1.7360000000000000e+03,	 0.0000000000000000e+00,	 3.0000000000000000e+02,	 1.0000000000000000e+03,	 3.4760788074254771e+02,	 4.9941330337264445e+00 
1.0019990000000001e+00,	 2.6800770000000002e-01,	 1.1586407740522199e-02,	 1.7360000000000000e+03,	 0.0000000000000000e+00,	 3.0000000000000000e+02,	 1.0000000000000000e+03,	 3.4760788074254771e+02,	 4.9941330337264445e+00 
1.0024999999999999e+00,	 2.6799719999999999e-01,	 1.1586407740522199e-02,	 1.7360000000000000e+03,	 0.0000000000000000e+00,	 3.0000000000000000e+02,	 1.0000000000000000e+03,	 3.4760788074254771e+02,	 4.9941330337264445e+00 
1.0029999999999999e+00,	 2.6798659999999996e-01,	 1.1586407740522199e-02,	 1.7360000000000000e+03,	 0.0000000000000000e+00,	 3.0000000000000000e+02,	 1.0000000000000000e+03,	 3.4760788074254771e+02,	 4.9941330337264445e+00 
1.0035000000000001e+00,	 2.6797599999999999e-01,	 1.1586407740522199e-02,	 1.7360000000000000e+03,	 0.0000000000000000e+00,	 3.0000000000000000e+02,	 1.0000000000000000e+03,	 3.4760788074254771e+02,	 4.9941330337264445e+00 
1.0040009999999999e+00,	 2.6796539999999996e-01,	 1.1586407740522199e-02,	 1.7360000000000000e+03,	 0.0000000000000000e+00,	 3.0000000000000000e+02,	 1.0000000000000000e+03,	 3.4760788074254771e+02,	 4.9941330337264445e+00 
1.0045020000000000e+00,	 2.6795490000000000e-01,	 1.1586407740522199e-02,	 1.7360000000000000e+03,	 0.0000000000000000e+00,	 3.0000000000000000e+02,	 1.0000000000000000e+03,	 3.4760788074254771e+02,	 4.9941330337264445e+00 
1.0050030000000001e+00,	 2.6794429999999997e-01,	 1.1586407740522199e-02,	 1.7360000000000000e+03,	 0.0000000000000000e+00,	 3.0000000000000000e+02,	 1.0000000000000000e+03,	 3.4760788074254771e+02,	 4.9941330337264445e+00 
1.0055050000000001e+00,	 2.6793370000000000e-01,	 1.1586407740522199e-02,	 1.7360000000000000e+03,	 0.0000000000000000e+00,	 3.0000000000000000e+02,	 1.0000000000000000e+03,	 3.4760788074254771e+02,	 4.9941330337264445e+00 
1.0060070000000001e+00,	 2.6792309999999997e-01,	 1.1586407740522199e-02,	 1.7360000000000000e+03,	 0.0000000000000000e+00,	 3.0000000000000000e+02,	 1.0000000000000000e+03,	 3.4760788074254771e+02,	 4.9941330337264445e+00 
1.0065100000000000e+00,	 2.6791239999999999e-01,	 1.1586407740522199e-02,	 1.7360000000000000e+03,	 0.0000000000000000e+00,	 3.0000000000000000e+02,	 1.0000000000000000e+03,	 3.4760788074254771e+02,	 4.9941330337264445e+00 
1.0070129999999999e+00,	 2.6790179999999997e-01,	 1.1586407740522199e-02,	 1.7360000000000000e+03,	 0.0000000000000000e+00,	 3.0000000000000000e+02,	 1.0000000000000000e+03,	 3.4760788074254771e+02,	 4.9941330337264445e+00 
1.0075160000000001e+00,	 2.6789120000000000e-01,	 1.1586407740522199e-02,	 1.7360000000000000e+03,	 0.0000000000000000e+00,	 3.0000000000000000e+02,	 1.0000000000000000e+03,	 3.4760788074254771e+02,	 4.9941330337264445e+00 
1.0080199999999999e+00,	 2.6788049999999997e-01,	 1.1586407740522199e-02,	 1.7360000000000000e+03,	 0.0000000000000000e+00,	 3.0000000000000000e+02,	 1.0000000000000000e+03,	 3.4760788074254771e+02,	 4.9941330337264445e+00 
1.0085249999999999e+00,	 2.6786989999999999e-01,	 1.1586407740522199e-02,	 1.7360000000000000e+03,	 0.0000000000000000e+00,	 3.0000000000000000e+02,	 1.0000000000000000e+03,	 3.4760788074254771e+02,	 4.9941330337264445e+00 
1.0090300000000001e+00,	 2.6785919999999996e-01,	 1.1586407740522199e-02,	 1.7360000000000000e+03,	 0.0000000000000000e+00,	 3.0000000000000000e+02,	 1.0000000000000000e+03,	 3.4760788074254771e+02,	 4.9941330337264445e+00 
1.0095360000000000e+00,	 2.6784849999999999e-01,	 1.1586407740522199e-02,	 1.7360000000000000e+03,	 0.0000000000000000e+00,	 3.0000000000000000e+02,	 1.0000000000000000e+03,	 3.4760788074254771e+02,	 4.9941330337264445e+00 
1.0100420000000001e+00,	 2.6783780000000001e-01,	 1.1586407740522199e-02,	 1.7360000000000000e+03,	 0.0000000000000000e+00,	 3.0000000000000000e+02,	 1.0000000000000000e+03,	 3.4760788074254771e+02,	 4.9941330337264445e+00 
1.0105489999999999e+00,	 2.6782709999999998e-01,	 1.1586407740522199e-02,	 1.7360000000000000e+03,	 0.0000000000000000e+00,	 3.0000000000000000e+02,	 1.0000000000000000e+03,	 3.4760788074254771e+02,	 4.9941330337264445e+00 
1.0110570000000001e+00,	 2.6781630000000001e-01,	 1.1586407740522199e-02,	 1.7360000000000000e+03,	 0.0000000000000000e+00,	 3.0000000000000000e+02,	 1.0000000000000000e+03,	 3.4760788074254771e+02,	 4.9941330337264445e+00 
1.0115660000000000e+00,	 2.6780559999999998e-01,	 1.1586407740522199e-02,	 1.7360000000000000e+03,	 0.0000000000000000e+00,	 3.0000000000000000e+02,	 1.0000000000000000e+03,	 3.4760788074254771e+02,	 4.9941330337264445e+00 
1.0120750000000001e+00,	 2.6779480000000000e-01,	 1.1586407740522199e-02,	 1.7360000000000000e+03,	 0.0000000000000000e+00,	 3.0000000000000000e+02,	 1.0000000000000000e+03,	 3.4760788074254771e+02,	 4.9941330337264445e+00 
1.0125860000000000e+00,	 2.6778399999999997e-01,	 1.1586407740522199e-02,	 1.7360000000000000e+03,	 0.0000000000000000e+00,	 3.0000000000000000e+02,	 1.0000000000000000e+03,	 3.4760788074254771e+02,	 4.9941330337264445e+00 
1.0130969999999999e+00,	 2.6777319999999999e-01,	 1.1586407740522199e-02,	 1.7360000000000000e+03,	 0.0000000000000000e+00,	 3.0000000000000000e+02,	 1.0000000000000000e+03,	 3.4760788074254771e+02,	 4.9941330337264445e+00 
1.0136090000000000e+00,	 2.6776240000000001e-01,	 1.1586407740522199e-02,	 1.7360000000000000e+03,	 0.0000000000000000e+00,	 3.0000000000000000e+02,	 1.0000000000000000e+03,	 3.4760788074254771e+02,	 4.9941330337264445e+00 
1.0141220000000000e+00,	 2.6775159999999998e-01,	 1.1586407740522199e-02,	 1.7360000000000000e+03,	 0.0000000000000000e+00,	 3.0000000000000000e+02,	 1.0000000000000000e+03,	 3.4760788074254771e+02,	 4.9941330337264445e+00 
1.0146360000000001e+00,	 2.6774070000000000e-01,	 1.1586407740522199e-02,	 1.7360000000000000e+03,	 0.0000000000000000e+00,	 3.0000000000000000e+02,	 1.0000000000000000e+03,	 3.4760788074254771e+02,	 4.9941330337264445e+00 
1.0151509999999999e+00,	 2.6772979999999996e-01,	 1.1586407740522199e-02,	 1.7360000000000000e+03,	 0.0000000000000000e+00,	 3.0000000000000000e+02,	 1.0000000000000000e+03,	 3.4760788074254771e+02,	 4.9941330337264445e+00 
1.0156670000000001e+00,	 2.6771889999999998e-01,	 1.1586407740522199e-02,	 1.7360000000000000e+03,	 0.0000000000000000e+00,	 3.0000000000000000e+02,	 1.0000000000000000e+03,	 3.4760788074254771e+02,	 4.9941330337264445e+00 
1.0161849999999999e+00,	 2.6770800000000000e-01,	 1.1586407740522199e-02,	 1.7360000000000000e+03,	 0.0000000000000000e+00,	 3.0000000000000000e+02,	 1.0000000000000000e+03,	 3.4760788074254771e+02,	 4.9941330337264445e+00 
1.0167029999999999e+00,	 2.6769699999999996e-01,	 1.1586407740522199e-02,	 1.7360000000000000e+03,	 0.0000000000000000e+00,	 3.0000000000000000e+02,	 1.0000000000000000e+03,	 3.4760788074254771e+02,	 4.9941330337264445e+00 
1.0172230000000000e+00,	 2.6768599999999998e-01,	 1.1586407740522199e-02,	 1.7360000000000000e+03,	 0.0000000000000000e+00,	 3.0000000000000000e+02,	 1.0000000000000000e+03,	 3.4760788074254771e+02,	 4.9941330337264445e+00 
1.0177430000000001e+00,	 2.6767500000000000e-01,	 1.1586407740522199e-02,	 1.7360000000000000e+03,	 0.0000000000000000e+00,	 3.0000000000000000e+02,	 1.0000000000000000e+03,	 3.4760788074254771e+02,	 4.9941330337264445e+00 
1.0182650000000000e+00,	 2.6766400000000001e-01,	 1.1586407740522199e-02,	 1.7360000000000000e+03,	 0.0000000000000000e+00,	 3.0000000000000000e+02,	 1.0000000000000000e+03,	 3.4760788074254771e+02,	 4.9941330337264445e+00 
1.0187889999999999e+00,	 2.6765289999999997e-01,	 1.1586407740522199e-02,	 1.7360000000000000e+03,	 0.0000000000000000e+00,	 3.0000000000000000e+02,	 1.0000000000000000e+03,	 3.4760788074254771e+02,	 4.9941330337264445e+00 
1.0193129999999999e+00,	 2.6764189999999999e-01,	 1.1586407740522199e-02,	 1.7360000000000000e+03,	 0.0000000000000000e+00,	 3.0000000000000000e+02,	 1.0000000000000000e+03,	 3.4760788074254771e+02,	 4.9941330337264445e+00 
1.0198389999999999e+00,	 2.6763070000000000e-01,	 1.1586407740522199e-02,	 1.7360000000000000e+03,	 0.0000000000000000e+00,	 3.0000000000000000e+02,	 1.0000000000000000e+03,	 3.4760788074254771e+02,	 4.9941330337264445e+00 
1.0203670000000000e+00,	 2.6761960000000001e-01,	 1.1586407740522199e-02,	 1.7360000000000000e+03,	 0.0000000000000000e+00,	 3.0000000000000000e+02,	 1.0000000000000000e+03,	 3.4760788074254771e+02,	 4.9941330337264445e+00 
1.0208950000000001e+00,	 2.6760839999999997e-01,	 1.1586407740522199e-02,	 1.7360000000000000e+03,	 0.0000000000000000e+00,	 3.0000000000000000e+02,	 1.0000000000000000e+03,	 3.4760788074254771e+02,	 4.9941330337264445e+00 
1.0214259999999999e+00,	 2.6759719999999998e-01,	 1.1586407740522199e-02,	 1.7360000000000000e+03,	 0.0000000000000000e+00,	 3.0000000000000000e+02,	 1.0000000000000000e+03,	 3.4760788074254771e+02,	 4.9941330337264445e+00 
1.0219570000000000e+00,	 2.6758599999999999e-01,	 1.1586407740522199e-02,	 1.7360000000000000e+03,	 0.0000000000000000e+00,	 3.0000000000000000e+02,	 1.0000000000000000e+03,	 3.4760788074254771e+02,	 4.9941330337264445e+00 
1.0224910000000000e+00,	 2.6757470000000000e-01,	 1.1586407740522199e-02,	 1.7360000000000000e+03,	 0.0000000000000000e+00,	 3.0000000000000000e+02,	 1.0000000000000000e+03,	 3.4760788074254771e+02,	 4.9941330337264445e+00 
1.0230260000000000e+00,	 2.6756340000000001e-01,	 1.1586407740522199e-02,	 1.7360000000000000e+03,	 0.0000000000000000e+00,	 3.0000000000000000e+02,	 1.0000000000000000e+03,	 3.4760788074254771e+02,	 4.9941330337264445e+00 
1.0235620000000001e+00,	 2.6755210000000001e-01,	 1.1586407740522199e-02,	 1.7360000000000000e+03,	 0.0000000000000000e+00,	 3.0000000000000000e+02,	 1.0000000000000000e+03,	 3.4760788074254771e+02,	 4.9941330337264445e+00 
1.0241000000000000e+00,	 2.6754069999999996e-01,	 1.1586407740522199e-02,	 1.7360000000000000e+03,	 0.0000000000000000e+00,	 3.0000000000000000e+02,	 1.0000000000000000e+03,	 3.4760788074254771e+02,	 4.9941330337264445e+00 
1.0246400000000000e+00,	 2.6752929999999997e-01,	 1.1586407740522199e-02,	 1.7360000000000000e+03,	 0.0000000000000000e+00,	 3.0000000000000000e+02,	 1.0000000000000000e+03,	 3.4760788074254771e+02,	 4.9941330337264445e+00 
1.0251820000000000e+00,	 2.6751779999999997e-01,	 1.1586407740522199e-02,	 1.7360000000000000e+03,	 0.0000000000000000e+00,	 3.0000000000000000e+02,	 1.0000000000000000e+03,	 3.4760788074254771e+02,	 4.9941330337264445e+00 
1.0257250000000000e+00,	 2.6750639999999998e-01,	 1.1586407740522199e-02,	 1.7360000000000000e+03,	 0.0000000000000000e+00,	 3.0000000000000000e+02,	 1.0000000000000000e+03,	 3.4760788074254771e+02,	 4.9941330337264445e+00 
1.0262700000000000e+00,	 2.6749479999999998e-01,	 1.1586407740522199e-02,	 1.7360000000000000e+03,	 0.0000000000000000e+00,	 3.0000000000000000e+02,	 1.0000000000000000e+03,	 3.4760788074254771e+02,	 4.9941330337264445e+00 
1.0268170000000001e+00,	 2.6748329999999998e-01,	 1.1586407740522199e-02,	 1.7360000000000000e+03,	 0.0000000000000000e+00,	 3.0000000000000000e+02,	 1.0000000000000000e+03,	 3.4760788074254771e+02,	 4.9941330337264445e+00 
1.0273660000000000e+00,	 2.6747169999999998e-01,	 1.1586407740522199e-02,	 1.7360000000000000e+03,	 0.0000000000000000e+00,	 3.0000000000000000e+02,	 1.0000000000000000e+03,	 3.4760788074254771e+02,	 4.9941330337264445e+00 
1.0279170000000000e+00,	 2.6745999999999998e-01,	 1.1586407740522199e-02,	 1.7360000000000000e+03,	 0.0000000000000000e+00,	 3.0000000000000000e+02,	 1.0000000000000000e+03,	 3.4760788074254771e+02,	 4.9941330337264445e+00 
1.0284690000000001e+00,	 2.6744839999999998e-01,	 1.1586407740522199e-02,	 1.7360000000000000e+03,	 0.0000000000000000e+00,	 3.0000000000000000e+02,	 1.0000000000000000e+03,	 3.4760788074254771e+02,	 4.9941330337264445e+00 
1.0290239999999999e+00,	 2.6743659999999997e-01,	 1.1586407740522199e-02,	 1.7360000000000000e+03,	 0.0000000000000000e+00,	 3.0000000000000000e+02,	 1.0000000000000000e+03,	 3.4760788074254771e+02,	 4.9941330337264445e+00 
1.0295810000000001e+00,	 2.6742489999999997e-01,	 1.1586407740522199e-02,	 1.7360000000000000e+03,	 0.0000000000000000e+00,	 3.0000000000000000e+02,	 1.0000000000000000e+03,	 3.4760788074254771e+02,	 4.9941330337264445e+00 
1.0301400000000001e+00,	 2.6741310000000001e-01,	 1.1586407740522199e-02,	 1.7360000000000000e+03,	 0.0000000000000000e+00,	 3.0000000000000000e+02,	 1.0000000000000000e+03,	 3.4760788074254771e+02,	 4.9941330337264445e+00 
1.0307010000000001e+00,	 2.6740120000000001e-01,	 1.1586407740522199e-02,	 1.7360000000000000e+03,	 0.0000000000000000e+00,	 3.0000000000000000e+02,	 1.0000000000000000e+03,	 3.4760788074254771e+02,	 4.9941330337264445e+00 
1.0312640000000000e+00,	 2.6738930000000000e-01,	 1.1586407740522199e-02,	 1.7360000000000000e+03,	 0.0000000000000000e+00,	 3.0000000000000000e+02,	 1.0000000000000000e+03,	 3.4760788074254771e+02,	 4.9941330337264445e+00 
1.0318290000000001e+00,	 2.6737739999999999e-01,	 1.1586407740522199e-02,	 1.7360000000000000e+03,	 0.0000000000000000e+00,	 3.0000000000000000e+02,	 1.0000000000000000e+03,	 3.4760788074254771e+02,	 4.9941330337264445e+00 
1.0323970000000000e+00,	 2.6736539999999998e-01,	 1.1586407740522199e-02,	 1.7360000000000000e+03,	 0.0000000000000000e+00,	 3.0000000000000000e+02,	 1.0000000000000000e+03,	 3.4760788074254771e+02,	 4.9941330337264445e+00 
1.0329660000000001e+00,	 2.6735330000000002e-01,	 1.1586407740522199e-02,	 1.7360000000000000e+03,	 0.0000000000000000e+00,	 3.0000000000000000e+02,	 1.0000000000000000e+03,	 3.4760788074254771e+02,	 4.9941330337264445e+00 
1.0335390000000000e+00,	 2.6734120000000000e-01,	 1.1586407740522199e-02,	 1.7360000000000000e+03,	 0.0000000000000000e+00,	 3.0000000000000000e+02,	 1.0000000000000000e+03,	 3.4760788074254771e+02,	 4.9941330337264445e+00 
1.0341130000000001e+00,	 2.6732909999999999e-01,	 1.1586407740522199e-02,	 1.7360000000000000e+03,	 0.0000000000000000e+00,	 3.0000000000000000e+02,	 1.0000000000000000e+03,	 3.4760788074254771e+02,	 4.9941330337264445e+00 
1.0346900000000001e+00,	 2.6731689999999997e-01,	 1.1586407740522199e-02,	 1.7360000000000000e+03,	 0.0000000000000000e+00,	 3.0000000000000000e+02,	 1.0000000000000000e+03,	 3.4760788074254771e+02,	 4.9941330337264445e+00 
1.0352690000000000e+00,	 2.6730470000000001e-01,	 1.1586407740522199e-02,	 1.7360000000000000e+03,	 0.0000000000000000e+00,	 3.0000000000000000e+02,	 1.0000000000000000e+03,	 3.4760788074254771e+02,	 4.9941330337264445e+00 
1.0358510000000001e+00,	 2.6729239999999999e-01,	 1.1586407740522199e-02,	 1.7360000000000000e+03,	 0.0000000000000000e+00,	 3.0000000000000000e+02,	 1.0000000000000000e+03,	 3.4760788074254771e+02,	 4.9941330337264445e+00 
1.0364350000000000e+00,	 2.6727999999999996e-01,	 1.1586407740522199e-02,	 1.7360000000000000e+03,	 0.0000000000000000e+00,	 3.0000000000000000e+02,	 1.0000000000000000e+03,	 3.4760788074254771e+02,	 4.9941330337264445e+00 
1.0370220000000001e+00,	 2.6726759999999999e-01,	 1.1586407740522199e-02,	 1.7360000000000000e+03,	 0.0000000000000000e+00,	 3.0000000000000000e+02,	 1.0000000000000000e+03,	 3.4760788074254771e+02,	 4.9941330337264445e+00 
1.0376120000000000e+00,	 2.6725519999999997e-01,	 1.1586407740522199e-02,	 1.7360000000000000e+03,	 0.0000000000000000e+00,	 3.0000000000000000e+02,	 1.0000000000000000e+03,	 3.4760788074254771e+02,	 4.9941330337264445e+00 
1.0382039999999999e+00,	 2.6724270000000000e-01,	 1.1586407740522199e-02,	 1.7360000000000000e+03,	 0.0000000000000000e+00,	 3.0000000000000000e+02,	 1.0000000000000000e+03,	 3.4760788074254771e+02,	 4.9941330337264445e+00 
1.0387980000000001e+00,	 2.6723009999999997e-01,	 1.1586407740522199e-02,	 1.7360000000000000e+03,	 0.0000000000000000e+00,	 3.0000000000000000e+02,	 1.0000000000000000e+03,	 3.4760788074254771e+02,	 4.9941330337264445e+00 
1.0393960000000000e+00,	 2.6721750000000000e-01,	 1.1586407740522199e-02,	 1.7360000000000000e+03,	 0.0000000000000000e+00,	 3.0000000000000000e+02,	 1.0000000000000000e+03,	 3.4760788074254771e+02,	 4.9941330337264445e+00 
1.0399959999999999e+00,	 2.6720479999999996e-01,	 1.1586407740522199e-02,	 1.7360000000000000e+03,	 0.0000000000000000e+00,	 3.0000000000000000e+02,	 1.0000000000000000e+03,	 3.4760788074254771e+02,	 4.9941330337264445e+00 
1.0405990000000001e+00,	 2.6719199999999999e-01,	 1.1586407740522199e-02,	 1.7360000000000000e+03,	 0.0000000000000000e+00,	 3.0000000000000000e+02,	 1.0000000000000000e+03,	 3.4760788074254771e+02,	 4.9941330337264445e+00 
1.0412049999999999e+00,	 2.6717920000000001e-01,	 1.1586407740522199e-02,	 1.7360000000000000e+03,	 0.0000000000000000e+00,	 3.0000000000000000e+02,	 1.0000000000000000e+03,	 3.4760788074254771e+02,	 4.9941330337264445e+00 
1.0418140000000000e+00,	 2.6716639999999997e-01,	 1.1586407740522199e-02,	 1.7360000000000000e+03,	 0.0000000000000000e+00,	 3.0000000000000000e+02,	 1.0000000000000000e+03,	 3.4760788074254771e+02,	 4.9941330337264445e+00 
1.0424260000000001e+00,	 2.6715339999999999e-01,	 1.1586407740522199e-02,	 1.7360000000000000e+03,	 0.0000000000000000e+00,	 3.0000000000000000e+02,	 1.0000000000000000e+03,	 3.4760788074254771e+02,	 4.9941330337264445e+00 
1.0430400000000000e+00,	 2.6714040000000000e-01,	 1.1586407740522199e-02,	 1.7360000000000000e+03,	 0.0000000000000000e+00,	 3.0000000000000000e+02,	 1.0000000000000000e+03,	 3.4760788074254771e+02,	 4.9941330337264445e+00 
1.0436580000000000e+00,	 2.6712740000000001e-01,	 1.1586407740522199e-02,	 1.7360000000000000e+03,	 0.0000000000000000e+00,	 3.0000000000000000e+02,	 1.0000000000000000e+03,	 3.4760788074254771e+02,	 4.9941330337264445e+00 
1.0442790000000000e+00,	 2.6711429999999997e-01,	 1.1586407740522199e-02,	 1.7360000000000000e+03,	 0.0000000000000000e+00,	 3.0000000000000000e+02,	 1.0000000000000000e+03,	 3.4760788074254771e+02,	 4.9941330337264445e+00 
1.0449029999999999e+00,	 2.6710109999999998e-01,	 1.1586407740522199e-02,	 1.7360000000000000e+03,	 0.0000000000000000e+00,	 3.0000000000000000e+02,	 1.0000000000000000e+03,	 3.4760788074254771e+02,	 4.9941330337264445e+00 
1.0455300000000001e+00,	 2.6708779999999999e-01,	 1.1586407740522199e-02,	 1.7360000000000000e+03,	 0.0000000000000000e+00,	 3.0000000000000000e+02,	 1.0000000000000000e+03,	 3.4760788074254771e+02,	 4.9941330337264445e+00 
1.0461600000000000e+00,	 2.6707449999999999e-01,	 1.1586407740522199e-02,	 1.7360000000000000e+03,	 0.0000000000000000e+00,	 3.0000000000000000e+02,	 1.0000000000000000e+03,	 3.4760788074254771e+02,	 4.9941330337264445e+00 
1.0467930000000001e+00,	 2.6706110000000000e-01,	 1.1586407740522199e-02,	 1.7360000000000000e+03,	 0.0000000000000000e+00,	 3.0000000000000000e+02,	 1.0000000000000000e+03,	 3.4760788074254771e+02,	 4.9941330337264445e+00 
1.0474300000000001e+00,	 2.6704770000000000e-01,	 1.1586407740522199e-02,	 1.7360000000000000e+03,	 0.0000000000000000e+00,	 3.0000000000000000e+02,	 1.0000000000000000e+03,	 3.4760788074254771e+02,	 4.9941330337264445e+00 
1.0480700000000001e+00,	 2.6703420000000000e-01,	 1.1586407740522199e-02,	 1.7360000000000000e+03,	 0.0000000000000000e+00,	 3.0000000000000000e+02,	 1.0000000000000000e+03,	 3.4760788074254771e+02,	 4.9941330337264445e+00 
1.0487139999999999e+00,	 2.6702060000000000e-01,	 1.1586407740522199e-02,	 1.7360000000000000e+03,	 0.0000000000000000e+00,	 3.0000000000000000e+02,	 1.0000000000000000e+03,	 3.4760788074254771e+02,	 4.9941330337264445e+00 
1.0493610000000000e+00,	 2.6700689999999999e-01,	 1.1586407740522199e-02,	 1.7360000000000000e+03,	 0.0000000000000000e+00,	 3.0000000000000000e+02,	 1.0000000000000000e+03,	 3.4760788074254771e+02,	 4.9941330337264445e+00 
1.0500110000000000e+00,	 2.6699309999999998e-01,	 1.1586407740522199e-02,	 1.7360000000000000e+03,	 0.0000000000000000e+00,	 3.0000000000000000e+02,	 1.0000000000000000e+03,	 3.4760788074254771e+02,	 4.9941330337264445e+00 
1.0506650000000000e+00,	 2.6697929999999997e-01,	 1.1586407740522199e-02,	 1.7360000000000000e+03,	 0.0000000000000000e+00,	 3.0000000000000000e+02,	 1.0000000000000000e+03,	 3.4760788074254771e+02,	 4.9941330337264445e+00 
1.0513220000000001e+00,	 2.6696539999999996e-01,	 1.1586407740522199e-02,	 1.7360000000000000e+03,	 0.0000000000000000e+00,	 3.0000000000000000e+02,	 1.0000000000000000e+03,	 3.4760788074254771e+02,	 4.9941330337264445e+00 
1.0519829999999999e+00,	 2.6695150000000001e-01,	 1.1586407740522199e-02,	 1.7360000000000000e+03,	 0.0000000000000000e+00,	 3.0000000000000000e+02,	 1.0000000000000000e+03,	 3.4760788074254771e+02,	 4.9941330337264445e+00 
1.0526480000000000e+00,	 2.6693739999999999e-01,	 1.1586407740522199e-02,	 1.7360000000000000e+03,	 0.0000000000000000e+00,	 3.0000000000000000e+02,	 1.0000000000000000e+03,	 3.4760788074254771e+02,	 4.9941330337264445e+00 
1.0533159999999999e+00,	 2.6692329999999997e-01,	 1.1586407740522199e-02,	 1.7360000000000000e+03,	 0.0000000000000000e+00,	 3.0000000000000000e+02,	 1.0000000000000000e+03,	 3.4760788074254771e+02,	 4.9941330337264445e+00 
1.0539879999999999e+00,	 2.6690910000000001e-01,	 1.1586407740522199e-02,	 1.7360000000000000e+03,	 0.0000000000000000e+00,	 3.0000000000000000e+02,	 1.0000000000000000e+03,	 3.4760788074254771e+02,	 4.9941330337264445e+00 
1.0546640000000000e+00,	 2.6689479999999999e-01,	 1.1586407740522199e-02,	 1.7360000000000000e+03,	 0.0000000000000000e+00,	 3.0000000000000000e+02,	 1.0000000000000000e+03,	 3.4760788074254771e+02,	 4.9941330337264445e+00 
1.0553440000000001e+00,	 2.6688039999999996e-01,	 1.1586407740522199e-02,	 1.7360000000000000e+03,	 0.0000000000000000e+00,	 3.0000000000000000e+02,	 1.0000000000000000e+03,	 3.4760788074254771e+02,	 4.9941330337264445e+00 
1.0560270000000000e+00,	 2.6686599999999999e-01,	 1.1586407740522199e-02,	 1.7360000000000000e+03,	 0.0000000000000000e+00,	 3.0000000000000000e+02,	 1.0000000000000000e+03,	 3.4760788074254771e+02,	 4.9941330337264445e+00 
1.0567150000000001e+00,	 2.6685149999999996e-01,	 1.1586407740522199e-02,	 1.7360000000000000e+03,	 0.0000000000000000e+00,	 3.0000000000000000e+02,	 1.0000000000000000e+03,	 3.4760788074254771e+02,	 4.9941330337264445e+00 
1.0000000000000000e+00,	 2.6872979999999996e-01,	 1.1586407740522199e-02,	 1.7360000000000000e+03,	 0.0000000000000000e+00,	 3.0000000000000000e+02,	 1.0000000000000000e+03,	 3.4760788074254771e+02,	 4.9941330337264445e+00 
1.0004999999999999e+00,	 2.6871940000000000e-01,	 1.1586407740522199e-02,	 1.7360000000000000e+03,	 0.0000000000000000e+00,	 3.0000000000000000e+02,	 1.0000000000000000e+03,	 3.4760788074254771e+02,	 4.9941330337264445e+00 
1.0009999999999999e+00,	 2.6870909999999998e-01,	 1.1586407740522199e-02,	 1.7360000000000000e+03,	 0.0000000000000000e+00,	 3.0000000000000000e+02,	 1.0000000000000000e+03,	 3.4760788074254771e+02,	 4.9941330337264445e+00 
1.0014989999999999e+00,	 2.6869870000000001e-01,	 1.1586407740522199e-02,	 1.7360000000000000e+03,	 0.0000000000000000e+00,	 3.0000000000000000e+02,	 1.0000000000000000e+03,	 3.4760788074254771e+02,	 4.9941330337264445e+00 
1.0019990000000001e+00,	 2.6868839999999999e-01,	 1.1586407740522199e-02,	 1.7360000000000000e+03,	 0.0000000000000000e+00,	 3.0000000000000000e+02,	 1.0000000000000000e+03,	 3.4760788074254771e+02,	 4.9941330337264445e+00 
1.0024999999999999e+00,	 2.6867799999999997e-01,	 1.1586407740522199e-02,	 1.7360000000000000e+03,	 0.0000000000000000e+00,	 3.0000000000000000e+02,	 1.0000000000000000e+03,	 3.4760788074254771e+02,	 4.9941330337264445e+00 
1.0029999999999999e+00,	 2.6866770000000001e-01,	 1.1586407740522199e-02,	 1.7360000000000000e+03,	 0.0000000000000000e+00,	 3.0000000000000000e+02,	 1.0000000000000000e+03,	 3.4760788074254771e+02,	 4.9941330337264445e+00 
1.0035000000000001e+00,	 2.6865729999999999e-01,	 1.1586407740522199e-02,	 1.7360000000000000e+03,	 0.0000000000000000e+00,	 3.0000000000000000e+02,	 1.0000000000000000e+03,	 3.4760788074254771e+02,	 4.9941330337264445e+00 
1.0040009999999999e+00,	 2.6864689999999997e-01,	 1.1586407740522199e-02,	 1.7360000000000000e+03,	 0.0000000000000000e+00,	 3.0000000000000000e+02,	 1.0000000000000000e+03,	 3.4760788074254771e+02,	 4.9941330337264445e+00 
1.0045020000000000e+00,	 2.6863660000000000e-01,	 1.1586407740522199e-02,	 1.7360000000000000e+03,	 0.0000000000000000e+00,	 3.0000000000000000e+02,	 1.0000000000000000e+03,	 3.4760788074254771e+02,	 4.9941330337264445e+00 
1.0050040000000000e+00,	 2.6862619999999998e-01,	 1.1586407740522199e-02,	 1.7360000000000000e+03,	 0.0000000000000000e+00,	 3.0000000000000000e+02,	 1.0000000000000000e+03,	 3.4760788074254771e+02,	 4.9941330337264445e+00 
1.0055050000000001e+00,	 2.6861580000000002e-01,	 1.1586407740522199e-02,	 1.7360000000000000e+03,	 0.0000000000000000e+00,	 3.0000000000000000e+02,	 1.0000000000000000e+03,	 3.4760788074254771e+02,	 4.9941330337264445e+00 
1.0060070000000001e+00,	 2.6860539999999999e-01,	 1.1586407740522199e-02,	 1.7360000000000000e+03,	 0.0000000000000000e+00,	 3.0000000000000000e+02,	 1.0000000000000000e+03,	 3.4760788074254771e+02,	 4.9941330337264445e+00 
1.0065100000000000e+00,	 2.6859499999999997e-01,	 1.1586407740522199e-02,	 1.7360000000000000e+03,	 0.0000000000000000e+00,	 3.0000000000000000e+02,	 1.0000000000000000e+03,	 3.4760788074254771e+02,	 4.9941330337264445e+00 
1.0070129999999999e+00,	 2.6858460000000001e-01,	 1.1586407740522199e-02,	 1.7360000000000000e+03,	 0.0000000000000000e+00,	 3.0000000000000000e+02,	 1.0000000000000000e+03,	 3.4760788074254771e+02,	 4.9941330337264445e+00 
1.0075160000000001e+00,	 2.6857409999999998e-01,	 1.1586407740522199e-02,	 1.7360000000000000e+03,	 0.0000000000000000e+00,	 3.0000000000000000e+02,	 1.0000000000000000e+03,	 3.4760788074254771e+02,	 4.9941330337264445e+00 
1.0080199999999999e+00,	 2.6856370000000002e-01,	 1.1586407740522199e-02,	 1.7360000000000000e+03,	 0.0000000000000000e+00,	 3.0000000000000000e+02,	 1.0000000000000000e+03,	 3.4760788074254771e+02,	 4.9941330337264445e+00 
1.0085249999999999e+00,	 2.6855329999999999e-01,	 1.1586407740522199e-02,	 1.7360000000000000e+03,	 0.0000000000000000e+00,	 3.0000000000000000e+02,	 1.0000000000000000e+03,	 3.4760788074254771e+02,	 4.9941330337264445e+00 
1.0090300000000001e+00,	 2.6854279999999997e-01,	 1.1586407740522199e-02,	 1.7360000000000000e+03,	 0.0000000000000000e+00,	 3.0000000000000000e+02,	 1.0000000000000000e+03,	 3.4760788074254771e+02,	 4.9941330337264445e+00 
1.0095360000000000e+00,	 2.6853230000000000e-01,	 1.1586407740522199e-02,	 1.7360000000000000e+03,	 0.0000000000000000e+00,	 3.0000000000000000e+02,	 1.0000000000000000e+03,	 3.4760788074254771e+02,	 4.9941330337264445e+00 
1.0100420000000001e+00,	 2.6852179999999998e-01,	 1.1586407740522199e-02,	 1.7360000000000000e+03,	 0.0000000000000000e+00,	 3.0000000000000000e+02,	 1.0000000000000000e+03,	 3.4760788074254771e+02,	 4.9941330337264445e+00 
1.0105489999999999e+00,	 2.6851130000000001e-01,	 1.1586407740522199e-02,	 1.7360000000000000e+03,	 0.0000000000000000e+00,	 3.0000000000000000e+02,	 1.0000000000000000e+03,	 3.4760788074254771e+02,	 4.9941330337264445e+00 
1.0110570000000001e+00,	 2.6850079999999998e-01,	 1.1586407740522199e-02,	 1.7360000000000000e+03,	 0.0000000000000000e+00,	 3.0000000000000000e+02,	 1.0000000000000000e+03,	 3.4760788074254771e+02,	 4.9941330337264445e+00 
1.0115660000000000e+00,	 2.6849030000000002e-01,	 1.1586407740522199e-02,	 1.7360000000000000e+03,	 0.0000000000000000e+00,	 3.0000000000000000e+02,	 1.0000000000000000e+03,	 3.4760788074254771e+02,	 4.9941330337264445e+00 
1.0120750000000001e+00,	 2.6847969999999999e-01,	 1.1586407740522199e-02,	 1.7360000000000000e+03,	 0.0000000000000000e+00,	 3.0000000000000000e+02,	 1.0000000000000000e+03,	 3.4760788074254771e+02,	 4.9941330337264445e+00 
1.0125860000000000e+00,	 2.6846919999999996e-01,	 1.1586407740522199e-02,	 1.7360000000000000e+03,	 0.0000000000000000e+00,	 3.0000000000000000e+02,	 1.0000000000000000e+03,	 3.4760788074254771e+02,	 4.9941330337264445e+00 
1.0130969999999999e+00,	 2.6845859999999999e-01,	 1.1586407740522199e-02,	 1.7360000000000000e+03,	 0.0000000000000000e+00,	 3.0000000000000000e+02,	 1.0000000000000000e+03,	 3.4760788074254771e+02,	 4.9941330337264445e+00 
1.0136090000000000e+00,	 2.6844799999999996e-01,	 1.1586407740522199e-02,	 1.7360000000000000e+03,	 0.0000000000000000e+00,	 3.0000000000000000e+02,	 1.0000000000000000e+03,	 3.4760788074254771e+02,	 4.9941330337264445e+00 
1.0141220000000000e+00,	 2.6843729999999999e-01,	 1.1586407740522199e-02,	 1.7360000000000000e+03,	 0.0000000000000000e+00,	 3.0000000000000000e+02,	 1.0000000000000000e+03,	 3.4760788074254771e+02,	 4.9941330337264445e+00 
1.0146360000000001e+00,	 2.6842669999999996e-01,	 1.1586407740522199e-02,	 1.7360000000000000e+03,	 0.0000000000000000e+00,	 3.0000000000000000e+02,	 1.0000000000000000e+03,	 3.4760788074254771e+02,	 4.9941330337264445e+00 
1.0151509999999999e+00,	 2.6841599999999999e-01,	 1.1586407740522199e-02,	 1.7360000000000000e+03,	 0.0000000000000000e+00,	 3.0000000000000000e+02,	 1.0000000000000000e+03,	 3.4760788074254771e+02,	 4.9941330337264445e+00 