TITLE = "Final State"
VARIABLES = "X", "Y", "rho", "u", "v", "T", "p", "c", "M"
ZONE I=102, J=25, DATAPACKING=POINT, STRANDID=40000, SOLUTIONTIME=0.000965
1.0567210000000000e+00,	 2.8514950000000000e-01,	 5.2746669622526166e-02,	 1.5409520892378057e+03,	 -7.9004868939948508e+01,	 6.1386781974778273e+02,	 9.3153644066610414e+03,	 4.9724041499574241e+02,	 3.1030785307733479e+00 
1.0574120000000000e+00,	 2.8514249999999997e-01,	 5.2464172155961580e-02,	 1.5415780454104508e+03,	 -8.1945074960903810e+01,	 6.1254311729687788e+02,	 9.2454792081985943e+03,	 4.9670361267533144e+02,	 3.1079992800014034e+00 
1.0581080000000000e+00,	 2.8513539999999998e-01,	 5.2147450811826979e-02,	 1.5423841317703982e+03,	 -8.5181685356758067e+01,	 6.1106330365485928e+02,	 9.1674642344950826e+03,	 4.9610326861090476e+02,	 3.1137358191437761e+00 
1.0588070000000001e+00,	 2.8512830000000000e-01,	 5.1839662593870364e-02,	 1.5431657548107485e+03,	 -8.8367236344560865e+01,	 6.0961683449967188e+02,	 9.0917828659641673e+03,	 4.9551574908737206e+02,	 3.1193636130305569e+00 
1.0595110000000001e+00,	 2.8512119999999996e-01,	 5.1536782897223979e-02,	 1.5439269016796907e+03,	 -9.1530689650580371e+01,	 6.0818893812191186e+02,	 9.0174918653056957e+03,	 4.9493508931289256e+02,	 3.1249303669083210e+00 
1.0602190000000000e+00,	 2.8511399999999998e-01,	 5.1237394197332642e-02,	 1.5446669250755499e+03,	 -9.4671518748863562e+01,	 6.0678064127016569e+02,	 8.9443480108553904e+03,	 4.9436173172019824e+02,	 3.1304311820007209e+00 
1.0609310000000001e+00,	 2.8510679999999999e-01,	 5.0944062898937249e-02,	 1.5453907759205845e+03,	 -9.7787208031231927e+01,	 6.0538892386010139e+02,	 8.8727447155129321e+03,	 4.9379447005869400e+02,	 3.1358826483297824e+00 
1.0616479999999999e+00,	 2.8509950000000001e-01,	 5.0653964588993294e-02,	 1.5460953833423728e+03,	 -1.0087537386349243e+02,	 6.0401715814232421e+02,	 8.8022288486303805e+03,	 4.9323470223685672e+02,	 3.1412686512989185e+00 
1.0623680000000000e+00,	 2.8509219999999996e-01,	 5.0370522255620026e-02,	 1.5467835913678423e+03,	 -1.0392881881708973e+02,	 6.0266599960261010e+02,	 8.7333945733441487e+03,	 4.9268272172902874e+02,	 3.1465912936047098e+00 
1.0630940000000000e+00,	 2.8508489999999997e-01,	 5.0092700088947749e-02,	 1.5474544455971372e+03,	 -1.0694652779140972e+02,	 6.0133570996050275e+02,	 8.6660536628839873e+03,	 4.9213866183471498e+02,	 3.1518467622908388e+00 
1.0638230000000000e+00,	 2.8507749999999998e-01,	 4.9819471021149794e-02,	 1.5481013256277026e+03,	 -1.0991492684116881e+02,	 6.0003732654600935e+02,	 8.6001755594237384e+03,	 4.9160707028204234e+02,	 3.1569895650054836e+00 
1.0645570000000000e+00,	 2.8506999999999999e-01,	 4.9553274159718601e-02,	 1.5487259879732362e+03,	 -1.1283277956343363e+02,	 5.9877099228593738e+02,	 8.5361697959988342e+03,	 4.9108804617253156e+02,	 3.1620211265426619e+00 
1.0652960000000000e+00,	 2.8506250000000000e-01,	 4.9296200665063648e-02,	 1.5493280650279717e+03,	 -1.1568834340852138e+02,	 5.9754036718583438e+02,	 8.4744327163192302e+03,	 4.9058313183658868e+02,	 3.1669276525809247e+00 
1.0660390000000000e+00,	 2.8505500000000000e-01,	 4.9047514373388390e-02,	 1.5499024920051902e+03,	 -1.1846885698882610e+02,	 5.9635364537425221e+02,	 8.4149360319905099e+03,	 4.9009573794728607e+02,	 3.1716732873571258e+00 
1.0667869999999999e+00,	 2.8504740000000001e-01,	 4.8807748059220724e-02,	 1.5504453942201203e+03,	 -1.2116415177262097e+02,	 5.9521817942307530e+02,	 8.3578562030478424e+03,	 4.8962894096374794e+02,	 3.1762267784904434e+00 
1.0675390000000000e+00,	 2.8503980000000001e-01,	 4.8580662300271110e-02,	 1.5509553195833550e+03,	 -1.2375336972661233e+02,	 5.9414229327134285e+02,	 8.3039330090135591e+03,	 4.8918622661283763e+02,	 3.1805571120905678e+00 
1.0682959999999999e+00,	 2.8503210000000001e-01,	 4.8365641743203597e-02,	 1.5514257583980582e+03,	 -1.2622033987990210e+02,	 5.9313732758097331e+02,	 8.2531957942325989e+03,	 4.8877233296985696e+02,	 3.1846151665403446e+00 
1.0690580000000001e+00,	 2.8502440000000001e-01,	 4.8167236213289721e-02,	 1.5518538821163329e+03,	 -1.2853714385942334e+02,	 5.9221474177757921e+02,	 8.2065548974910034e+03,	 4.8839205855390998e+02,	 3.1883565696157290e+00 
1.0698250000000000e+00,	 2.8501660000000001e-01,	 4.7985715652899337e-02,	 1.5522305662922322e+03,	 -1.3067617464771524e+02,	 5.9139180459963245e+02,	 8.1642673065735898e+03,	 4.8805260761154784e+02,	 3.1917079971915374e+00 
1.0705970000000000e+00,	 2.8500880000000001e-01,	 4.7826502391971483e-02,	 1.5525508197336835e+03,	 -1.3260232066348544e+02,	 5.9068445665480533e+02,	 8.1274461742209733e+03,	 4.8776064693838538e+02,	 3.1946063656962504e+00 
1.0713729999999999e+00,	 2.8500090000000000e-01,	 4.7691025437564621e-02,	 1.5528021079891998e+03,	 -1.3427328191698723e+02,	 5.9011787868647502e+02,	 8.0966500845555820e+03,	 4.8752666351958436e+02,	 3.1969465989611057e+00 
1.0721550000000000e+00,	 2.8499300000000000e-01,	 4.7588091892222156e-02,	 1.5529737765625282e+03,	 -1.3562018924778297e+02,	 5.8972446019113977e+02,	 8.0737885377296507e+03,	 4.8736412482051918e+02,	 3.1986029765134121e+00 
1.0729420000000001e+00,	 2.8498499999999999e-01,	 4.7518025558890592e-02,	 1.5530428710404137e+03,	 -1.3660949639833188e+02,	 5.8952680946555142e+02,	 8.0591990854543465e+03,	 4.8728244604338613e+02,	 3.1994576475343366e+00 
1.0737340000000000e+00,	 2.8497689999999998e-01,	 4.7488665980701630e-02,	 1.5530274753861738e+03,	 -1.3717796737874727e+02,	 5.8955301638239303e+02,	 8.0545776568239298e+03,	 4.8729327678799194e+02,	 3.1994574960187041e+00 
1.0745309999999999e+00,	 2.8496889999999997e-01,	 4.7508848607626483e-02,	 1.5528844078420375e+03,	 -1.3725368178033082e+02,	 5.8983992359014928e+02,	 8.0619222857637269e+03,	 4.8741183351164239e+02,	 3.1984005550787158e+00 
1.0753330000000001e+00,	 2.8496070000000001e-01,	 4.7578974072503694e-02,	 1.5525993971822245e+03,	 -1.3677403841083748e+02,	 5.9042639952342711e+02,	 8.0818498663160708e+03,	 4.8765408931492908e+02,	 3.1961430153289454e+00 
1.0761410000000000e+00,	 2.8495250000000000e-01,	 4.7701764380082431e-02,	 1.5522073028059999e+03,	 -1.3619088694407208e+02,	 5.9117278525098914e+02,	 8.1129502607707536e+03,	 4.8796222517636789e+02,	 3.1932196211717412e+00 
1.0769530000000000e+00,	 2.8494429999999998e-01,	 4.7831831171669420e-02,	 1.5517139485701255e+03,	 -1.3483730869092736e+02,	 5.9208000703710843e+02,	 8.1475557598618343e+03,	 4.8833649836959563e+02,	 3.1895247010908800e+00 
1.0777720000000000e+00,	 2.8493599999999997e-01,	 4.8085135923425143e-02,	 1.5509113040527252e+03,	 -1.3213913579174226e+02,	 5.9372118949755918e+02,	 8.2134068174153745e+03,	 4.8901283828300990e+02,	 3.1830050134120853e+00 
1.0785950000000000e+00,	 2.8492760000000000e-01,	 4.8459191497206650e-02,	 1.5498909108704227e+03,	 -1.2863522014039489e+02,	 5.9595594221789929e+02,	 8.3084546923697926e+03,	 4.8993229035990220e+02,	 3.1743567514766649e+00 
1.0794250000000001e+00,	 2.8491919999999998e-01,	 4.8882343340794936e-02,	 1.5487466766473092e+03,	 -1.2472632251277346e+02,	 5.9841334933547978e+02,	 8.4155640117361654e+03,	 4.9094136203600664e+02,	 3.1648604432201939e+00 
1.0802590000000001e+00,	 2.8491079999999996e-01,	 4.9359972566257057e-02,	 1.5474637125569639e+03,	 -1.2038503804858526e+02,	 6.0103223214968261e+02,	 8.5349820107422674e+03,	 4.9201446165034395e+02,	 3.1546620084683710e+00 
1.0810999999999999e+00,	 2.8490219999999999e-01,	 4.9886878789784275e-02,	 1.5460601894028564e+03,	 -1.1562702244368063e+02,	 6.0382283865844931e+02,	 8.6661420972053293e+03,	 4.9315535612777410e+02,	 3.1437921297480345e+00 
1.0819460000000001e+00,	 2.8489369999999997e-01,	 5.0456403334943833e-02,	 1.5445749182935144e+03,	 -1.1057887005501634e+02,	 6.0672277098557356e+02,	 8.8071728905462951e+03,	 4.9433815686108244e+02,	 3.1325280215521443e+00 
1.0827979999999999e+00,	 2.8488500000000000e-01,	 5.1049400501371051e-02,	 1.5430296376874985e+03,	 -1.0538589494735297e+02,	 6.0967782083133284e+02,	 8.9540802031246058e+03,	 4.9554053427238256e+02,	 3.1210852968739995e+00 
1.0836560000000000e+00,	 2.8487629999999997e-01,	 5.1657492127675175e-02,	 1.5414711499415416e+03,	 -1.0020239403462277e+02,	 6.1260654418969989e+02,	 9.1042649405947941e+03,	 4.9672932804982008e+02,	 3.1097912430927561e+00 
1.0845190000000000e+00,	 2.8486760000000000e-01,	 5.2261794368067702e-02,	 1.5399299071921964e+03,	 -9.5157645390769886e+01,	 6.1544618159574998e+02,	 9.2534639172295920e+03,	 4.9787925078554900e+02,	 3.0988782221051090e+00 
1.0853889999999999e+00,	 2.8485869999999996e-01,	 5.2848212467469624e-02,	 1.5384349337401295e+03,	 -9.0362261655157880e+01,	 6.1814709809172541e+02,	 9.3983599598486508e+03,	 4.9897053885914141e+02,	 3.0885319064808434e+00 
1.0862639999999999e+00,	 2.8484989999999999e-01,	 5.3409795604658507e-02,	 1.5370194693543413e+03,	 -8.5909367582894532e+01,	 6.2065963933960359e+02,	 9.5368369614835301e+03,	 4.9998357661766266e+02,	 3.0789381009811172e+00 
1.0871459999999999e+00,	 2.8484090000000001e-01,	 5.3931420679136921e-02,	 1.5356924411274417e+03,	 -8.1851081564478406e+01,	 6.2296960165151995e+02,	 9.6658188944040030e+03,	 5.0091312844258636e+02,	 3.0701375205487946e+00 
1.0880330000000000e+00,	 2.8483189999999997e-01,	 5.4413032784436571e-02,	 1.5344741186740093e+03,	 -7.8220054923718692e+01,	 6.2505758446678897e+02,	 9.7848213174826051e+03,	 5.0175187169193634e+02,	 3.0622037537296163e+00 
1.0889270000000000e+00,	 2.8482279999999999e-01,	 5.4848507477316774e-02,	 1.5333652951981853e+03,	 -7.5019280804149801e+01,	 6.2692780155672119e+02,	 9.8926417291415564e+03,	 5.0250194981918366e+02,	 3.0551112149647897e+00 
1.0898270000000001e+00,	 2.8481370000000000e-01,	 5.5239017638847560e-02,	 1.5323700927259160e+03,	 -7.2240641366328532e+01,	 6.2858330631314675e+02,	 9.9893844357756916e+03,	 5.0316498143288618e+02,	 3.0488448666487269e+00 
1.0907330000000000e+00,	 2.8480450000000002e-01,	 5.5584589424394190e-02,	 1.5314814529616488e+03,	 -6.9855288942288624e+01,	 6.3004248429453958e+02,	 1.0075211573689168e+04,	 5.0374866036269094e+02,	 3.0433307251538628e+00 
1.0916459999999999e+00,	 2.8479529999999997e-01,	 5.5890048448309027e-02,	 1.5306943883674671e+03,	 -6.7827102556013543e+01,	 6.3132171252401440e+02,	 1.0151147761421786e+04,	 5.0425980267047089e+02,	 3.0385059404706776e+00 
1.0925650000000000e+00,	 2.8478589999999998e-01,	 5.6155690494433613e-02,	 1.5299962614197373e+03,	 -6.6122110952569628e+01,	 6.3244347571797687e+02,	 1.0217518340745555e+04,	 5.0470760054079551e+02,	 3.0342804399119756e+00 
1.0934910000000000e+00,	 2.8477659999999999e-01,	 5.6392000832551886e-02,	 1.5293852614026696e+03,	 -6.4697113751062346e+01,	 6.3342128466801444e+02,	 1.0276378555603655e+04,	 5.0509760931194370e+02,	 3.0306084458946043e+00 
1.0944229999999999e+00,	 2.8476710000000000e-01,	 5.6595115096099220e-02,	 1.5288405886840465e+03,	 -6.3514736606771692e+01,	 6.3428306111444658e+02,	 1.0327423780001362e+04,	 5.0544108788048999e+02,	 3.0273743010094356e+00 
1.0953619999999999e+00,	 2.8475760000000000e-01,	 5.6776628952182912e-02,	 1.5283613400606721e+03,	 -6.2537180772360614e+01,	 6.3504031818806277e+02,	 1.0372915495150930e+04,	 5.0574271556989822e+02,	 3.0245423211331706e+00 
1.0963069999999999e+00,	 2.8474800000000000e-01,	 5.6935329374997845e-02,	 1.5279325400009516e+03,	 -6.1729620334938659e+01,	 6.3571385809608387e+02,	 1.0412942104095700e+04,	 5.0601084628375685e+02,	 3.0220280934530344e+00 
1.0972599999999999e+00,	 2.8473830000000000e-01,	 5.7076983650336810e-02,	 1.5275484385487052e+03,	 -6.1062460205691508e+01,	 6.3631633470214126e+02,	 1.0448742424629898e+04,	 5.0625056695168769e+02,	 3.0197860730451405e+00 
1.0982190000000001e+00,	 2.8472860000000000e-01,	 5.7204818958284470e-02,	 1.5272038981660517e+03,	 -6.0510202529874249e+01,	 6.3685710143235224e+02,	 1.0481044112381509e+04,	 5.0646563712180938e+02,	 3.0177806160589054e+00 
1.0991850000000001e+00,	 2.8471879999999999e-01,	 5.7318915331505585e-02,	 1.5268893857209209e+03,	 -6.0047439652168620e+01,	 6.3734972781236274e+02,	 1.0510072348903443e+04,	 5.0666148176502691e+02,	 3.0159578274065164e+00 
1.1001580000000000e+00,	 2.8470889999999999e-01,	 5.7422857156752119e-02,	 1.5266023907863919e+03,	 -5.9655527231371863e+01,	 6.3780044877107605e+02,	 1.0536577250543991e+04,	 5.0684060052799532e+02,	 3.0142958823086952e+00 
1.1011380000000000e+00,	 2.8469899999999998e-01,	 5.7519097045667100e-02,	 1.5263417223996976e+03,	 -5.9316383302934376e+01,	 6.3821274103142127e+02,	 1.0561058960716624e+04,	 5.0700439211647864e+02,	 3.0127822992469762e+00 
1.1021250000000000e+00,	 2.8468899999999997e-01,	 5.7606070812192239e-02,	 1.5261016083464990e+03,	 -5.9014041803434409e+01,	 6.3859355062372720e+02,	 1.0583339294709855e+04,	 5.0715562957336829e+02,	 3.0113876758970726e+00 
1.1031190000000000e+00,	 2.8467890000000001e-01,	 5.7685732381471858e-02,	 1.5258819344743742e+03,	 -5.8734173742092722e+01,	 6.3894499413631320e+02,	 1.0603807140131852e+04,	 5.0729516436806233e+02,	 3.0101053978482888e+00 
1.1041200000000000e+00,	 2.8466870000000000e-01,	 5.7758602604723625e-02,	 1.5256826624387486e+03,	 -5.8464977196525155e+01,	 6.3926794117331019e+02,	 1.0622568501260350e+04,	 5.0742335128207031e+02,	 3.0089321909719882e+00 
1.1051290000000000e+00,	 2.8465849999999998e-01,	 5.7825955046024627e-02,	 1.5255064455554252e+03,	 -5.8194209688525319e+01,	 6.3955988174236916e+02,	 1.0639812269432021e+04,	 5.0753920298009240e+02,	 3.0078780397024474e+00 
1.1061449999999999e+00,	 2.8464819999999996e-01,	 5.7884611338016111e-02,	 1.5253498617533746e+03,	 -5.7910092535254890e+01,	 6.3982372045564989e+02,	 1.0654998573282144e+04,	 5.0764388018589466e+02,	 3.0069282962910706e+00 
1.1071690000000001e+00,	 2.8463780000000000e-01,	 5.7936686303674746e-02,	 1.5252170785592989e+03,	 -5.7603442729453029e+01,	 6.4005581691679890e+02,	 1.0668452757178600e+04,	 5.0773594590747797e+02,	 3.0060988760195841e+00 
1.1082000000000001e+00,	 2.8462739999999997e-01,	 5.7981761153769913e-02,	 1.5251107698377605e+03,	 -5.7262588976818762e+01,	 6.4025283636916970e+02,	 1.0680039309206346e+04,	 5.0781408453113062e+02,	 3.0054018644842215e+00 
1.1092379999999999e+00,	 2.8461680000000000e-01,	 5.8016140165279714e-02,	 1.5250275633826291e+03,	 -5.6879035727435145e+01,	 6.4041720504543366e+02,	 1.0689115258801232e+04,	 5.0787926454103393e+02,	 3.0048242004473114e+00 
1.1102850000000000e+00,	 2.8460619999999998e-01,	 5.8044352014475345e-02,	 1.5249768072523398e+03,	 -5.6443710189247582e+01,	 6.4054000901679956e+02,	 1.0696363818526852e+04,	 5.0792795670648201e+02,	 3.0044044640067988e+00 
1.1113390000000001e+00,	 2.8459550000000000e-01,	 5.8061511307159835e-02,	 1.5249563673236694e+03,	 -5.5949258489693520e+01,	 6.4062157679286520e+02,	 1.0700888419592568e+04,	 5.0796029600954375e+02,	 3.0041371299807040e+00 
1.1124000000000001e+00,	 2.8458479999999997e-01,	 5.8068646707158431e-02,	 1.5249716582855363e+03,	 -5.5378443336235947e+01,	 6.4065416546756092e+02,	 1.0702747917831210e+04,	 5.0797321591649512e+02,	 3.0040498138209415e+00 
1.1134700000000000e+00,	 2.8457389999999999e-01,	 5.8063972257527262e-02,	 1.5250151256061824e+03,	 -5.4739673991069253e+01,	 6.4064702571684734e+02,	 1.0701767093865985e+04,	 5.0797038536264012e+02,	 3.0041066965430296e+00 
1.1145480000000001e+00,	 2.8456300000000001e-01,	 5.8050202506990972e-02,	 1.5250999665969503e+03,	 -5.4024788887834603e+01,	 6.4058528632779121e+02,	 1.0698198103361156e+04,	 5.0794590812664671e+02,	 3.0043682270221699e+00 
1.1156340000000000e+00,	 2.8455199999999997e-01,	 5.8022478729143553e-02,	 1.5252224873197058e+03,	 -5.3224257340274406e+01,	 6.4046983871663076e+02,	 1.0691161697346710e+04,	 5.0790013453077364e+02,	 3.0048246879453337e+00 
1.1167270000000000e+00,	 2.8454089999999999e-01,	 5.7984354880948365e-02,	 1.5253800648666884e+03,	 -5.2316258261063510e+01,	 6.4030899347757054e+02,	 1.0681453861785392e+04,	 5.0783635444051600e+02,	 3.0054503548536862e+00 
1.1178300000000001e+00,	 2.8452970000000000e-01,	 5.7934527028757711e-02,	 1.5255757659845603e+03,	 -5.1307750999604792e+01,	 6.4009589871657704e+02,	 1.0668723207307949e+04,	 5.0775184346780765e+02,	 3.0062683690483096e+00 
1.1189400000000000e+00,	 2.8451840000000000e-01,	 5.7871472780965105e-02,	 1.5258116336606413e+03,	 -5.0206119720148827e+01,	 6.3982491931179629e+02,	 1.0652600078692722e+04,	 5.0764435577915680e+02,	 3.0072971309357701e+00 
1.1200580000000000e+00,	 2.8450710000000001e-01,	 5.7796671069042377e-02,	 1.5260891541390865e+03,	 -4.9004010745073337e+01,	 6.3949545074471939e+02,	 1.0633352759709835e+04,	 5.0751363689803134e+02,	 3.0085412893227761e+00 
1.1211860000000000e+00,	 2.8449560000000002e-01,	 5.7707265474911756e-02,	 1.5264020604961247e+03,	 -4.7699348895998746e+01,	 6.3911378386123829e+02,	 1.0610567606433871e+04,	 5.0736216587666286e+02,	 3.0099744767977650e+00 
1.1223209999999999e+00,	 2.8448409999999996e-01,	 5.7607864062642726e-02,	 1.5267557847234866e+03,	 -4.6292058238400500e+01,	 6.3867540422529123e+02,	 1.0585025341974753e+04,	 5.0718813161213120e+02,	 3.0116190194012611e+00 
1.1234649999999999e+00,	 2.8447249999999996e-01,	 5.7495445498230956e-02,	 1.5271445415459316e+03,	 -4.4780682028975377e+01,	 6.3818496776823372e+02,	 1.0556256910063084e+04,	 5.0699336027810335e+02,	 3.0134535783033960e+00 
1.1246179999999999e+00,	 2.8446080000000001e-01,	 5.7371594546921700e-02,	 1.5275675088124101e+03,	 -4.3167449133882961e+01,	 6.3764426835118024e+02,	 1.0524593198134095e+04,	 5.0677854081596792e+02,	 3.0154736188292914e+00 
1.1257800000000000e+00,	 2.8444900000000001e-01,	 5.7237008550181150e-02,	 1.5280239984753639e+03,	 -4.1455433012901842e+01,	 6.3705356570462141e+02,	 1.0490176996974738e+04,	 5.0654375097961457e+02,	 3.0176786051630842e+00 
1.1269499999999999e+00,	 2.8443720000000000e-01,	 5.7092673545531297e-02,	 1.5285132164634663e+03,	 -3.9646254972041838e+01,	 6.3641406499958362e+02,	 1.0453219918407651e+04,	 5.0628944236334269e+02,	 3.0200655399722414e+00 
1.1281289999999999e+00,	 2.8442519999999999e-01,	 5.6936555732009564e-02,	 1.5290283399572679e+03,	 -3.7743670508645657e+01,	 6.3573237974271331e+02,	 1.0413469783008775e+04,	 5.0601821759217046e+02,	 3.0226068197348281e+00 
1.1293169999999999e+00,	 2.8441319999999998e-01,	 5.6773476629291567e-02,	 1.5295735568047289e+03,	 -3.5752081418942453e+01,	 6.3500579816682261e+02,	 1.0371775747658350e+04,	 5.0572896960287670e+02,	 3.0253187463840279e+00 
1.1305149999999999e+00,	 2.8440100000000001e-01,	 5.6599527379057511e-02,	 1.5301409008472760e+03,	 -3.3674687136560053e+01,	 6.3424120635048462e+02,	 1.0327547395100510e+04,	 5.0542441120430880e+02,	 3.0281707237029765e+00 
1.1317210000000000e+00,	 2.8438880000000000e-01,	 5.6419472172471188e-02,	 1.5307337715989277e+03,	 -3.1516423317968982e+01,	 6.3343673995133304e+02,	 1.0281635551778129e+04,	 5.0510377138703211e+02,	 3.0311755153547910e+00 
1.1329370000000001e+00,	 2.8437639999999997e-01,	 5.6229882844086532e-02,	 1.5313438551649817e+03,	 -2.9281826277032451e+01,	 6.3260039582984098e+02,	 1.0233556117722570e+04,	 5.0477020997874592e+02,	 3.0342990885066303e+00 
1.1341619999999999e+00,	 2.8436400000000001e-01,	 5.6035582056035538e-02,	 1.5319761775046004e+03,	 -2.6976043216444133e+01,	 6.3172808734916794e+02,	 1.0184131805854908e+04,	 5.0442206979968847e+02,	 3.0375627015150211e+00 
1.1353960000000001e+00,	 2.8435149999999998e-01,	 5.5833726400073780e-02,	 1.5326233613052098e+03,	 -2.4603009692415284e+01,	 6.3082684280804301e+02,	 1.0132969060514924e+04,	 5.0406212863090548e+02,	 3.0409362973872263e+00 
1.1366400000000001e+00,	 2.8433890000000001e-01,	 5.5626558038389992e-02,	 1.5332852020888818e+03,	 -2.2167976886649125e+01,	 6.2989797928961821e+02,	 1.0080506195396883e+04,	 5.0369088776884740e+02,	 3.0444176803145817e+00 
1.1378940000000000e+00,	 2.8432619999999997e-01,	 5.5414438434875521e-02,	 1.5339605187588345e+03,	 -1.9675914756732588e+01,	 6.2894275781849808e+02,	 1.0026837915805181e+04,	 5.0330882677461130e+02,	 3.0480027811488934e+00 
1.1391570000000000e+00,	 2.8431339999999999e-01,	 5.5197185865168016e-02,	 1.5346466189282255e+03,	 -1.7129123326909596e+01,	 6.2796432906989651e+02,	 9.9719903311476828e+03,	 5.0291718262899025e+02,	 3.0516798058173222e+00 
1.1404300000000001e+00,	 2.8430040000000001e-01,	 5.4974875645324349e-02,	 1.5353405967112503e+03,	 -1.4533464287280154e+01,	 6.2696606400313203e+02,	 9.9160390273120756e+03,	 5.0251728385009147e+02,	 3.0554359642375344e+00 
1.1417130000000000e+00,	 2.8428739999999997e-01,	 5.4750805776274072e-02,	 1.5360452014431262e+03,	 -1.1895894477478603e+01,	 6.2594570546135583e+02,	 9.8595505221025360e+03,	 5.0210820541607575e+02,	 3.0592833338136294e+00 
1.1430050000000000e+00,	 2.8427429999999998e-01,	 5.4522114025408686e-02,	 1.5367531886261622e+03,	 -9.2190386090722605e+00,	 6.2491040432150157e+02,	 9.8021282302250365e+03,	 5.0169279532609488e+02,	 3.0631909713860930e+00 
1.1443080000000001e+00,	 2.8426109999999999e-01,	 5.4291109850526723e-02,	 1.5374661491245793e+03,	 -6.5067189705848278e+00,	 6.2385972747901747e+02,	 9.7441869687318303e+03,	 5.0127086383918709e+02,	 3.0671639397672865e+00 
1.1456210000000000e+00,	 2.8424779999999999e-01,	 5.4057867842770085e-02,	 1.5381829764193935e+03,	 -3.7637263137430987e+00,	 6.2279490840491042e+02,	 9.6857644479275514e+03,	 5.0084289044387248e+02,	 3.0711977956094176e+00 
1.1469440000000000e+00,	 2.8423440000000000e-01,	 5.3822484185341149e-02,	 1.5389017829426730e+03,	 -9.9214481980407188e-01,	 6.2171850250026228e+02,	 9.6269223438204899e+03,	 5.0040988803709956e+02,	 3.0752831619730396e+00 
1.1482779999999999e+00,	 2.8422080000000000e-01,	 5.3584711774629631e-02,	 1.5396197591465409e+03,	 1.8033799167478004e+00,	 6.2063387220829361e+02,	 9.5676727146248541e+03,	 4.9997319792105429e+02,	 3.0794066996214751e+00 
1.1496210000000000e+00,	 2.8420719999999999e-01,	 5.3347715368279355e-02,	 1.5403414705422242e+03,	 4.6171680122988370e+00,	 6.1953684415479404e+02,	 9.5085195119162963e+03,	 4.9953112793621818e+02,	 3.0835883979098178e+00 
1.1509760000000000e+00,	 2.8419349999999999e-01,	 5.3108634724463574e-02,	 1.5410609542512293e+03,	 7.4505505922187112e+00,	 6.1843319530368331e+02,	 9.4490439160584556e+03,	 4.9908599484570999e+02,	 3.0878024641229551e+00 
1.1523410000000001e+00,	 2.8417959999999998e-01,	 5.2868243470625784e-02,	 1.5417764897017878e+03,	 1.0298039400266099e+01,	 6.1732570550032847e+02,	 9.3894289555980049e+03,	 4.9863891314421255e+02,	 3.0920388294930716e+00 
1.1537160000000000e+00,	 2.8416569999999997e-01,	 5.2629632020816011e-02,	 1.5424926086193736e+03,	 1.3155560850355226e+01,	 6.1621057760988924e+02,	 9.3301670581697472e+03,	 4.9818834265138855e+02,	 3.0963163444365067e+00 
1.1551030000000000e+00,	 2.8415160000000000e-01,	 5.2382424483210233e-02,	 1.5432174318233870e+03,	 1.5949085270505204e+01,	 6.1507199557502361e+02,	 9.2691836507887274e+03,	 4.9772787460761782e+02,	 3.1006900053405708e+00 
1.1565000000000001e+00,	 2.8413739999999998e-01,	 5.2178925474120334e-02,	 1.5437123129907447e+03,	 1.8048216558908305e+01,	 6.1413755480468365e+02,	 9.2191466704381128e+03,	 4.9734964733944884e+02,	 3.1040894920611413e+00 
1.0567210000000000e+00,	 2.8585329999999998e-01,	 5.3580922448708469e-02,	 1.5391128316986358e+03,	 -7.1196635666222392e+01,	 6.1825466834313966e+02,	 9.5303209818256491e+03,	 4.9901395251551196e+02,	 3.0876063868230057e+00 
1.0574120000000000e+00,	 2.8584660000000001e-01,	 5.3295136611766755e-02,	 1.5397448130995124e+03,	 -7.4138509365774283e+01,	 6.1693182786090483e+02,	 9.4592062188529017e+03,	 4.9847981232076415e+02,	 3.0924595568193292e+00 
1.0581080000000000e+00,	 2.8583979999999998e-01,	 5.2965221677033693e-02,	 1.5405703505458964e+03,	 -7.7477137719176767e+01,	 6.1541108825752474e+02,	 9.3774778867441200e+03,	 4.9786505580429491e+02,	 3.0982639000880314e+00 
1.0588080000000000e+00,	 2.8583300000000000e-01,	 5.2642814470141491e-02,	 1.5413698227560653e+03,	 -8.0758724173128698e+01,	 6.1392415586127481e+02,	 9.2978762010110058e+03,	 4.9726323094152485e+02,	 3.1039576589220554e+00 
1.0595110000000001e+00,	 2.8582619999999997e-01,	 5.2328006914101256e-02,	 1.5421499114624337e+03,	 -8.3993522611054701e+01,	 6.1246454581521004e+02,	 9.2203006907746858e+03,	 4.9667175533396642e+02,	 3.1095699797173371e+00 
1.0602190000000000e+00,	 2.8581930000000000e-01,	 5.2018085846977327e-02,	 1.5429109629876607e+03,	 -8.7193921156476804e+01,	 6.1102772179786518e+02,	 9.1441895248232777e+03,	 4.9608882449977068e+02,	 3.1151130615806144e+00 
1.0609310000000001e+00,	 2.8581239999999997e-01,	 5.1713957069061130e-02,	 1.5436545817891865e+03,	 -9.0361379841141229e+01,	 6.0961127524545418e+02,	 9.0696535753707140e+03,	 4.9551348971382595e+02,	 3.1205953177248431e+00 
1.0616479999999999e+00,	 2.8580539999999999e-01,	 5.1414383636437001e-02,	 1.5443808724175065e+03,	 -9.3501509085891925e+01,	 6.0821326781216294e+02,	 8.9964353014262124e+03,	 4.9494498878346678e+02,	 3.1260215805799740e+00 
1.0623689999999999e+00,	 2.8579840000000001e-01,	 5.1119536908614052e-02,	 1.5450876513687865e+03,	 -9.6608701591583738e+01,	 6.0683649728012983e+02,	 8.9245955015928994e+03,	 4.9438448494969924e+02,	 3.1313786077948933e+00 
1.0630940000000000e+00,	 2.8579129999999997e-01,	 5.0830418006765632e-02,	 1.5457772113636311e+03,	 -9.9685585381861230e+01,	 6.0547868057190499e+02,	 8.8542641564438709e+03,	 4.9383107439973060e+02,	 3.1366762182111811e+00 
1.0638230000000000e+00,	 2.8578419999999999e-01,	 5.0546936358828197e-02,	 1.5464483483436543e+03,	 -1.0272907070210245e+02,	 6.0414288830591181e+02,	 8.7854587348460464e+03,	 4.9328603459730232e+02,	 3.1419026288550107e+00 
1.0645570000000000e+00,	 2.8577710000000001e-01,	 5.0268421677623729e-02,	 1.5470989235606298e+03,	 -1.0573865908814238e+02,	 6.0283040444474398e+02,	 8.7180696696118739e+03,	 4.9274991807146051e+02,	 3.1470490113910250e+00 
1.0652960000000000e+00,	 2.8576989999999997e-01,	 4.9996115971608558e-02,	 1.5477272373484620e+03,	 -1.0870515430016897e+02,	 6.0154490227914630e+02,	 8.6523535076635308e+03,	 4.9222425684755649e+02,	 3.1520998637739708e+00 
1.0660390000000000e+00,	 2.8576269999999998e-01,	 4.9731719197258779e-02,	 1.5483331788766204e+03,	 -1.1161944561089604e+02,	 6.0029047448653591e+02,	 8.5886491546884881e+03,	 4.9171076065992906e+02,	 3.1570415294791720e+00 
1.0667869999999999e+00,	 2.8575539999999999e-01,	 4.9474463874350977e-02,	 1.5489132113100113e+03,	 -1.1447653510140741e+02,	 5.9907133938352899e+02,	 8.5268687247590460e+03,	 4.9121119707624950e+02,	 3.1618534048305871e+00 
1.0675390000000000e+00,	 2.8574810000000000e-01,	 4.9226677781733126e-02,	 1.5494658671176949e+03,	 -1.1726258962052374e+02,	 5.9789275970147060e+02,	 8.4674717965486725e+03,	 4.9072776837730441e+02,	 3.1665147380671126e+00 
1.0682959999999999e+00,	 2.8574079999999996e-01,	 4.8988130290204913e-02,	 1.5499873642687021e+03,	 -1.1996844851445957e+02,	 5.9676054840954521e+02,	 8.4104823951883918e+03,	 4.9026291009360762e+02,	 3.1709989812241051e+00 
1.0690580000000001e+00,	 2.8573339999999997e-01,	 4.8761554208705690e-02,	 1.5504748996558958e+03,	 -1.2257691975249983e+02,	 5.9568232571875933e+02,	 8.3564571715403381e+03,	 4.8981980809496042e+02,	 3.1752751703369619e+00 
1.0698250000000000e+00,	 2.8572589999999998e-01,	 4.8547657353182748e-02,	 1.5509220969774985e+03,	 -1.2506892237896790e+02,	 5.9466939617607954e+02,	 8.3056534088678727e+03,	 4.8940317322647286e+02,	 3.1792944803764493e+00 
1.0705970000000000e+00,	 2.8571839999999998e-01,	 4.8350092310053695e-02,	 1.5513248832590716e+03,	 -1.2741790835427351e+02,	 5.9373362885320626e+02,	 8.2588369652703241e+03,	 4.8901796103494911e+02,	 3.1830095008557069e+00 
1.0713740000000000e+00,	 2.8571079999999999e-01,	 4.8169852451292572e-02,	 1.5516748884148715e+03,	 -1.2960215516924285e+02,	 5.9288827747556388e+02,	 8.2163346010503155e+03,	 4.8866970784737106e+02,	 3.1863606528316875e+00 
1.0721550000000000e+00,	 2.8570329999999999e-01,	 4.8011911489607616e-02,	 1.5519633117597916e+03,	 -1.3157824804767961e+02,	 5.9215405076425463e+02,	 8.1792529402285791e+03,	 4.8836703235454814e+02,	 3.1892632833487071e+00 
1.0729420000000001e+00,	 2.8569559999999999e-01,	 4.7880021727990121e-02,	 1.5521781645130691e+03,	 -1.3330969458978154e+02,	 5.9155072702793882e+02,	 8.1484737109236030e+03,	 4.8811817944977071e+02,	 3.1916294067825581e+00 
1.0737340000000000e+00,	 2.8568789999999999e-01,	 4.7776459989036388e-02,	 1.5523183131109436e+03,	 -1.3474859026933498e+02,	 5.9110324188435561e+02,	 8.1246983585511789e+03,	 4.8793352330204516e+02,	 3.1933771123912003e+00 
1.0745309999999999e+00,	 2.8568020000000000e-01,	 4.7709805740722332e-02,	 1.5523610212094206e+03,	 -1.3584092249093277e+02,	 5.9083730948608627e+02,	 8.1097132350363709e+03,	 4.8782375235145616e+02,	 3.1943773300661444e+00 
1.0753330000000001e+00,	 2.8567239999999999e-01,	 4.7683212656982693e-02,	 1.5522949720079318e+03,	 -1.3652893490620602e+02,	 5.9078524272040158e+02,	 8.1044786828738579e+03,	 4.8780225746259396e+02,	 3.1945064691319645e+00 
1.0761410000000000e+00,	 2.8566449999999999e-01,	 4.7706238201810497e-02,	 1.5521026491635091e+03,	 -1.3645016443609737e+02,	 5.9106048027526026e+02,	 8.1121697927337145e+03,	 4.8791587393178793e+02,	 3.1933557952855294e+00 
1.0769540000000000e+00,	 2.8565659999999998e-01,	 4.7791559357051108e-02,	 1.5517719704611279e+03,	 -1.3587670755781687e+02,	 5.9164950168058192e+02,	 8.1347768038134109e+03,	 4.8815892970918105e+02,	 3.1909883325829811e+00 
1.0777720000000000e+00,	 2.8564869999999998e-01,	 4.7916587052249070e-02,	 1.5513103097404944e+03,	 -1.3526298965359047e+02,	 5.9241870557572133e+02,	 8.1666619234134823e+03,	 4.8847615450483113e+02,	 3.1878651696366735e+00 
1.0785960000000001e+00,	 2.8564069999999997e-01,	 4.8090215345540963e-02,	 1.5506973478539892e+03,	 -1.3398994752051055e+02,	 5.9340918544361568e+02,	 8.2099577813060696e+03,	 4.8888433180507087e+02,	 3.1837292925474108e+00 