TITLE = "Final State"
VARIABLES = "X", "Y", "rho", "u", "v", "T", "p", "c", "M"
ZONE I=77, J=25, DATAPACKING=POINT, STRANDID=20000, SOLUTIONTIME=0.000483
-1.1957240000000000e-01,	 1.5710879999999999e-01,	 1.1536913374445916e-02,	 1.7359285388322669e+03,	 1.5679248588298205e+00,	 3.0009072046019907e+02,	 9.9602934862948416e+02,	 3.4766043534788264e+02,	 4.9931745761791850e+00 
-1.1456669999999999e-01,	 1.5710879999999999e-01,	 1.1541114486283694e-02,	 1.7359109940275684e+03,	 1.4152478191311333e+00,	 3.0013207550620166e+02,	 9.9652935922740676e+02,	 3.4768438980067839e+02,	 4.9927797216663672e+00 
-1.0956109999999999e-01,	 1.5710879999999999e-01,	 1.1546711404985543e-02,	 1.7358817035133152e+03,	 1.2051098414924408e+00,	 3.0018767259172898e+02,	 9.9719731958807643e+02,	 3.4771659119670250e+02,	 4.9922326566407582e+00 
-1.0455550000000000e-01,	 1.5710879999999999e-01,	 1.1551187855999069e-02,	 1.7358565628577499e+03,	 1.0278031180317158e+00,	 3.0023386587361483e+02,	 9.9773742449088252e+02,	 3.4774334371539413e+02,	 4.9917759707292895e+00 
-9.9549869999999999e-02,	 1.5710879999999999e-01,	 1.1554879352449532e-02,	 1.7358357441498788e+03,	 8.7410336385385778e-01,	 3.0027199779121088e+02,	 9.9818303915482591e+02,	 3.4776542600028557e+02,	 4.9913988983817905e+00 
-9.4544240000000002e-02,	 1.5710879999999999e-01,	 1.1557917353766892e-02,	 1.7358186681933294e+03,	 7.4089638445323769e-01,	 3.0030331873246428e+02,	 9.9854962720174012e+02,	 3.4778356298363991e+02,	 4.9910893183664271e+00 
-8.9538610000000005e-02,	 1.5710879999999999e-01,	 1.1560404574842521e-02,	 1.7358047466706107e+03,	 6.2572361457207881e-01,	 3.0032891102528629e+02,	 9.9884962757741187e+02,	 3.4779838198264076e+02,	 4.9908365000323611e+00 
-8.4532990000000002e-02,	 1.5710879999999999e-01,	 1.1562436148254722e-02,	 1.7357934214811462e+03,	 5.2661894502081608e-01,	 3.0034977776377468e+02,	 9.9909457279857554e+02,	 3.4781046422241326e+02,	 4.9906304723945967e+00 
-7.9527360000000005e-02,	 1.5710879999999999e-01,	 1.1564081913062066e-02,	 1.7357843024858325e+03,	 4.4145708648683790e-01,	 3.0036665415020252e+02,	 9.9929292734890328e+02,	 3.4782023566521138e+02,	 4.9904639829346937e+00 
-7.4521729999999994e-02,	 1.5710879999999999e-01,	 1.1565388948203945e-02,	 1.7357770826899650e+03,	 3.6796976779603019e-01,	 3.0038003588007598e+02,	 9.9945039769273694e+02,	 3.4782798350361946e+02,	 4.9903320147187369e+00 
-6.9516110000000006e-02,	 1.5710879999999999e-01,	 1.1566429127315453e-02,	 1.7357713776298738e+03,	 3.0514927813796211e-01,	 3.0039066990058996e+02,	 9.9957567284076731e+02,	 3.4783414033285982e+02,	 4.9902272467892539e+00 
-6.4510479999999995e-02,	 1.5710879999999999e-01,	 1.1567247036142562e-02,	 1.7357669236700558e+03,	 2.5153650279605300e-01,	 3.0039901889380667e+02,	 9.9967414082014420e+02,	 3.4783897411265178e+02,	 4.9901450702112999e+00 
-5.9504849999999998e-02,	 1.5710879999999999e-01,	 1.1567881496273904e-02,	 1.7357634972904982e+03,	 2.0588022259035305e-01,	 3.0040548445528509e+02,	 9.9975049006658151e+02,	 3.4784271740412265e+02,	 4.9900815013576887e+00 
-5.4499230000000003e-02,	 1.5710879999999999e-01,	 1.1482667645939420e-02,	 1.7356608733233293e+03,	 3.5268689240478013e-01,	 3.0048766172877674e+02,	 9.9265738170932138e+02,	 3.4789029112197017e+02,	 4.9891041901708508e+00 
-4.9493599999999999e-02,	 1.5710879999999999e-01,	 1.1477654067244740e-02,	 1.7356342152448947e+03,	 3.8069763486166242e-01,	 3.0061678452684544e+02,	 9.9265033559949472e+02,	 3.4796502920418504e+02,	 4.9879560051361818e+00 
-4.5213150000000001e-02,	 1.5762899999999999e-01,	 1.1577712218273802e-02,	 1.7357207322651693e+03,	 2.3005542894493286e-01,	 3.0057858394567813e+02,	 1.0011766723659459e+03,	 3.4794291984546942e+02,	 4.9885215318708616e+00 
-4.0932709999999997e-02,	 1.5814929999999999e-01,	 1.1572454879923044e-02,	 1.7356886284066329e+03,	 1.9864221676646993e-01,	 3.0053857474947131e+02,	 1.0005888433682563e+03,	 3.4791976220788797e+02,	 4.9887612843803044e+00 
-3.6652259999999999e-02,	 1.5866949999999999e-01,	 1.1573670442843600e-02,	 1.7357056770920424e+03,	 1.8062772662878446e-01,	 3.0049899823548890e+02,	 1.0005621678634973e+03,	 3.4789685349361775e+02,	 4.9891387894443122e+00 
-3.2371820000000003e-02,	 1.5918969999999999e-01,	 1.1575173200621727e-02,	 1.7357274749859807e+03,	 1.6688200323364577e-01,	 3.0046139402713140e+02,	 1.0005668578365739e+03,	 3.4787508504322693e+02,	 4.9895136433606844e+00 
-2.8091370000000001e-02,	 1.5970989999999999e-01,	 1.1576505167665044e-02,	 1.7357485783991924e+03,	 1.5522461592911183e-01,	 3.0042585552494677e+02,	 1.0005636336622342e+03,	 3.4785451114370244e+02,	 4.9898694130284076e+00 
-2.3810930000000001e-02,	 1.6023019999999999e-01,	 1.1577674080861872e-02,	 1.7357684861779007e+03,	 1.4505746545169240e-01,	 3.0039243653546271e+02,	 1.0005533508026493e+03,	 3.4783516315926613e+02,	 4.9902042003853619e+00 
-1.9530479999999999e-02,	 1.6075039999999999e-01,	 1.1578634431348139e-02,	 1.7357870238950773e+03,	 1.3591473360067574e-01,	 3.0036117851459028e+02,	 1.0005322216842671e+03,	 3.4781706529739148e+02,	 4.9905171493874345e+00 
-1.5250029999999999e-02,	 1.6127059999999999e-01,	 1.1579505139910375e-02,	 1.7358042925779223e+03,	 1.2756104310099120e-01,	 3.0033203820192415e+02,	 1.0005103847893758e+03,	 3.4780019270432570e+02,	 4.9908089002719125e+00 
-1.0969590000000000e-02,	 1.6179089999999999e-01,	 1.1580284277119744e-02,	 1.7358203825685923e+03,	 1.1988903713028477e-01,	 3.0030493539885015e+02,	 1.0004874100820107e+03,	 3.4778449911921359e+02,	 4.9910803704733677e+00 
-6.6891429999999998e-03,	 1.6231109999999999e-01,	 1.1580924907226044e-02,	 1.7358352243277320e+03,	 1.1268118768749164e-01,	 3.0027981219368917e+02,	 1.0004590534156138e+03,	 3.4776995116637858e+02,	 4.9913318334815324e+00 
-2.4086970000000000e-03,	 1.6283129999999998e-01,	 1.1581503113116759e-02,	 1.7358489958701352e+03,	 1.0588045666648893e-01,	 3.0025655885266644e+02,	 1.0004315254456812e+03,	 3.4775648544289652e+02,	 4.9915647062298474e+00 
1.8717490000000000e-03,	 1.6335149999999998e-01,	 1.1582024600514943e-02,	 1.7358616852199498e+03,	 9.9406947363616119e-02,	 3.0023506458358361e+02,	 1.0004049520262942e+03,	 3.4774403791255838e+02,	 4.9917798691426860e+00 
6.1521939999999997e-03,	 1.6387179999999998e-01,	 1.1582505862434509e-02,	 1.7358734581160270e+03,	 9.3293286421809590e-02,	 3.0021520012697636e+02,	 1.0003803287828289e+03,	 3.4773253382554537e+02,	 4.9919788681432138e+00 
1.0432640000000000e-02,	 1.6439199999999998e-01,	 1.1582879077879435e-02,	 1.7358842547176962e+03,	 8.7421932696967547e-02,	 3.0019688519841856e+02,	 1.0003515322091315e+03,	 3.4772192677825615e+02,	 4.9921621940914651e+00 
1.4713090000000000e-02,	 1.6491219999999998e-01,	 1.1583246075423772e-02,	 1.7358942201952841e+03,	 8.1778295286119851e-02,	 3.0017999299437366e+02,	 1.0003269358492020e+03,	 3.4771214341163892e+02,	 4.9923313148903787e+00 
1.8993530000000002e-02,	 1.6543249999999998e-01,	 1.1583589805607968e-02,	 1.7359034586145785e+03,	 7.6426711037010348e-02,	 3.0016440751427479e+02,	 1.0003046813576066e+03,	 3.4770311660911676e+02,	 4.9924874911273216e+00 
2.3273980000000000e-02,	 1.6595269999999998e-01,	 1.1583849788078407e-02,	 1.7359119002583764e+03,	 7.1257194917376795e-02,	 3.0015005420933971e+02,	 1.0002792984416637e+03,	 3.4769480325084140e+02,	 4.9926311394091529e+00 
2.7554420000000000e-02,	 1.6647289999999998e-01,	 1.1584094245097185e-02,	 1.7359197200037813e+03,	 6.6309508271869932e-02,	 3.0013683242793172e+02,	 1.0002563437933475e+03,	 3.4768714508911756e+02,	 4.9927635973579063e+00 
3.1834870000000001e-02,	 1.6699309999999998e-01,	 1.1584320822868598e-02,	 1.7359268865859008e+03,	 6.1557086820772919e-02,	 3.0012465286444422e+02,	 1.0002353169608876e+03,	 3.4768009043910200e+02,	 4.9928855157767069e+00 
3.6115309999999998e-02,	 1.6751339999999998e-01,	 1.1584541618541602e-02,	 1.7359335457429056e+03,	 5.7065335013686581e-02,	 3.0011341922791229e+02,	 1.0002169418939851e+03,	 3.4767358356224867e+02,	 4.9929981130420060e+00 
4.0395760000000003e-02,	 1.6803359999999998e-01,	 1.1584680865045816e-02,	 1.7359396114335809e+03,	 5.2704556912757432e-02,	 3.0010308235070693e+02,	 1.0001945134068544e+03,	 3.4766759600911519e+02,	 4.9931015491824686e+00 
4.4676210000000001e-02,	 1.6855379999999998e-01,	 1.1584841035264030e-02,	 1.7359452100185240e+03,	 4.8504936381018222e-02,	 3.0009356014752586e+02,	 1.0001766057471881e+03,	 3.4766208025812057e+02,	 4.9931968692338486e+00 
4.8956649999999997e-02,	 1.6907409999999998e-01,	 1.1584999662012100e-02,	 1.7359504207796990e+03,	 4.4542439094121089e-02,	 3.0008477409534203e+02,	 1.0001610174972229e+03,	 3.4765699084611174e+02,	 4.9932849534429762e+00 
5.3237100000000002e-02,	 1.6959429999999998e-01,	 1.1585092516906507e-02,	 1.7359551482307666e+03,	 4.0704492801479905e-02,	 3.0007669198952112e+02,	 1.0001420965900338e+03,	 3.4765230913655648e+02,	 4.9933657941737053e+00 
5.7517539999999999e-02,	 1.7011450000000000e-01,	 1.1585187774523333e-02,	 1.7359595479709242e+03,	 3.7027827889847972e-02,	 3.0006925146406314e+02,	 1.0001255210487276e+03,	 3.4764799901857566e+02,	 4.9934403571040473e+00 
6.1797989999999997e-02,	 1.7063470000000000e-01,	 1.1585280952251632e-02,	 1.7359635677009421e+03,	 3.3482726318032736e-02,	 3.0006239718641604e+02,	 1.0001107195208698e+03,	 3.4764402845260651e+02,	 4.9935089515294351e+00 
6.6078429999999994e-02,	 1.7115500000000000e-01,	 1.1585383886943721e-02,	 1.7359673343592781e+03,	 3.0154790112947263e-02,	 3.0005606639105690e+02,	 1.0000985046725078e+03,	 3.4764036109069895e+02,	 4.9935724642981532e+00 
7.0358879999999999e-02,	 1.7167520000000000e-01,	 1.1585413318468525e-02,	 1.7359707426575760e+03,	 2.6931201540698009e-02,	 3.0005025023645140e+02,	 1.0000816598060115e+03,	 3.4763699182056604e+02,	 4.9936306656413114e+00 
7.4639330000000004e-02,	 1.7219540000000000e-01,	 1.1585479171159953e-02,	 1.7359738909855421e+03,	 2.3833155484248279e-02,	 3.0004488925979086e+02,	 1.0000694758838836e+03,	 3.4763388620388582e+02,	 4.9936843329795622e+00 
7.8919770000000000e-02,	 1.7271570000000000e-01,	 1.1585550866671793e-02,	 1.7359768565018808e+03,	 2.0949521152524013e-02,	 3.0003993050132982e+02,	 1.0000591367355527e+03,	 3.4763101356772592e+02,	 4.9937341286440873e+00 
8.3200220000000005e-02,	 1.7323590000000000e-01,	 1.1585571002481691e-02,	 1.7359795081058023e+03,	 1.8169912228518804e-02,	 3.0003536943480708e+02,	 1.0000456723917883e+03,	 3.4762837129574331e+02,	 4.9937797128877452e+00 
8.7480660000000002e-02,	 1.7375610000000000e-01,	 1.1585583339855690e-02,	 1.7359820251713579e+03,	 1.5542228307569586e-02,	 3.0003116483963771e+02,	 1.0000327230117367e+03,	 3.4762593551343173e+02,	 4.9938219444902634e+00 
9.1761110000000007e-02,	 1.7427630000000000e-01,	 1.1585623467040848e-02,	 1.7359842819638989e+03,	 1.3024753658690717e-02,	 3.0002728424889938e+02,	 1.0000232522428389e+03,	 3.4762368741639079e+02,	 4.9938607317439860e+00 
9.6041550000000003e-02,	 1.7479660000000000e-01,	 1.1585654886528084e-02,	 1.7359864616630011e+03,	 1.0740945754062679e-02,	 3.0002367860953882e+02,	 1.0000139462265214e+03,	 3.4762159859067123e+02,	 4.9938970096630140e+00 
1.0032199999999999e-01,	 1.7531679999999999e-01,	 1.1585628265845206e-02,	 1.7359883778911715e+03,	 8.5453608358478945e-03,	 3.0002036623271744e+02,	 1.0000006079532700e+03,	 3.4761967964729109e+02,	 4.9939300895553655e+00 
1.0460240000000000e-01,	 1.7583699999999999e-01,	 1.1585658047982519e-02,	 1.7359901235556379e+03,	 6.4819802115618514e-03,	 3.0001730141483773e+02,	 9.9999296316672803e+02,	 3.4761790411161036e+02,	 4.9939606189281944e+00 
1.0888290000000000e-01,	 1.7635729999999999e-01,	 1.1585661853749776e-02,	 1.7359918331140643e+03,	 4.6691074854438713e-03,	 3.0001444388443144e+02,	 9.9998376716577070e+02,	 3.4761624865525607e+02,	 4.9939893196476861e+00 
1.1316329999999999e-01,	 1.7687749999999999e-01,	 1.1585631317673033e-02,	 1.7359933519003480e+03,	 2.9810309018946149e-03,	 3.0001178064206590e+02,	 9.9997225465066526e+02,	 3.4761470574891638e+02,	 4.9940158548897040e+00 
1.1744380000000000e-01,	 1.7739769999999999e-01,	 1.1585608447489557e-02,	 1.7359948235447364e+03,	 1.4625012182271685e-03,	 3.0000929510452642e+02,	 9.9996199613914587e+02,	 3.4761326578681206e+02,	 4.9940407757913983e+00 
1.2172420000000000e-01,	 1.7791789999999999e-01,	 1.1585604836654651e-02,	 1.7359961883180326e+03,	 1.1986521752951727e-04,	 3.0000696130667768e+02,	 9.9995390569837298e+02,	 3.4761191372758782e+02,	 4.9940641265778956e+00 
1.2600470000000000e-01,	 1.7843819999999999e-01,	 1.1585594718544642e-02,	 1.7359975610007800e+03,	 -9.4446970871561893e-04,	 3.0000474642709003e+02,	 9.9994564999009424e+02,	 3.4761063055744103e+02,	 4.9940865105797494e+00 
1.3028509999999999e-01,	 1.7895839999999999e-01,	 1.1585529422580954e-02,	 1.7359987907024765e+03,	 -1.8542279866824388e-03,	 3.0000267164905870e+02,	 9.9993309893258697e+02,	 3.4760942854954732e+02,	 4.9941073173624293e+00 
1.3456560000000001e-01,	 1.7947859999999999e-01,	 1.1585497434695904e-02,	 1.7359998850391098e+03,	 -2.5640015475369400e-03,	 3.0000069613111509e+02,	 9.9992375355428669e+02,	 3.4760828404341646e+02,	 4.9941269087366633e+00 
1.3884600000000000e-01,	 1.7999889999999999e-01,	 1.1585481566870854e-02,	 1.7360009630268953e+03,	 -2.9469703520499128e-03,	 2.9999878223335486e+02,	 9.9991600488119013e+02,	 3.4760717523302714e+02,	 4.9941459403581794e+00 
1.4312649999999999e-01,	 1.8051909999999999e-01,	 1.1585399357283333e-02,	 1.7360019135733878e+03,	 -3.1294174144812668e-03,	 2.9999695027117372e+02,	 9.9990280355349432e+02,	 3.4760611388843375e+02,	 4.9941639235188724e+00 
1.4740690000000001e-01,	 1.8103929999999999e-01,	 1.1585335737736692e-02,	 1.7360029094916583e+03,	 -3.0276173508680627e-03,	 2.9999516896204733e+02,	 9.9989137558400296e+02,	 3.4760508188650562e+02,	 4.9941816157368777e+00 
1.5168730000000000e-01,	 1.8155949999999998e-01,	 1.1585271121259965e-02,	 1.7360038606871028e+03,	 -2.6505486582582734e-03,	 2.9999341830935487e+02,	 9.9987996381663345e+02,	 3.4760406764240560e+02,	 4.9941989242629452e+00 
1.5596779999999999e-01,	 1.8207979999999999e-01,	 1.1585218029900694e-02,	 1.7360049542598915e+03,	 -1.8961417021508811e-03,	 2.9999166585401076e+02,	 9.9986954078865949e+02,	 3.4760305235097184e+02,	 4.9942166575341158e+00 
1.6024820000000001e-01,	 1.8259999999999998e-01,	 1.1585096182500143e-02,	 1.7360060734061476e+03,	 -8.6035702293754365e-04,	 2.9998993718275796e+02,	 9.9985326308675496e+02,	 3.4760205083603319e+02,	 4.9942342665442139e+00 
1.6452870000000000e-01,	 1.8312019999999998e-01,	 1.1585004875947654e-02,	 1.7360070933544139e+03,	 4.9155637267834411e-04,	 2.9998819747182722e+02,	 9.9983958452833110e+02,	 3.4760104292228482e+02,	 4.9942516822155012e+00 
1.6880909999999999e-01,	 1.8364049999999998e-01,	 1.1584926995677355e-02,	 1.7360082273447479e+03,	 2.2770149755752239e-03,	 2.9998640993889865e+02,	 9.9982690541864417e+02,	 3.4760000729948183e+02,	 4.9942698241963726e+00 
1.7308960000000001e-01,	 1.8416069999999998e-01,	 1.1584779051686596e-02,	 1.7360093029856953e+03,	 4.3684515585934924e-03,	 2.9998460453091002e+02,	 9.9980812006234032e+02,	 3.4759896131747490e+02,	 4.9942879472692976e+00 
1.7737000000000000e-01,	 1.8468089999999998e-01,	 1.1584643724931950e-02,	 1.7360104198954018e+03,	 6.8421570486043434e-03,	 2.9998275430399599e+02,	 9.9979027439237564e+02,	 3.4759788936588893e+02,	 4.9943065623207046e+00 
1.8165049999999999e-01,	 1.8520109999999998e-01,	 1.1584504853478231e-02,	 1.7360115285458928e+03,	 9.6713399505946492e-03,	 2.9998084612006926e+02,	 9.9977192979165341e+02,	 3.4759678383273626e+02,	 4.9943256362469732e+00 
1.8593090000000001e-01,	 1.8572139999999998e-01,	 1.1584381012508712e-02,	 1.7360128228172648e+03,	 1.2979076194273260e-02,	 2.9997885077158179e+02,	 9.9975459200606258e+02,	 3.4759562779581057e+02,	 4.9943459699831889e+00 
1.9021140000000000e-01,	 1.8624159999999998e-01,	 1.1584174121017162e-02,	 1.7360140998947868e+03,	 1.6615630916309122e-02,	 2.9997680988897582e+02,	 9.9972993523775926e+02,	 3.4759444537399077e+02,	 4.9943666335244661e+00 
1.9449179999999999e-01,	 1.8676179999999998e-01,	 1.1583981019406175e-02,	 1.7360153802747716e+03,	 2.0592939079923361e-02,	 2.9997469194966368e+02,	 9.9970621198781339e+02,	 3.4759321830373784e+02,	 4.9943879482709743e+00 
1.9877230000000001e-01,	 1.8728209999999998e-01,	 1.1583786905025095e-02,	 1.7360167807690045e+03,	 2.4958656024307552e-02,	 2.9997247945165179e+02,	 9.9968208644662104e+02,	 3.4759193644439580e+02,	 4.9944103960136879e+00 
2.0305270000000000e-01,	 1.8780229999999998e-01,	 1.1583538970779145e-02,	 1.7360181604296295e+03,	 2.9623331872081007e-02,	 2.9997020616691498e+02,	 9.9965311395428512e+02,	 3.4759061936200499e+02,	 4.9944332901411395e+00 
2.0733309999999999e-01,	 1.8832249999999998e-01,	 1.1583295559384497e-02,	 1.7360195818833818e+03,	 3.4576551628628965e-02,	 2.9996786567284050e+02,	 9.9962430813195203e+02,	 3.4758926333504780e+02,	 4.9944568643201537e+00 
2.1161360000000001e-01,	 1.8884270000000000e-01,	 1.1581639757862656e-02,	 1.7360141160806697e+03,	 1.4473585382986190e-01,	 2.9998413996692364e+02,	 9.9953563979919454e+02,	 3.4759869216695984e+02,	 4.9943056784584128e+00 
2.1589400000000000e-01,	 1.8936299999999998e-01,	 1.1576771330610230e-02,	 1.7359871598775810e+03,	 2.7044808744114029e-01,	 3.0001912599628969e+02,	 9.9923200076392425e+02,	 3.4761896114434296e+02,	 4.9939369683093604e+00 
-1.2117989999999999e-01,	 1.6314759999999998e-01,	 1.1565177717694154e-02,	 1.7359562858746665e+03,	 7.6435249137719841e-01,	 3.0007694315465841e+02,	 9.9842368583564053e+02,	 3.4765245462956545e+02,	 4.9933674594617301e+00 
-1.1619540000000000e-01,	 1.6314759999999998e-01,	 1.1567476311954511e-02,	 1.7359439161759169e+03,	 7.1014955715628680e-01,	 3.0010206402246985e+02,	 9.9870572326101581e+02,	 3.4766700614507965e+02,	 4.9931228179514635e+00 
-1.1121090000000000e-01,	 1.6314759999999998e-01,	 1.1570475110907148e-02,	 1.7359242386222984e+03,	 6.3306169328346706e-01,	 3.0013451130721597e+02,	 9.9907264062499621e+02,	 3.4768580065999697e+02,	 4.9927962279748446e+00 
-1.0622640000000000e-01,	 1.6314759999999998e-01,	 1.1572971369623989e-02,	 1.7359088205401072e+03,	 5.6070369434835976e-01,	 3.0016050311995014e+02,	 9.9937472329468051e+02,	 3.4770085522426257e+02,	 4.9925356380700983e+00 
-1.0124200000000000e-01,	 1.6314759999999998e-01,	 1.1574964259894214e-02,	 1.7358965883761214e+03,	 4.9550102740361079e-01,	 3.0018115382662086e+02,	 9.9961558544873151e+02,	 3.4771281573339252e+02,	 4.9923286705255512e+00 
-9.6257480000000006e-02,	 1.6314759999999998e-01,	 1.1576528211084857e-02,	 1.7358869847768274e+03,	 4.3700303856798667e-01,	 3.0019732995209455e+02,	 9.9980452294070074e+02,	 3.4772218436012241e+02,	 4.9921664991784747e+00 
-9.1273000000000007e-02,	 1.6314759999999998e-01,	 1.1577732945182356e-02,	 1.7358795716151176e+03,	 3.8460937058969535e-01,	 3.0020980011969863e+02,	 9.9995010566170902e+02,	 3.4772940645781631e+02,	 4.9920414609329287e+00 
-8.6288530000000002e-02,	 1.6314759999999998e-01,	 1.1578641666925290e-02,	 1.7358739556411269e+03,	 3.3782198550159559e-01,	 3.0021914291541219e+02,	 1.0000597122700377e+03,	 3.4773481723976136e+02,	 4.9919476062023573e+00 
-8.1304050000000003e-02,	 1.6314759999999998e-01,	 1.1579308074601901e-02,	 1.7358698324441800e+03,	 2.9615109365605619e-01,	 3.0022600433606033e+02,	 1.0001401280040824e+03,	 3.4773879090579658e+02,	 4.9918786833796700e+00 
-7.6319579999999998e-02,	 1.6314759999999998e-01,	 1.1579767771646224e-02,	 1.7358669667328040e+03,	 2.5881897242897772e-01,	 3.0023072841032433e+02,	 1.0001955713287238e+03,	 3.4774152674044592e+02,	 4.9918311520024430e+00 
-7.1335099999999999e-02,	 1.6314759999999998e-01,	 1.1580063788484364e-02,	 1.7358650934607308e+03,	 2.2552908085152812e-01,	 3.0023376212136407e+02,	 1.0002312464407659e+03,	 3.4774328363030406e+02,	 4.9918005316729701e+00 
-6.6350629999999994e-02,	 1.6314759999999998e-01,	 1.1580229638008034e-02,	 1.7358640143266828e+03,	 1.9590134271480886e-01,	 3.0023545291097548e+02,	 1.0002512046998918e+03,	 3.4774426280050045e+02,	 4.9917833622945711e+00 
-6.1366150000000001e-02,	 1.6314759999999998e-01,	 1.1580292592656239e-02,	 1.7358635643956418e+03,	 1.6955476251691720e-01,	 3.0023608301305961e+02,	 1.0002587416875991e+03,	 3.4774462770455767e+02,	 4.9917768223619090e+00 
-5.6381680000000003e-02,	 1.6314759999999998e-01,	 1.1552937010613310e-02,	 1.7358881138893612e+03,	 1.3372573382002267e-01,	 3.0025762741259359e+02,	 9.9796748458452839e+02,	 3.4775710424422357e+02,	 4.9916683163462290e+00 
-5.1397199999999997e-02,	 1.6314759999999998e-01,	 1.1541790740545937e-02,	 1.7358282629777009e+03,	 8.0331472566157525e-02,	 3.0030298825793392e+02,	 9.9715526642815553e+02,	 3.4778337162105066e+02,	 4.9911192037320600e+00 
-4.7107690000000001e-02,	 1.6364619999999999e-01,	 1.1575216876829941e-02,	 1.7357976553613528e+03,	 8.9206773188161517e-02,	 3.0029006819870864e+02,	 1.0000000987367999e+03,	 3.4777589012691669e+02,	 4.9911385663341070e+00 
-4.2818179999999997e-02,	 1.6414469999999998e-01,	 1.1579946714774967e-02,	 1.7358356035210586e+03,	 1.0069777853820594e-01,	 3.0027270380246512e+02,	 1.0003508673854761e+03,	 3.4776583483987446e+02,	 4.9913920015780269e+00 
-3.8528670000000001e-02,	 1.6464329999999999e-01,	 1.1581125436602693e-02,	 1.7358489414340663e+03,	 1.0335461985571233e-01,	 3.0025577841442265e+02,	 1.0003963007794426e+03,	 3.4775603349167494e+02,	 4.9915710364017398e+00 
-3.4239159999999998e-02,	 1.6514179999999998e-01,	 1.1581915546140409e-02,	 1.7358590836590902e+03,	 1.0431828040820644e-01,	 3.0023924099130636e+02,	 1.0004094483449403e+03,	 3.4774645654383471e+02,	 4.9917376701575025e+00 
-2.9949650000000001e-02,	 1.6564039999999999e-01,	 1.1582582945811441e-02,	 1.7358684783532460e+03,	 1.0460054877664979e-01,	 3.0022332068525827e+02,	 1.0004140460614203e+03,	 3.4773723672401837e+02,	 4.9918970365616770e+00 
-2.5660140000000001e-02,	 1.6613889999999998e-01,	 1.1583180719203973e-02,	 1.7358774593285182e+03,	 1.0439024667843641e-01,	 3.0020812000008095e+02,	 1.0004150222712271e+03,	 3.4772843342526608e+02,	 4.9920492418991245e+00 
-2.1370630000000002e-02,	 1.6663749999999999e-01,	 1.1583689921445369e-02,	 1.7358860006693380e+03,	 1.0369147772217696e-01,	 3.0019367918773128e+02,	 1.0004108762508196e+03,	 3.4772006999151904e+02,	 4.9921938754027968e+00 
-1.7081120000000002e-02,	 1.6713599999999998e-01,	 1.1584136929403596e-02,	 1.7358940117744569e+03,	 1.0256494678021350e-01,	 3.0018002827268970e+02,	 1.0004039874014070e+03,	 3.4771216384387759e+02,	 4.9923304252993752e+00 
-1.2791610000000000e-02,	 1.6763459999999999e-01,	 1.1584547076975066e-02,	 1.7359016327943186e+03,	 1.0110455549557282e-01,	 3.0016716009485742e+02,	 1.0003965206343485e+03,	 3.4770471086651236e+02,	 4.9924593526864216e+00 
-8.5020949999999994e-03,	 1.6813309999999998e-01,	 1.1584894435285055e-02,	 1.7359087672350217e+03,	 9.9294973399368769e-02,	 3.0015507252079169e+02,	 1.0003862304987326e+03,	 3.4769770985288159e+02,	 4.9925803963718565e+00 
-4.2125849999999996e-03,	 1.6863170000000000e-01,	 1.1585201533335724e-02,	 1.7359154451714844e+03,	 9.7200819154235035e-02,	 3.0014373719808390e+02,	 1.0003749687509957e+03,	 3.4769114440835335e+02,	 4.9926938773396872e+00 
7.6925709999999995e-05,	 1.6913019999999998e-01,	 1.1585468736720816e-02,	 1.7359216613848484e+03,	 9.4855772459468246e-02,	 3.0013312418033240e+02,	 1.0003626677388309e+03,	 3.4768499721210912e+02,	 4.9928000284620468e+00 
4.3664359999999996e-03,	 1.6962880000000000e-01,	 1.1585718189657855e-02,	 1.7359275242955978e+03,	 9.2374833730883357e-02,	 3.0012319001722790e+02,	 1.0003510951773288e+03,	 3.4767924311871803e+02,	 4.9928995219327659e+00 
8.6559470000000006e-03,	 1.7012729999999998e-01,	 1.1585920819924328e-02,	 1.7359330152803641e+03,	 8.9724630575003822e-02,	 3.0011391020108562e+02,	 1.0003376595568654e+03,	 3.4767386795195245e+02,	 4.9929925071016541e+00 
1.2945460000000001e-02,	 1.7062590000000000e-01,	 1.1586096835098399e-02,	 1.7359380742762414e+03,	 8.6922788775719503e-02,	 3.0010524488612305e+02,	 1.0003239732394774e+03,	 3.4766884864892330e+02,	 4.9930791418284830e+00 
1.7234969999999999e-02,	 1.7112439999999998e-01,	 1.1586266059307950e-02,	 1.7359428444047744e+03,	 8.4058865739017885e-02,	 3.0009714949895499e+02,	 1.0003115994771352e+03,	 3.4766415940579145e+02,	 4.9931602078480779e+00 
2.1524479999999999e-02,	 1.7162300000000000e-01,	 1.1586394094786696e-02,	 1.7359472926918622e+03,	 8.1092088028427212e-02,	 3.0008959711597299e+02,	 1.0002974789649866e+03,	 3.4765978464014410e+02,	 4.9932358336548859e+00 
2.5813989999999998e-02,	 1.7212149999999998e-01,	 1.1586501570219086e-02,	 1.7359514427411405e+03,	 7.8062925668149985e-02,	 3.0008255250326607e+02,	 1.0002832754954011e+03,	 3.4765570395401966e+02,	 4.9933063797104165e+00 
3.0103499999999998e-02,	 1.7262010000000000e-01,	 1.1586591127336543e-02,	 1.7359552532068617e+03,	 7.4988620742319267e-02,	 3.0007598464165375e+02,	 1.0002691139019821e+03,	 3.4765189938919696e+02,	 4.9933719846676583e+00 
3.4393010000000002e-02,	 1.7311859999999998e-01,	 1.1586680925356649e-02,	 1.7359588489921189e+03,	 7.1926828830398984e-02,	 3.0006985527752170e+02,	 1.0002564344594957e+03,	 3.4764834879522562e+02,	 4.9934333256526857e+00 
3.8682519999999998e-02,	 1.7361720000000000e-01,	 1.1586738727217652e-02,	 1.7359622161027041e+03,	 6.8809947185549128e-02,	 3.0006414118637019e+02,	 1.0002423768711374e+03,	 3.4764503872629365e+02,	 4.9934905552706486e+00 
4.2972030000000001e-02,	 1.7411579999999999e-01,	 1.1586782157246438e-02,	 1.7359652900311573e+03,	 6.5682320206815567e-02,	 3.0005881275817922e+02,	 1.0002283640314116e+03,	 3.4764195203649268e+02,	 4.9935437340183668e+00 
4.7261539999999998e-02,	 1.7461430000000000e-01,	 1.1586831698160615e-02,	 1.7359682194317388e+03,	 6.2603179847594601e-02,	 3.0005383690451401e+02,	 1.0002160538624503e+03,	 3.4763906956382556e+02,	 4.9935935645513814e+00 
5.1551050000000001e-02,	 1.7511289999999999e-01,	 1.1586853854624466e-02,	 1.7359709558833213e+03,	 5.9507414922407811e-02,	 3.0004919956994291e+02,	 1.0002025081092384e+03,	 3.4763638317107507e+02,	 4.9936400242921710e+00 
5.5840559999999997e-02,	 1.7561140000000000e-01,	 1.1586868285315698e-02,	 1.7359735163136750e+03,	 5.6423037980043382e-02,	 3.0004487524198890e+02,	 1.0001893387985261e+03,	 3.4763387808332919e+02,	 4.9936833740194135e+00 
6.0130070000000001e-02,	 1.7610999999999999e-01,	 1.1586871817503381e-02,	 1.7359758582241443e+03,	 5.3367110566261193e-02,	 3.0004084283097956e+02,	 1.0001762017918741e+03,	 3.4763154208711205e+02,	 4.9937236667938283e+00 
6.4419580000000004e-02,	 1.7660850000000000e-01,	 1.1586885104467688e-02,	 1.7359780956275251e+03,	 5.0396781206098598e-02,	 3.0003707327826885e+02,	 1.0001647830262900e+03,	 3.4762935835184902e+02,	 4.9937614722459767e+00 
6.8709090000000000e-02,	 1.7710709999999999e-01,	 1.1586871567866641e-02,	 1.7359801998865419e+03,	 4.7439284639363553e-02,	 3.0003355745595815e+02,	 1.0001518946877203e+03,	 3.4762732159248952e+02,	 4.9937967838148092e+00 
7.2998599999999997e-02,	 1.7760560000000000e-01,	 1.1586853282056053e-02,	 1.7359820915186738e+03,	 4.4532970572119815e-02,	 3.0003027510501704e+02,	 1.0001393747084047e+03,	 3.4762542007521159e+02,	 4.9938295413329659e+00 
7.7288109999999993e-02,	 1.7810419999999999e-01,	 1.1586845949607546e-02,	 1.7359839177797003e+03,	 4.1744661392312012e-02,	 3.0002719910884406e+02,	 1.0001284880870036e+03,	 3.4762363809303980e+02,	 4.9938603939729296e+00 
8.1577620000000003e-02,	 1.7860269999999998e-01,	 1.1586819758981331e-02,	 1.7359856189140351e+03,	 3.9007541267109168e-02,	 3.0002432339869461e+02,	 1.0001166413793990e+03,	 3.4762197213204922e+02,	 4.9938892202499936e+00 
8.5867139999999995e-02,	 1.7910129999999999e-01,	 1.1586781655760967e-02,	 1.7359872270078827e+03,	 3.6350787044798903e-02,	 3.0002162841763948e+02,	 1.0001043689388761e+03,	 3.4762041086407862e+02,	 4.9939162751500428e+00 
9.0156650000000005e-02,	 1.7959979999999998e-01,	 1.1586747513062965e-02,	 1.7359886667048463e+03,	 3.3783970041081766e-02,	 3.0001910097710208e+02,	 1.0000929968886543e+03,	 3.4761894665002671e+02,	 4.9939414515898823e+00 
9.4446160000000001e-02,	 1.8009839999999999e-01,	 1.1586714915603947e-02,	 1.7359900447183786e+03,	 3.1382121108334771e-02,	 3.0001671627957739e+02,	 1.0000822340846386e+03,	 3.4761756512517348e+02,	 4.9939652628799687e+00 
9.8735669999999998e-02,	 1.8059689999999998e-01,	 1.1586663213896566e-02,	 1.7359912591102427e+03,	 2.9047635487100529e-02,	 3.0001449169043087e+02,	 1.0000703561029469e+03,	 3.4761627635082522e+02,	 4.9939872711864828e+00 
1.0302520000000000e-01,	 1.8109549999999999e-01,	 1.1586617517952924e-02,	 1.7359923018992099e+03,	 2.6856777101427014e-02,	 3.0001245673888127e+02,	 1.0000596286910196e+03,	 3.4761509743530723e+02,	 4.9940072077278828e+00 
1.0731470000000000e-01,	 1.8159399999999998e-01,	 1.1586565827231577e-02,	 1.7359934874551268e+03,	 2.4867666545339895e-02,	 3.0001042376733380e+02,	 1.0000483905172800e+03,	 3.4761391966287835e+02,	 4.9940275387039543e+00 
1.1160420000000000e-01,	 1.8209259999999999e-01,	 1.1586504283155602e-02,	 1.7359947333656289e+03,	 2.2983349325412388e-02,	 3.0000841646480370e+02,	 1.0000363875207199e+03,	 3.4761275675750517e+02,	 4.9940478298637396e+00 
1.1589370000000000e-01,	 1.8259109999999998e-01,	 1.1586437766589356e-02,	 1.7359959307748932e+03,	 2.1263963469500928e-02,	 3.0000657143997626e+02,	 1.0000244963473224e+03,	 3.4761168786223851e+02,	 4.9940666310193595e+00 
1.2018320000000000e-01,	 1.8308969999999999e-01,	 1.1586370051019286e-02,	 1.7359970169376752e+03,	 1.9746130525279987e-02,	 3.0000480246614336e+02,	 1.0000127552617440e+03,	 3.4761066302321029e+02,	 4.9940844793189285e+00 