TITLE = "Final State"
VARIABLES = "X", "Y", "rho", "u", "v", "T", "p", "c", "M"
ZONE I=77, J=21, DATAPACKING=POINT, STRANDID=41000, SOLUTIONTIME=0.000989
-1.5815199999999999e-01,	 3.0203999999999998e-01,	 1.1590400399974395e-02,	 1.7359770469083983e+03,	 7.9302996868761397e-02,	 3.0004055719691166e+02,	 1.0004798358054016e+03,	 3.4763137661724772e+02,	 4.9937294660001914e+00 
-1.5365400000000001e-01,	 3.0203999999999998e-01,	 1.1591409279346213e-02,	 1.7359723607054591e+03,	 9.8029515862615602e-02,	 3.0005101484280254e+02,	 1.0006017958330416e+03,	 3.4763743475517833e+02,	 4.9936289648893748e+00 
-1.4915600000000001e-01,	 3.0203999999999998e-01,	 1.1592402549746115e-02,	 1.7359660623307720e+03,	 1.1317861875153720e-01,	 3.0006133561434109e+02,	 1.0007219579917701e+03,	 3.4764341349797962e+02,	 4.9935249701783180e+00 
-1.4465800000000001e-01,	 3.0203999999999998e-01,	 1.1592944424146951e-02,	 1.7359625006619642e+03,	 1.1882374243177349e-01,	 3.0006699486541783e+02,	 1.0007876104772156e+03,	 3.4764669181453070e+02,	 4.9934676371226416e+00 
-1.4016000000000001e-01,	 3.0203999999999998e-01,	 1.1593155098699676e-02,	 1.7359610047805138e+03,	 1.1818847322762746e-01,	 3.0006921667122776e+02,	 1.0008132077751521e+03,	 3.4764797886379489e+02,	 4.9934448475074458e+00 
-1.3566200000000000e-01,	 3.0203999999999998e-01,	 1.1593115738151034e-02,	 1.7359610478259333e+03,	 1.1348220585741126e-01,	 3.0006889622664710e+02,	 1.0008087410930254e+03,	 3.4764779323672229e+02,	 4.9934476366807203e+00 
-1.3116400000000000e-01,	 3.0203999999999998e-01,	 1.1592923460513098e-02,	 1.7359620401923521e+03,	 1.0889623172464884e-01,	 3.0006696863620311e+02,	 1.0007857132633887e+03,	 3.4764667662042393e+02,	 4.9934665289588311e+00 
-1.2666600000000000e-01,	 3.0203999999999998e-01,	 1.1592623258106213e-02,	 1.7359637623029203e+03,	 1.0075746328828285e-01,	 3.0006392121188662e+02,	 1.0007496340715667e+03,	 3.4764491129845175e+02,	 4.9934968377450115e+00 
-1.2216800000000000e-01,	 3.0203999999999998e-01,	 1.1592208370539484e-02,	 1.7359661469373473e+03,	 8.8926879857677499e-02,	 3.0005968631450480e+02,	 1.0006996949224936e+03,	 3.4764245807829570e+02,	 4.9935389331071462e+00 
-1.1767000000000000e-01,	 3.0203999999999998e-01,	 1.1591750303585184e-02,	 1.7359688195731112e+03,	 7.9294052327271977e-02,	 3.0005499519855152e+02,	 1.0006445079379712e+03,	 3.4763974055653313e+02,	 4.9935856545197543e+00 
-1.1317199999999999e-01,	 3.0203999999999998e-01,	 1.1591272882398120e-02,	 1.7359716210968927e+03,	 7.0104800990643423e-02,	 3.0005009949005904e+02,	 1.0005869692226189e+03,	 3.4763690449347848e+02,	 4.9936344504097416e+00 
-1.0867400000000001e-01,	 3.0203999999999998e-01,	 1.1590793600230529e-02,	 1.7359744408859431e+03,	 6.1404995816752690e-02,	 3.0004518077634253e+02,	 1.0005291944972586e+03,	 3.4763405508029524e+02,	 4.9936834915986150e+00 
-1.0417600000000000e-01,	 3.0203999999999998e-01,	 1.1590326208949012e-02,	 1.7359772011843147e+03,	 5.3315340983796942e-02,	 3.0004037447392534e+02,	 1.0004728223760575e+03,	 3.4763127076446978e+02,	 4.9937314275136080e+00 
-9.9678000000000003e-02,	 3.0203999999999998e-01,	 1.1589861523586261e-02,	 1.7359798497703600e+03,	 4.5860650041582879e-02,	 3.0003578028039868e+02,	 1.0004173923580129e+03,	 3.4762860930357425e+02,	 4.9937772781530327e+00 
-9.5180000000000001e-02,	 3.0203999999999998e-01,	 1.1589438165431811e-02,	 1.7359823414165146e+03,	 3.9004516405244494e-02,	 3.0003143797361452e+02,	 1.0003663706510408e+03,	 3.4762609374438193e+02,	 4.9938205822121260e+00 
-9.0681999999999999e-02,	 3.0203999999999998e-01,	 1.1589062805710811e-02,	 1.7359846633393643e+03,	 3.2861826958685836e-02,	 3.0002738183065946e+02,	 1.0003204471241293e+03,	 3.4762374394746359e+02,	 4.9938610174820441e+00 
-8.6183999999999997e-02,	 3.0203999999999998e-01,	 1.1588704617939632e-02,	 1.7359868007427954e+03,	 2.7452014233813625e-02,	 3.0002367356920820e+02,	 1.0002771665004983e+03,	 3.4762159567068869e+02,	 4.9938980275678801e+00 
-8.1685999999999995e-02,	 3.0203999999999998e-01,	 1.1588378238266346e-02,	 1.7359887369848466e+03,	 2.2698308897223199e-02,	 3.0002030693064910e+02,	 1.0002377710546625e+03,	 3.4761964529201168e+02,	 4.9939316164797072e+00 
-7.7188000000000007e-02,	 3.0203999999999998e-01,	 1.1588084558967451e-02,	 1.7359904823834486e+03,	 1.8534192563905864e-02,	 3.0001727246052002e+02,	 1.0002023060935916e+03,	 3.4761788733751195e+02,	 4.9939618924064932e+00 
-7.2690000000000005e-02,	 3.0203999999999998e-01,	 1.1587821654761825e-02,	 1.7359920436575821e+03,	 1.4897575057637523e-02,	 3.0001455609819357e+02,	 1.0001705583976848e+03,	 3.4761631366433181e+02,	 4.9939889915460869e+00 
-6.8192000000000003e-02,	 3.0203999999999998e-01,	 1.1587587606474423e-02,	 1.7359934315743967e+03,	 1.1729655979868803e-02,	 3.0001213895811293e+02,	 1.0001422992174190e+03,	 3.4761491333391490e+02,	 4.9940131019247973e+00 
-6.3694000000000001e-02,	 3.0203999999999998e-01,	 1.1587380924663802e-02,	 1.7359946614638570e+03,	 8.9790751917562407e-03,	 3.0000999908139619e+02,	 1.0001173266746831e+03,	 3.4761367362676765e+02,	 4.9940344502990222e+00 
-5.9195999999999999e-02,	 3.0203999999999998e-01,	 1.1587198741265198e-02,	 1.7359957444233328e+03,	 6.5973126390887751e-03,	 3.0000811342543540e+02,	 1.0000953163118119e+03,	 3.4761258119513582e+02,	 4.9940532602913761e+00 
-5.4697999999999997e-02,	 3.0203999999999998e-01,	 1.1587038809364889e-02,	 1.7359966931107424e+03,	 4.5377454229015577e-03,	 3.0000645957870950e+02,	 1.0000759994089402e+03,	 3.4761162305651249e+02,	 4.9940697547804538e+00 
-5.0200000000000002e-02,	 3.0203999999999998e-01,	 1.1586899576594799e-02,	 1.7359975231839785e+03,	 2.7621750254458299e-03,	 3.0000501481971480e+02,	 1.0000591661766719e+03,	 3.4761078604849536e+02,	 4.9940841678715513e+00 
-4.5702000000000000e-02,	 3.0203999999999998e-01,	 1.1586778334134948e-02,	 1.7359982447957279e+03,	 1.2341139243107673e-03,	 3.0000375764333694e+02,	 1.0000445110822076e+03,	 3.4761005771312568e+02,	 4.9940967077219742e+00 
-4.1203999999999998e-02,	 3.0203999999999998e-01,	 1.1586673086272422e-02,	 1.7359988691686222e+03,	 -8.3074009411569083e-05,	 3.0000266810526637e+02,	 1.0000317953562551e+03,	 3.4760942649647291e+02,	 4.9941075725868984e+00 
-3.6706000000000003e-02,	 3.0203999999999998e-01,	 1.1586582628181095e-02,	 1.7359994098687807e+03,	 -1.2145434483146716e-03,	 3.0000172707092383e+02,	 1.0000208511988807e+03,	 3.4760888131354716e+02,	 4.9941169607324110e+00 
-3.2208000000000001e-02,	 3.0203999999999998e-01,	 1.1586504674171454e-02,	 1.7359998744661189e+03,	 -2.1855016805611858e-03,	 3.0000091753283891e+02,	 1.0000114246204671e+03,	 3.4760841231155064e+02,	 4.9941250354769080e+00 
-2.7709999999999999e-02,	 3.0203999999999998e-01,	 1.1586437637201153e-02,	 1.7360002717806253e+03,	 -3.0207273413257150e-03,	 3.0000022377401774e+02,	 1.0000033262387120e+03,	 3.4760801038521032e+02,	 4.9941319529991910e+00 
-2.3212000000000000e-02,	 3.0203999999999998e-01,	 1.1586380709803112e-02,	 1.7360006129885828e+03,	 -3.7370648673121917e-03,	 2.9999963057185607e+02,	 9.9999643560767538e+02,	 3.4760766671559145e+02,	 4.9941378721458998e+00 
-1.8714000000000001e-02,	 3.0203999999999998e-01,	 1.1586332062310589e-02,	 1.7360009031998588e+03,	 -4.3505640263428831e-03,	 2.9999912531563450e+02,	 9.9999055276730951e+02,	 3.4760737399688065e+02,	 4.9941429125749464e+00 
-1.4215999999999999e-02,	 3.0203999999999998e-01,	 1.1586290541471062e-02,	 1.7360011486671929e+03,	 -4.8773036804211235e-03,	 2.9999869652791631e+02,	 9.9998553991805431e+02,	 3.4760712557977973e+02,	 4.9941471878015706e+00 
-9.7179999999999992e-03,	 3.0203999999999998e-01,	 1.1586255785191653e-02,	 1.7360013579861015e+03,	 -5.3282329006245025e-03,	 2.9999833359579850e+02,	 9.9998133042730274e+02,	 3.4760691531581875e+02,	 4.9941508108865786e+00 
-5.2199999999999998e-03,	 3.0203999999999998e-01,	 1.1586226297453574e-02,	 1.7360015342216338e+03,	 -5.7147549320099925e-03,	 2.9999802737058974e+02,	 9.9997776467821416e+02,	 3.4760673790478768e+02,	 4.9941538667945649e+00 
-7.2199999999999999e-04,	 3.0203999999999998e-01,	 1.1586201288046324e-02,	 1.7360016814864159e+03,	 -6.0471899689242487e-03,	 2.9999777012428666e+02,	 9.9997474870739632e+02,	 3.4760658886952871e+02,	 4.9941564316795573e+00 
3.7759999999999998e-03,	 3.0203999999999998e-01,	 1.1586180716395545e-02,	 1.7360018065003896e+03,	 -6.3315062222802192e-03,	 2.9999755457880849e+02,	 9.9997225475113942e+02,	 3.4760646399353072e+02,	 4.9941585854520945e+00 
8.2740000000000001e-03,	 3.0203999999999998e-01,	 1.1586160523345849e-02,	 1.7360019114614204e+03,	 -6.5802918586285661e-03,	 2.9999737553818539e+02,	 9.9996991515371064e+02,	 3.4760636026653987e+02,	 4.9941603776833912e+00 
1.2772000000000000e-02,	 3.0203999999999998e-01,	 1.1586138572259649e-02,	 1.7360019985871068e+03,	 -6.8191051303312369e-03,	 2.9999722875891814e+02,	 9.9996753136247116e+02,	 3.4760627523010749e+02,	 4.9941618500739251e+00 
1.7270000000000001e-02,	 3.0203999999999998e-01,	 1.1586118214576665e-02,	 1.7360020717588382e+03,	 -7.0537506750780040e-03,	 2.9999710838391513e+02,	 9.9996537310725171e+02,	 3.4760620549094551e+02,	 4.9941630625417250e+00 
2.1767999999999999e-02,	 3.0203999999999998e-01,	 1.1586100965730118e-02,	 1.7360021310055663e+03,	 -7.2778452015242138e-03,	 2.9999700976593306e+02,	 9.9996355568977265e+02,	 3.4760614835668594e+02,	 4.9941640538517564e+00 
2.6266000000000001e-02,	 3.0203999999999998e-01,	 1.1586086407999735e-02,	 1.7360021785485455e+03,	 -7.4889282453254481e-03,	 2.9999692987278490e+02,	 9.9996203295019131e+02,	 3.4760610207063894e+02,	 4.9941648556328175e+00 
3.0764000000000000e-02,	 3.0203999999999998e-01,	 1.1586074131662905e-02,	 1.7360022191263438e+03,	 -7.6842077149287986e-03,	 2.9999686536923218e+02,	 9.9996075840896390e+02,	 3.4760606470054029e+02,	 4.9941655092781589e+00 
3.5262000000000002e-02,	 3.0203999999999998e-01,	 1.1586063737573662e-02,	 1.7360022445382358e+03,	 -7.8604866289027856e-03,	 2.9999681290633879e+02,	 9.9995968645387620e+02,	 3.4760603430618818e+02,	 4.9941660190711108e+00 
3.9759999999999997e-02,	 3.0203999999999998e-01,	 1.1586054865182566e-02,	 1.7360022522379450e+03,	 -8.0092686356373274e-03,	 2.9999676916770670e+02,	 9.9995877491243493e+02,	 3.4760600896623066e+02,	 4.9941664052909704e+00 
4.4257999999999999e-02,	 3.0203999999999998e-01,	 1.1586047383697723e-02,	 1.7360022532093476e+03,	 -8.1329169281936960e-03,	 2.9999673361396742e+02,	 9.9995801069840968e+02,	 3.4760598836818588e+02,	 4.9941667040258713e+00 
4.8756000000000001e-02,	 3.0203999999999998e-01,	 1.1586041143733312e-02,	 1.7360022521267131e+03,	 -8.2368000853195508e-03,	 2.9999670571093327e+02,	 9.9995737913808136e+02,	 3.4760597220257318e+02,	 4.9941669331692884e+00 
5.3254000000000003e-02,	 3.0203999999999998e-01,	 1.1586035978932343e-02,	 1.7360022492155470e+03,	 -8.3263972245596531e-03,	 2.9999668447898523e+02,	 9.9995686260830212e+02,	 3.4760595990185135e+02,	 4.9941671015240523e+00 
5.7751999999999998e-02,	 3.0203999999999998e-01,	 1.1586031751700561e-02,	 1.7360022445906357e+03,	 -8.4042423513707963e-03,	 2.9999666925898828e+02,	 9.9995644703661981e+02,	 3.4760595108415100e+02,	 4.9941672149068435e+00 
6.2250000000000000e-02,	 3.0203999999999998e-01,	 1.1586028321983287e-02,	 1.7360022383762230e+03,	 -8.4722967873959894e-03,	 2.9999665930780805e+02,	 9.9995611785825815e+02,	 3.4760594531893787e+02,	 4.9941672798607275e+00 
6.6748000000000002e-02,	 3.0203999999999998e-01,	 1.1586025520147671e-02,	 1.7360022307223544e+03,	 -8.5321384050164838e-03,	 2.9999665368181968e+02,	 9.9995585728736933e+02,	 3.4760594205952322e+02,	 4.9941673046718300e+00 
7.1246000000000004e-02,	 3.0203999999999998e-01,	 1.1586023177116694e-02,	 1.7360022221842059e+03,	 -8.5847282946644766e-03,	 2.9999665119078827e+02,	 9.9995564676407992e+02,	 3.4760594061634492e+02,	 4.9941673008444631e+00 
7.5744000000000006e-02,	 3.0203999999999998e-01,	 1.1586021247404717e-02,	 1.7360022128805583e+03,	 -8.6291201396390387e-03,	 2.9999665129942412e+02,	 9.9995548057841177e+02,	 3.4760594067928304e+02,	 4.9941672731759175e+00 
8.0241999999999994e-02,	 3.0203999999999998e-01,	 1.1586020026612687e-02,	 1.7360022039073128e+03,	 -8.6650738944692614e-03,	 2.9999665344087339e+02,	 9.9995538235336107e+02,	 3.4760594191993107e+02,	 4.9941672295372213e+00 
8.4739999999999996e-02,	 3.0203999999999998e-01,	 1.1586020330826965e-02,	 1.7360021948556321e+03,	 -8.6902407284823666e-03,	 2.9999665672353564e+02,	 9.9995541955104409e+02,	 3.4760594382174042e+02,	 4.9941671761736082e+00 
8.9237999999999998e-02,	 3.0203999999999998e-01,	 1.1586021874352110e-02,	 1.7360021857654222e+03,	 -8.7018253768805891e-03,	 2.9999666084035010e+02,	 9.9995556649042828e+02,	 3.4760594620681564e+02,	 4.9941671157557224e+00 
9.3736000000000000e-02,	 3.0203999999999998e-01,	 1.1586023431101187e-02,	 1.7360021766205657e+03,	 -8.7021311886228206e-03,	 2.9999666620485669e+02,	 9.9995571872997073e+02,	 3.4760594931474083e+02,	 4.9941670447950486e+00 
9.8234000000000002e-02,	 3.0203999999999998e-01,	 1.1586024985591813e-02,	 1.7360021675413886e+03,	 -8.6939561092054425e-03,	 2.9999667263114316e+02,	 9.9995587431374702e+02,	 3.4760595303780792e+02,	 4.9941669651852578e+00 
1.0273200000000000e-01,	 3.0203999999999998e-01,	 1.1586026526305523e-02,	 1.7360021585280415e+03,	 -8.6786067008752521e-03,	 2.9999668001188684e+02,	 9.9995603188990310e+02,	 3.4760595731383933e+02,	 4.9941668778201302e+00 
1.0723000000000001e-01,	 3.0203999999999998e-01,	 1.1586028064875645e-02,	 1.7360021496100319e+03,	 -8.6580069105246169e-03,	 2.9999668822158492e+02,	 9.9995619204414982e+02,	 3.4760596207012520e+02,	 4.9941667838292290e+00 
1.1172799999999999e-01,	 3.0203999999999998e-01,	 1.1586029582461330e-02,	 1.7360021409999410e+03,	 -8.6338279255710089e-03,	 2.9999669700079488e+02,	 9.9995635228560934e+02,	 3.4760596715635756e+02,	 4.9941666859836591e+00 
1.1622600000000000e-01,	 3.0203999999999998e-01,	 1.1586031056224144e-02,	 1.7360021325488162e+03,	 -8.6060454362540048e-03,	 2.9999670662801651e+02,	 9.9995651157146597e+02,	 3.4760597273388504e+02,	 4.9941665815367635e+00 
1.2072400000000000e-01,	 3.0203999999999998e-01,	 1.1586032497942083e-02,	 1.7360021236867749e+03,	 -8.5753939619290336e-03,	 2.9999671730585845e+02,	 9.9995667159358561e+02,	 3.4760597892008894e+02,	 4.9941664671626498e+00 
1.2522200000000000e-01,	 3.0203999999999998e-01,	 1.1586033972742913e-02,	 1.7360021144106856e+03,	 -8.5426943316203163e-03,	 2.9999672893791137e+02,	 9.9995683765160254e+02,	 3.4760598565911454e+02,	 4.9941663436548049e+00 
1.2972000000000000e-01,	 3.0203999999999998e-01,	 1.1586035478409376e-02,	 1.7360021051706340e+03,	 -8.5089432052318347e-03,	 2.9999674117981692e+02,	 9.9995700840632912e+02,	 3.4760599275145790e+02,	 4.9941662151743964e+00 
1.3421800000000000e-01,	 3.0203999999999998e-01,	 1.1586037003962754e-02,	 1.7360020959506965e+03,	 -8.4737774826148630e-03,	 2.9999675407410189e+02,	 9.9995718305197670e+02,	 3.4760600022175680e+02,	 4.9941660813216329e+00 
1.3871600000000001e-01,	 3.0203999999999998e-01,	 1.1586038571180225e-02,	 1.7360020864330140e+03,	 -8.4336183261679524e-03,	 2.9999676766761672e+02,	 9.9995736362423440e+02,	 3.4760600809715413e+02,	 4.9941659407920698e+00 
1.4321400000000001e-01,	 3.0203999999999998e-01,	 1.1586040133364898e-02,	 1.7360020770312258e+03,	 -8.3959703343835790e-03,	 2.9999678165871103e+02,	 9.9995754508736104e+02,	 3.4760601620288878e+02,	 4.9941657972866285e+00 
1.4771200000000001e-01,	 3.0203999999999998e-01,	 1.1586041547743562e-02,	 1.7360020684974888e+03,	 -8.3660835311488296e-03,	 2.9999679494753178e+02,	 9.9995771145295350e+02,	 3.4760602390176138e+02,	 4.9941656621240478e+00 
1.5221000000000001e-01,	 3.0203999999999998e-01,	 1.1586042843090033e-02,	 1.7360020606639312e+03,	 -8.3362275756593412e-03,	 2.9999680771846556e+02,	 9.9995786581899688e+02,	 3.4760603130059621e+02,	 4.9941655332865009e+00 
1.5670799999999999e-01,	 3.0203999999999998e-01,	 1.1586044043932559e-02,	 1.7360020533374770e+03,	 -8.3073363846412566e-03,	 2.9999682010028960e+02,	 9.9995801073169514e+02,	 3.4760603847400029e+02,	 4.9941654091466559e+00 
1.6120599999999999e-01,	 3.0203999999999998e-01,	 1.1586045150674604e-02,	 1.7360020465931088e+03,	 -8.2813080319197076e-03,	 2.9999683196339174e+02,	 9.9995814579384205e+02,	 3.4760604534688298e+02,	 4.9941652909990975e+00 
1.6570399999999999e-01,	 3.0203999999999998e-01,	 1.1586046152393861e-02,	 1.7360020404747756e+03,	 -8.2588638608185414e-03,	 2.9999684312186923e+02,	 9.9995826944310659e+02,	 3.4760605181154159e+02,	 4.9941651805176663e+00 
1.7020199999999999e-01,	 3.0203999999999998e-01,	 1.1586047083734003e-02,	 1.7360020347123605e+03,	 -8.2386533313778647e-03,	 2.9999685388336661e+02,	 9.9995838569493276e+02,	 3.4760605804620980e+02,	 4.9941650743645285e+00 
1.7469999999999999e-01,	 3.0203999999999998e-01,	 1.1586047983587503e-02,	 1.7360020291161620e+03,	 -8.2197712760659382e-03,	 2.9999686443860679e+02,	 9.9995849854174071e+02,	 3.4760606416138296e+02,	 4.9941649704064099e+00 
1.7919800000000000e-01,	 3.0203999999999998e-01,	 1.1591098697679065e-02,	 1.7359751993626214e+03,	 1.9476749814888344e-01,	 3.0004935250422818e+02,	 1.0005694422116195e+03,	 3.4763647176573738e+02,	 4.9936509868228196e+00 
1.8369600000000000e-01,	 3.0203999999999998e-01,	 1.1596599368935636e-02,	 1.7359474364370490e+03,	 4.1090624261417807e-01,	 3.0010617246883504e+02,	 1.0012338388812042e+03,	 3.4766938594603789e+02,	 4.9930984873604203e+00 
-1.5815199999999999e-01,	 3.0687470000000000e-01,	 1.1588171746157089e-02,	 1.7359867070647965e+03,	 4.1408782084673329e-02,	 3.0001826613882713e+02,	 1.0002131442465250e+03,	 3.4761846300448099e+02,	 4.9939427628626394e+00 
-1.5365400000000001e-01,	 3.0685930000000000e-01,	 1.1588902175049914e-02,	 1.7359834780375895e+03,	 5.8498962264380339e-02,	 3.0002584087427499e+02,	 1.0003014445161004e+03,	 3.4762285123941780e+02,	 4.9938704341033482e+00 
-1.4915600000000001e-01,	 3.0684400000000001e-01,	 1.1589793259087338e-02,	 1.7359786474557523e+03,	 7.9324499594544851e-02,	 3.0003509760825534e+02,	 1.0004092236423244e+03,	 3.4762821382323762e+02,	 4.9937795041883657e+00 
-1.4465800000000001e-01,	 3.0682870000000001e-01,	 1.1590428481207369e-02,	 1.7359752096744428e+03,	 9.4085589109807952e-02,	 3.0004172289765563e+02,	 1.0004861467864475e+03,	 3.4763205191555494e+02,	 4.9937144824774133e+00 
-1.4016000000000001e-01,	 3.0681330000000001e-01,	 1.1590847998751212e-02,	 1.7359729398528063e+03,	 1.0374744395366395e-01,	 3.0004611526172221e+02,	 1.0005370063783791e+03,	 3.4763459642991495e+02,	 4.9936714031939911e+00 
-1.3566200000000000e-01,	 3.0679800000000002e-01,	 1.1591085131702768e-02,	 1.7359716640347574e+03,	 1.0922002618926981e-01,	 3.0004864335892779e+02,	 1.0005659063944139e+03,	 3.4763606095845881e+02,	 4.9936466967333155e+00 
-1.3116400000000000e-01,	 3.0678269999999996e-01,	 1.1591181574954271e-02,	 1.7359711456546622e+03,	 1.1011368936437993e-01,	 3.0004971248980394e+02,	 1.0005777968088297e+03,	 3.4763668030489413e+02,	 4.9936363091041498e+00 
-1.2666600000000000e-01,	 3.0676729999999997e-01,	 1.1591169032140152e-02,	 1.7359712696413308e+03,	 1.0954737075392676e-01,	 3.0004965256612297e+02,	 1.0005765142562086e+03,	 3.4763664559119553e+02,	 4.9936371643028989e+00 
-1.2216800000000000e-01,	 3.0675199999999997e-01,	 1.1591054840183688e-02,	 1.7359719765638906e+03,	 1.0815384231229688e-01,	 3.0004853328798254e+02,	 1.0005629245189268e+03,	 3.4763599719440890e+02,	 4.9936485114979616e+00 
-1.1767000000000000e-01,	 3.0673669999999997e-01,	 1.1590869058073543e-02,	 1.7359730790604774e+03,	 1.0401880233073413e-01,	 3.0004666752036871e+02,	 1.0005406658173235e+03,	 3.4763491635427590e+02,	 4.9936672080652675e+00 
-1.1317199999999999e-01,	 3.0672129999999997e-01,	 1.1590631662982336e-02,	 1.7359744790292423e+03,	 9.8655254310780038e-02,	 3.0004427427526571e+02,	 1.0005121931360328e+03,	 3.4763352994124375e+02,	 4.9936911497746976e+00 
-1.0867400000000001e-01,	 3.0670599999999998e-01,	 1.1590360691576157e-02,	 1.7359760773977621e+03,	 9.2503929921166711e-02,	 3.0004151878074913e+02,	 1.0004796145615561e+03,	 3.4763193366934837e+02,	 4.9937186769312865e+00 
-1.0417600000000000e-01,	 3.0669069999999998e-01,	 1.1590067781468762e-02,	 1.7359778001367904e+03,	 8.5864889534402938e-02,	 3.0003853597042462e+02,	 1.0004443847272906e+03,	 3.4763020570399510e+02,	 4.9937484538915120e+00 
-9.9678000000000003e-02,	 3.0667529999999998e-01,	 1.1589773611148518e-02,	 1.7359795535625831e+03,	 7.8972384334458162e-02,	 3.0003543633487459e+02,	 1.0004086570858177e+03,	 3.4762841005177444e+02,	 4.9937792918027633e+00 
-9.5180000000000001e-02,	 3.0665999999999999e-01,	 1.1589468582003753e-02,	 1.7359813618248502e+03,	 7.1993916676318007e-02,	 3.0003230423886981e+02,	 1.0003718844341469e+03,	 3.4762659558544152e+02,	 4.9938105581194598e+00 
-9.0681999999999999e-02,	 3.0664469999999999e-01,	 1.1589156230730207e-02,	 1.7359831867570206e+03,	 6.5084203569680449e-02,	 3.0002919662644751e+02,	 1.0003345619435453e+03,	 3.4762479529342494e+02,	 4.9938416691817027e+00 
-8.6183999999999997e-02,	 3.0662929999999999e-01,	 1.1588861836723908e-02,	 1.7359849237773674e+03,	 5.8404873428569593e-02,	 3.0002618214583754e+02,	 1.0002991005076799e+03,	 3.4762304894532127e+02,	 4.9938717528275935e+00 
-8.1685999999999995e-02,	 3.0661400000000000e-01,	 1.1588581549207957e-02,	 1.7359865830956953e+03,	 5.2047713587293480e-02,	 3.0002330146992847e+02,	 1.0002653032791706e+03,	 3.4762138010472364e+02,	 4.9939004998856911e+00 
-7.7188000000000007e-02,	 3.0659870000000000e-01,	 1.1588317641785324e-02,	 1.7359881460092170e+03,	 4.6035015233752821e-02,	 3.0002058866643011e+02,	 1.0002334800119604e+03,	 3.4761980850907901e+02,	 4.9939275729572135e+00 
-7.2690000000000005e-02,	 3.0658330000000000e-01,	 1.1588071499440694e-02,	 1.7359896068112844e+03,	 4.0414130377702306e-02,	 3.0001805563774019e+02,	 1.0002037898523033e+03,	 3.4761834105511093e+02,	 4.9939528564935154e+00 
-6.8192000000000003e-02,	 3.0656800000000001e-01,	 1.1587843942328719e-02,	 1.7359909612664314e+03,	 3.5206147246460234e-02,	 3.0001570986178695e+02,	 1.0001763284423222e+03,	 3.4761698207633617e+02,	 4.9939762759985165e+00 
-6.3694000000000001e-02,	 3.0655270000000001e-01,	 1.1587634496292076e-02,	 1.7359922054892252e+03,	 3.0416183979376704e-02,	 3.0001355354994666e+02,	 1.0001510621542161e+03,	 3.4761573285515118e+02,	 4.9939978018171560e+00 
-5.9195999999999999e-02,	 3.0653730000000001e-01,	 1.1587443391899032e-02,	 1.7359933424378601e+03,	 2.6039429549468224e-02,	 3.0001158424671848e+02,	 1.0001280026349560e+03,	 3.4761459197018092e+02,	 4.9940174628286869e+00 
-5.4697999999999997e-02,	 3.0652200000000002e-01,	 1.1587270473792800e-02,	 1.7359943763958631e+03,	 2.2064814093104873e-02,	 3.0000979686662686e+02,	 1.0001071194606992e+03,	 3.4761355647628784e+02,	 4.9940353136213380e+00 
-5.0200000000000002e-02,	 3.0650669999999997e-01,	 1.1587114059435610e-02,	 1.7359953078229939e+03,	 1.8472496470837985e-02,	 3.0000818422452704e+02,	 1.0000882434038158e+03,	 3.4761262221178248e+02,	 4.9940514152665694e+00 
-4.5702000000000000e-02,	 3.0649129999999997e-01,	 1.1586973933888021e-02,	 1.7359961444069229e+03,	 1.5239599866019969e-02,	 3.0000673715047463e+02,	 1.0000713252983546e+03,	 3.4761178386496579e+02,	 4.9940658661565500e+00 
-4.1203999999999998e-02,	 3.0647599999999997e-01,	 1.1586849108948281e-02,	 1.7359968926336333e+03,	 1.2343083014868930e-02,	 3.0000544509949680e+02,	 1.0000562446614043e+03,	 3.4761103532739440e+02,	 4.9940787726790088e+00 
-3.6706000000000003e-02,	 3.0646069999999997e-01,	 1.1586737684675512e-02,	 1.7359975562447016e+03,	 9.7582671635886801e-03,	 3.0000429646063287e+02,	 1.0000427987723924e+03,	 3.4761036987292783e+02,	 4.9940902422063465e+00 
-3.2208000000000001e-02,	 3.0644529999999998e-01,	 1.1586639425075275e-02,	 1.7359981453181770e+03,	 7.4618983231232328e-03,	 3.0000327941529594e+02,	 1.0000309278397266e+03,	 3.4760978065502400e+02,	 4.9941004020742978e+00 
-2.7709999999999999e-02,	 3.0642999999999998e-01,	 1.1586552959052190e-02,	 1.7359986656455631e+03,	 5.4300419649579469e-03,	 3.0000238263502064e+02,	 1.0000204757411846e+03,	 3.4760926111099042e+02,	 4.9941093632133029e+00 
-2.3212000000000000e-02,	 3.0641469999999998e-01,	 1.1586476612079290e-02,	 1.7359991214969150e+03,	 3.6370815094961323e-03,	 3.0000159474824397e+02,	 1.0000112600273341e+03,	 3.4760880465308219e+02,	 4.9941172325403933e+00 
-1.8714000000000001e-02,	 3.0639929999999999e-01,	 1.1586409955974881e-02,	 1.7359995211731405e+03,	 2.0605796394028084e-03,	 3.0000090506732289e+02,	 1.0000032081030047e+03,	 3.4760840508970892e+02,	 4.9941241228800139e+00 
-1.4215999999999999e-02,	 3.0638399999999999e-01,	 1.1586351975920738e-02,	 1.7359998703403862e+03,	 6.7810054826136497e-04,	 3.0000030373992274e+02,	 9.9999619952876981e+02,	 3.4760805671315455e+02,	 4.9941301325275731e+00 
-9.7179999999999992e-03,	 3.0636869999999999e-01,	 1.1586301399450515e-02,	 1.7360001733000729e+03,	 -5.3015734081439619e-04,	 2.9999978109242630e+02,	 9.9999009222662630e+02,	 3.4760775391919492e+02,	 4.9941353543675708e+00 
-5.2199999999999998e-03,	 3.0635330000000000e-01,	 1.1586257665427742e-02,	 1.7360004362046648e+03,	 -1.5834659285086476e-03,	 2.9999932821895493e+02,	 9.9998480807344754e+02,	 3.4760749154835412e+02,	 4.9941398802214820e+00 
-7.2199999999999999e-04,	 3.0633800000000000e-01,	 1.1586220144145055e-02,	 1.7360006642641467e+03,	 -2.4993728494994020e-03,	 2.9999893720720667e+02,	 9.9998026634140319e+02,	 3.4760726501675140e+02,	 4.9941437909310871e+00 
3.7759999999999998e-03,	 3.0632270000000000e-01,	 1.1586187459416626e-02,	 1.7360008593388256e+03,	 -3.2930776811277082e-03,	 2.9999860056895380e+02,	 9.9997632329077521e+02,	 3.4760706998616848e+02,	 4.9941471541733193e+00 
8.2740000000000001e-03,	 3.0630730000000000e-01,	 1.1586160943131201e-02,	 1.7360010262041478e+03,	 -3.9810818610329177e-03,	 2.9999831168181913e+02,	 9.9997307179655047e+02,	 3.4760690261999673e+02,	 4.9941500388054889e+00 
1.2772000000000000e-02,	 3.0629200000000001e-01,	 1.1586141277185161e-02,	 1.7360011696221268e+03,	 -4.5804204472768501e-03,	 2.9999806513536623e+02,	 9.9997055267447797e+02,	 3.4760675978374883e+02,	 4.9941525035593690e+00 
1.7270000000000001e-02,	 3.0627670000000001e-01,	 1.1586125337607656e-02,	 1.7360012901427817e+03,	 -5.1053071246471675e-03,	 2.9999785539954570e+02,	 9.9996847786749242e+02,	 3.4760663827362890e+02,	 4.9941545960458429e+00 
2.1767999999999999e-02,	 3.0626130000000001e-01,	 1.1586112025244510e-02,	 1.7360013933104271e+03,	 -5.5653861706491947e-03,	 2.9999767722899219e+02,	 9.9996673502521196e+02,	 3.4760653505076374e+02,	 4.9941563758743088e+00 
2.6266000000000001e-02,	 3.0624599999999996e-01,	 1.1586101008138044e-02,	 1.7360014816683633e+03,	 -5.9667949643074447e-03,	 2.9999752624177563e+02,	 9.9996528089044614e+02,	 3.4760644757650351e+02,	 4.9941578868342100e+00 
3.0764000000000000e-02,	 3.0623069999999997e-01,	 1.1586091533975641e-02,	 1.7360015544194166e+03,	 -6.3175226206416395e-03,	 2.9999739865243401e+02,	 9.9996403791471926e+02,	 3.4760637365775648e+02,	 4.9941591581405538e+00 
3.5262000000000002e-02,	 3.0621529999999997e-01,	 1.1586081689895000e-02,	 1.7360016139841655e+03,	 -6.6251990789254521e-03,	 2.9999729078100097e+02,	 9.9996282873757730e+02,	 3.4760631116254621e+02,	 4.9941602273873151e+00 
3.9759999999999997e-02,	 3.0619999999999997e-01,	 1.1586071321701037e-02,	 1.7360016608756036e+03,	 -6.8989956518007226e-03,	 2.9999719935826056e+02,	 9.9996162915366722e+02,	 3.4760625819686129e+02,	 4.9941611232619270e+00 
4.4257999999999999e-02,	 3.0618469999999998e-01,	 1.1586062408616255e-02,	 1.7360016979675938e+03,	 -7.1427766296120604e-03,	 2.9999712259738737e+02,	 9.9996060402812952e+02,	 3.4760621372551009e+02,	 4.9941618689047234e+00 
4.8756000000000001e-02,	 3.0616929999999998e-01,	 1.1586054899621450e-02,	 1.7360017285273734e+03,	 -7.3587568483471982e-03,	 2.9999705878689781e+02,	 9.9995974325265968e+02,	 3.4760617675694908e+02,	 4.9941624879606374e+00 
5.3254000000000003e-02,	 3.0615399999999998e-01,	 1.1586048621686187e-02,	 1.7360017534271278e+03,	 -7.5503398960876196e-03,	 2.9999700623711965e+02,	 9.9995902626126326e+02,	 3.4760614631227014e+02,	 4.9941629970029897e+00 
5.7751999999999998e-02,	 3.0613869999999999e-01,	 1.1586043414886046e-02,	 1.7360017734991229e+03,	 -7.7196095321623824e-03,	 2.9999696334995974e+02,	 9.9995843392439281e+02,	 3.4760612146562067e+02,	 4.9941634117280138e+00 
6.2250000000000000e-02,	 3.0612329999999999e-01,	 1.1586039136276274e-02,	 1.7360017895285885e+03,	 -7.8685459821574537e-03,	 2.9999692874285546e+02,	 9.9995794929641568e+02,	 3.4760610141601501e+02,	 4.9941637459026467e+00 
6.6748000000000002e-02,	 3.0610799999999999e-01,	 1.1586035620870369e-02,	 1.7360018027714300e+03,	 -7.9971569038869515e-03,	 2.9999690062668350e+02,	 9.9995755217420833e+02,	 3.4760608512692630e+02,	 4.9941640180319604e+00 
7.1246000000000004e-02,	 3.0609270000000000e-01,	 1.1586032681825453e-02,	 1.7360018140404900e+03,	 -8.1052228783503981e-03,	 2.9999687713045074e+02,	 9.9995722019541847e+02,	 3.4760607151439626e+02,	 4.9941642460278883e+00 
7.5744000000000006e-02,	 3.0607730000000000e-01,	 1.1586030256909408e-02,	 1.7360018231436084e+03,	 -8.1955425710621230e-03,	 2.9999685788028233e+02,	 9.9995694674273852e+02,	 3.4760606036182094e+02,	 4.9941644324496544e+00 
8.0241999999999994e-02,	 3.0606200000000000e-01,	 1.1586028282211969e-02,	 1.7360018304232417e+03,	 -8.2707797991127766e-03,	 2.9999684266789950e+02,	 9.9995672560600019e+02,	 3.4760605154853442e+02,	 4.9941645800161067e+00 
8.4739999999999996e-02,	 3.0604670000000000e-01,	 1.1586026047063474e-02,	 1.7360018358550888e+03,	 -8.3326795494593486e-03,	 2.9999683115867197e+02,	 9.9995649433394442e+02,	 3.4760604488066895e+02,	 4.9941646914427098e+00 