TITLE = "Final State"
VARIABLES = "X", "Y", "rho", "u", "v", "T", "p", "c", "M"
ZONE I=77, J=27, DATAPACKING=POINT, STRANDID=5000, SOLUTIONTIME=0.000121
-7.7777780000000005e-02,	 1.0000000000000000e-04,	 1.1521929919264443e-02,	 1.7360198623857780e+03,	 1.0601667374006747e+00,	 2.9993687348776621e+02,	 9.9422579569762104e+02,	 3.4757130669655936e+02,	 4.9947166312464715e+00 
-7.2222220000000004e-02,	 1.0000000000000000e-04,	 1.1523328618070414e-02,	 1.7360136561632719e+03,	 8.1201784668658494e-01,	 2.9995460806662800e+02,	 9.9440528265651108e+02,	 3.4758158209145080e+02,	 4.9945507343268423e+00 
-6.6666669999999997e-02,	 1.0000000000000000e-04,	 1.1526935711717118e-02,	 1.7359959234549706e+03,	 5.0857316402263775e-01,	 2.9999148638814245e+02,	 9.9483885345085901e+02,	 3.4760294837659512e+02,	 4.9941923854724104e+00 
-6.1111110000000003e-02,	 1.0000000000000000e-04,	 1.1531393479246808e-02,	 1.7359709171966210e+03,	 2.8597731469099413e-01,	 3.0003233683121664e+02,	 9.9535910524951623e+02,	 3.4762661446668545e+02,	 4.9937803048114997e+00 
-5.5555559999999997e-02,	 1.0000000000000000e-04,	 1.1536384805226453e-02,	 1.7359423588390227e+03,	 1.2398402216768308e-01,	 3.0008227162728161e+02,	 9.9595567388021254e+02,	 3.4765554125185628e+02,	 4.9932825952255149e+00 
-5.0000000000000003e-02,	 1.0000000000000000e-04,	 1.1541538106984363e-02,	 1.7359128220611879e+03,	 9.9376471978140611e-03,	 3.0013559410866435e+02,	 9.9657762044528727e+02,	 3.4768642783603769e+02,	 4.9927540539726118e+00 
-4.4444440000000002e-02,	 1.0000000000000000e-04,	 1.1546583598815812e-02,	 1.7358837652915377e+03,	 -6.6923160568116549e-02,	 3.0018784798131861e+02,	 9.9718686461161053e+02,	 3.4771669277625909e+02,	 4.9922359283985891e+00 
-3.8888890000000002e-02,	 1.0000000000000000e-04,	 1.1551393824391808e-02,	 1.7358560458595089e+03,	 -1.1608188081622919e-01,	 3.0023762627488139e+02,	 9.9776771186586120e+02,	 3.4774552143510573e+02,	 4.9917423596922310e+00 
-3.3333330000000001e-02,	 1.0000000000000000e-04,	 1.1555809971991234e-02,	 1.7358306285728790e+03,	 -1.4384791578267103e-01,	 3.0028329546372356e+02,	 9.9830099137229627e+02,	 3.4777196824026697e+02,	 4.9912896755783374e+00 
-2.7777779999999998e-02,	 1.0000000000000000e-04,	 1.1559750840893064e-02,	 1.7358079614390986e+03,	 -1.5574399071564035e-01,	 3.0032402999414444e+02,	 9.9877691055857167e+02,	 3.4779555571189428e+02,	 4.9908859958636285e+00 
-2.2222220000000001e-02,	 1.0000000000000000e-04,	 1.1563182172513321e-02,	 1.7357882392320867e+03,	 -1.5626295161174478e-01,	 3.0035948725470689e+02,	 9.9919133584491431e+02,	 3.4781608605986105e+02,	 4.9905346987518913e+00 
-1.6666670000000001e-02,	 1.0000000000000000e-04,	 1.1566100291777352e-02,	 1.7357714824662801e+03,	 -1.4895447858712052e-01,	 3.0038963761067401e+02,	 9.9954381979975722e+02,	 3.4783354266785233e+02,	 4.9902360639066012e+00 
-1.1111110000000000e-02,	 1.0000000000000000e-04,	 1.1568523056711457e-02,	 1.7357575881977186e+03,	 -1.3657829734716795e-01,	 3.0041466799369095e+02,	 9.9983650126652560e+02,	 3.4784803422206767e+02,	 4.9899882213016724e+00 
-5.5555559999999997e-03,	 1.0000000000000000e-04,	 1.1545841453648826e-02,	 1.7358397655770805e+03,	 3.3584694005980409e+00,	 3.0028054546537186e+02,	 9.9743068119176291e+02,	 3.4777037578650163e+02,	 4.9913481290617279e+00 
0.0000000000000000e+00,	 1.0000000000000000e-04,	 1.1620076981155827e-02,	 1.7326144014614072e+03,	 3.1223991863056728e+01,	 3.0484329150358928e+02,	 1.0190971449162846e+03,	 3.5040259006997729e+02,	 4.9454421184213357e+00 
4.0447620000000004e-03,	 1.1838100000000000e-03,	 1.2051066246626828e-02,	 1.7196011929039355e+03,	 8.6032799956250159e+01,	 3.2439130436568377e+02,	 1.1246687170831292e+03,	 3.6146278345834781e+02,	 4.7632897934647662e+00 
8.0895240000000007e-03,	 2.2676189999999998e-03,	 1.2731896823448708e-02,	 1.7018552896406154e+03,	 1.4015597505113513e+02,	 3.4919874263980279e+02,	 1.2790741420853906e+03,	 3.7502940615646031e+02,	 4.5532877385704920e+00 
1.2134290000000001e-02,	 3.3514290000000000e-03,	 1.3515656797140084e-02,	 1.6867662323224340e+03,	 1.8237250297491411e+02,	 3.6787622947370744e+02,	 1.4304372769491617e+03,	 3.8492830724512186e+02,	 4.4075651924681720e+00 
1.6179050000000000e-02,	 4.4352380000000002e-03,	 1.4339261645359647e-02,	 1.6745276536404476e+03,	 2.1497812220022089e+02,	 3.8176328223185430e+02,	 1.5748923834170528e+03,	 3.9212638397584709e+02,	 4.3054252834790949e+00 
2.0223809999999998e-02,	 5.5190480000000004e-03,	 1.5164448828483137e-02,	 1.6646961583535449e+03,	 2.4044256790535846e+02,	 3.9221164643815894e+02,	 1.7111065470117605e+03,	 3.9745615730122228e+02,	 4.2318399538918738e+00 
2.4268570000000000e-02,	 6.6028570000000002e-03,	 1.5967788345917472e-02,	 1.6567242464904555e+03,	 2.6076511012506160e+02,	 4.0025154449121487e+02,	 1.8386866434911781e+03,	 4.0150919430819772e+02,	 4.1770417037868999e+00 
2.8313330000000001e-02,	 7.6866670000000003e-03,	 1.6734473749187920e-02,	 1.6501593344818791e+03,	 2.7737584838029881e+02,	 4.0658357873197775e+02,	 1.9574552002415282e+03,	 4.0467269686069176e+02,	 4.1349689935937111e+00 
3.2358100000000001e-02,	 8.7704759999999993e-03,	 1.7454917807944392e-02,	 1.6446697086754298e+03,	 2.9124753529331167e+02,	 4.1166961548541360e+02,	 2.0672669399204456e+03,	 4.0719589714951405e+02,	 4.1018550231042825e+00 
3.6402860000000002e-02,	 9.8542859999999986e-03,	 1.8123300391661996e-02,	 1.6400171063348430e+03,	 3.0303128776354168e+02,	 4.1581915632583747e+02,	 2.1680621084837248e+03,	 4.0924297492088715e+02,	 4.0752762686885129e+00 
4.0447619999999997e-02,	 1.0938099999999999e-02,	 1.8737858748952285e-02,	 1.6360193593653798e+03,	 3.1317511887588080e+02,	 4.1925962933586629e+02,	 2.2601275245872666e+03,	 4.1093251827330471e+02,	 4.0535231278379369e+00 
4.4492379999999998e-02,	 1.2021899999999999e-02,	 1.9300269889675047e-02,	 1.6325360866638116e+03,	 3.2199927596667567e+02,	 4.2216506816819793e+02,	 2.3440971916149915e+03,	 4.1235392623961405e+02,	 4.0353404151417811e+00 
4.8537139999999999e-02,	 1.3105710000000000e-02,	 1.9814074927546044e-02,	 1.6294659152651609e+03,	 3.2973386753675345e+02,	 4.2466129380000780e+02,	 2.4207303599814936e+03,	 4.1357123602780291e+02,	 4.0198472254535433e+00 
5.2581900000000001e-02,	 1.4189519999999999e-02,	 2.0283503081797605e-02,	 1.6267332930887655e+03,	 3.3655924960988835e+02,	 4.2683795304670616e+02,	 2.4907832033137252e+03,	 4.1462978914526479e+02,	 4.0064278075946183e+00 
5.6626669999999997e-02,	 1.5273330000000000e-02,	 2.0712819788632254e-02,	 1.6242723848197356e+03,	 3.4264646694655693e+02,	 4.2876342496941027e+02,	 2.5549764149614043e+03,	 4.1556393720501876e+02,	 3.9946206753235485e+00 
6.0671429999999998e-02,	 1.6357139999999999e-02,	 2.1107013244209868e-02,	 1.6220408229952945e+03,	 3.4810070137028742e+02,	 4.3048619828324945e+02,	 2.6140624117792308e+03,	 4.1639796911610534e+02,	 3.9841038053064550e+00 
6.4716190000000007e-02,	 1.7440950000000000e-02,	 2.1470881551600762e-02,	 1.6200073778515177e+03,	 3.5300220932405978e+02,	 4.3204267099541602e+02,	 2.6687411726808177e+03,	 4.1715005745775909e+02,	 3.9746398686630524e+00 
6.8760950000000001e-02,	 1.8524759999999998e-02,	 2.1808584360290591e-02,	 1.6181469115726172e+03,	 3.5742058910502931e+02,	 4.3346050567519461e+02,	 2.7196119845987878e+03,	 4.1783397760278740e+02,	 3.9660509397426615e+00 
7.2805709999999996e-02,	 1.9608569999999999e-02,	 2.2123484047471831e-02,	 1.6164387217802559e+03,	 3.6141784561628629e+02,	 4.3476043178855434e+02,	 2.7671548975174555e+03,	 4.1846004004514913e+02,	 3.9582047220724665e+00 
7.6850479999999999e-02,	 2.0692380000000000e-02,	 2.2418157661695658e-02,	 1.6148656285957882e+03,	 3.6504932697366701e+02,	 4.3595771173775154e+02,	 2.8117339254880212e+03,	 4.1903583917438198e+02,	 3.9510039990728640e+00 
8.0895239999999993e-02,	 2.1776190000000001e-02,	 2.2694490100409328e-02,	 1.6134134834364777e+03,	 3.6836392690652281e+02,	 4.3706323933715805e+02,	 2.8536101900676827e+03,	 4.1956681082233274e+02,	 3.9443790235835547e+00 
8.4940000000000002e-02,	 2.2859999999999998e-02,	 2.2953792586940087e-02,	 1.6120705523773727e+03,	 3.7140383149104787e+02,	 4.3808469887082219e+02,	 2.8929603084898135e+03,	 4.2005680903054446e+02,	 3.9382795552476901e+00 
8.8984759999999996e-02,	 2.3943809999999999e-02,	 2.3196993077143374e-02,	 1.6108266608985052e+03,	 3.7420472560769508e+02,	 4.3902814430671208e+02,	 2.9299080590026210e+03,	 4.2050887634148177e+02,	 3.9326650597664545e+00 
9.3029520000000004e-02,	 2.5027620000000000e-02,	 2.3424791481293901e-02,	 1.6096729493206090e+03,	 3.7679589742671408e+02,	 4.3989888398016149e+02,	 2.9645483054683627e+03,	 4.2092567466623728e+02,	 3.9274996882998519e+00 
9.7074289999999994e-02,	 2.6111429999999998e-02,	 2.3637847459656643e-02,	 1.6086015702069456e+03,	 3.7920090615239360e+02,	 4.4070216702810279e+02,	 2.9969745103184478e+03,	 4.2130981776566443e+02,	 3.9227484898406804e+00 
1.0111900000000000e-01,	 2.7195239999999999e-02,	 2.3836837516849244e-02,	 1.6076062782932149e+03,	 3.8143689029187362e+02,	 4.4144296258382656e+02,	 3.0272840405531310e+03,	 4.2166376813911427e+02,	 3.9183790990066418e+00 
1.0516380000000000e-01,	 2.8279050000000000e-02,	 2.4022448665530875e-02,	 1.6066819535443497e+03,	 3.8351720057562346e+02,	 4.4212607639977830e+02,	 3.0555777689003176e+03,	 4.2198989520672433e+02,	 3.9143613060616276e+00 
1.0920860000000000e-01,	 2.9362860000000001e-02,	 2.4195446086596142e-02,	 1.6058232433715220e+03,	 3.8545726112554127e+02,	 4.4275654543814210e+02,	 3.0819710947940171e+03,	 4.2229066550531445e+02,	 3.9106652504505837e+00 
1.1325330000000000e-01,	 3.0446669999999999e-02,	 2.4356418684658925e-02,	 1.6050266847646712e+03,	 3.8726832305214134e+02,	 4.4333807729739419e+02,	 3.1065503853973478e+03,	 4.2256790013284626e+02,	 3.9072696634195778e+00 
1.1729810000000000e-01,	 3.1530480000000000e-02,	 2.4505995321870769e-02,	 1.6042898881544672e+03,	 3.8895809092119748e+02,	 4.4387446612086080e+02,	 3.1294098607780820e+03,	 4.2282345249051008e+02,	 3.9041539069418953e+00 
1.2134290000000000e-01,	 3.2614290000000004e-02,	 2.4645123708928657e-02,	 1.6036102212277322e+03,	 3.9053547351028874e+02,	 4.4437096682325898e+02,	 3.1506968323792889e+03,	 4.2305986332792020e+02,	 3.9012914759587107e+00 
1.2538759999999999e-01,	 3.3698100000000002e-02,	 2.4774565222177011e-02,	 1.6029871868666273e+03,	 3.9200623773383995e+02,	 4.4483158406107032e+02,	 3.1705280126535031e+03,	 4.2327907003594328e+02,	 3.8986649186837288e+00 
1.2943240000000000e-01,	 3.4781900000000004e-02,	 2.4895033512940715e-02,	 1.6024208062268606e+03,	 3.9337704754936686e+02,	 4.4525995366483897e+02,	 3.1890129988805334e+03,	 4.2348282833748982e+02,	 3.8962604051045138e+00 
1.3347709999999999e-01,	 3.5865710000000002e-02,	 2.5007296929489664e-02,	 1.6019115651211930e+03,	 3.9465693632597595e+02,	 4.4565966695177099e+02,	 3.2062694698095488e+03,	 4.2367286759410069e+02,	 3.8940669762028670e+00 
1.3752190000000000e-01,	 3.6949520000000000e-02,	 2.5111734457085783e-02,	 1.6014614892327438e+03,	 3.9585272271125211e+02,	 4.4603268962909567e+02,	 3.2223546509509133e+03,	 4.2385014023357797e+02,	 3.8920832933783283e+00 
1.4156669999999999e-01,	 3.8033330000000004e-02,	 2.5208912436568642e-02,	 1.6010716783544037e+03,	 3.9697508347668810e+02,	 4.4638209723571373e+02,	 3.2373586517563767e+03,	 4.2401612299040767e+02,	 3.8903034218790138e+00 
1.4561140000000000e-01,	 3.9117140000000002e-02,	 2.5299114275681583e-02,	 1.6007444223615780e+03,	 3.9803225531136798e+02,	 4.4671009093017949e+02,	 3.2513297453467576e+03,	 4.2417187417032915e+02,	 3.8887267680194295e+00 
1.4965619999999999e-01,	 4.0200950000000006e-02,	 2.5382502380196612e-02,	 1.6004821342155215e+03,	 3.9903094911022924e+02,	 4.4701907808695427e+02,	 3.2643027553318343e+03,	 4.2431854760334295e+02,	 3.8873513962450894e+00 
1.5370100000000000e-01,	 4.1284760000000004e-02,	 2.5459464891363789e-02,	 1.6002856088368999e+03,	 3.9998019408184189e+02,	 4.4731370323457662e+02,	 3.2763584647255966e+03,	 4.2445835631472147e+02,	 3.8861634026299043e+00 
1.5774569999999999e-01,	 4.2368570000000001e-02,	 2.5530188346034183e-02,	 1.6001564766003512e+03,	 4.0088617426712136e+02,	 4.4759877591620705e+02,	 3.2875536313783273e+03,	 4.2459358826559054e+02,	 3.8851486078706454e+00 
1.6179050000000000e-01,	 4.3452380000000006e-02,	 2.5594963327342908e-02,	 1.6001015961609478e+03,	 4.0175415122949039e+02,	 4.4788105139050333e+02,	 3.2979733212907681e+03,	 4.2472745085958405e+02,	 3.8842959321472623e+00 
1.6583519999999999e-01,	 4.4536190000000003e-02,	 2.5654423459370808e-02,	 1.6000978945579961e+03,	 4.0258866288122181e+02,	 4.4817023560871803e+02,	 3.3077692596589172e+03,	 4.2486454602778679e+02,	 3.8835128880363596e+00 
1.6988000000000000e-01,	 4.5620000000000001e-02,	 2.5708032066776416e-02,	 1.6001233884015978e+03,	 4.0339123110424907e+02,	 4.4846981000386847e+02,	 3.3168969810024873e+03,	 4.2500652028992181e+02,	 3.8827349472955426e+00 
1.7392479999999999e-01,	 4.6703810000000005e-02,	 2.5755659665761925e-02,	 1.6002345628993205e+03,	 4.0416772797384039e+02,	 4.4878620353881524e+02,	 3.3253863722315177e+03,	 4.2515641399938835e+02,	 3.8820664395725668e+00 
1.7796950000000000e-01,	 4.7787620000000003e-02,	 2.5797929607129774e-02,	 1.6004025678912922e+03,	 4.0492033947794920e+02,	 4.4913147226298577e+02,	 3.3334065125477377e+03,	 4.2531992725903967e+02,	 3.8813906241190193e+00 
1.8201429999999999e-01,	 4.8871430000000000e-02,	 2.5834983094218777e-02,	 1.6006214611683649e+03,	 4.0565012556981685e+02,	 4.4951380602920761e+02,	 3.3410359907516695e+03,	 4.2550092056179557e+02,	 3.8806593305470507e+00 
1.8605900000000000e-01,	 4.9955240000000005e-02,	 2.5867112267532057e-02,	 1.6008866485706430e+03,	 4.0635949238794876e+02,	 4.4994098695167099e+02,	 3.3483699992529623e+03,	 4.2570305307696231e+02,	 3.8798302032660335e+00 
1.9010379999999999e-01,	 5.1039050000000002e-02,	 2.5894485206969936e-02,	 1.6011934990682480e+03,	 4.0704868637116226e+02,	 4.5041911871634352e+02,	 3.3554752165175473e+03,	 4.2592918062798213e+02,	 3.8788670190241130e+00 
1.9414860000000000e-01,	 5.2122860000000000e-02,	 2.5917634184676179e-02,	 1.6015355476760449e+03,	 4.0772061365809549e+02,	 4.5095406359637059e+02,	 3.3624636488229235e+03,	 4.2618203515104602e+02,	 3.8777322024033456e+00 
1.9819329999999999e-01,	 5.3206670000000005e-02,	 2.5936831411201202e-02,	 1.6019068754591785e+03,	 4.0837654750935917e+02,	 4.5154801540999620e+02,	 3.3693862130051675e+03,	 4.2646260507828424e+02,	 3.8764045142887817e+00 
2.0223810000000000e-01,	 5.4290480000000002e-02,	 2.5952271306218709e-02,	 1.6023025476046091e+03,	 4.0901721903735449e+02,	 4.5220026052112740e+02,	 3.3762618258125035e+03,	 4.2677049899525008e+02,	 3.8748773144757944e+00 
2.0628289999999999e-01,	 5.5374290000000000e-02,	 2.5964540650224618e-02,	 1.6027174269042775e+03,	 4.0964581721583806e+02,	 4.5290969793320937e+02,	 3.3831573818287884e+03,	 4.2710513867632545e+02,	 3.8731467201037897e+00 
2.1032760000000000e-01,	 5.6458100000000004e-02,	 2.5974101315252022e-02,	 1.6031480747570138e+03,	 4.1026214589131246e+02,	 4.5367272469446004e+02,	 3.3901049054137211e+03,	 4.2746476390412022e+02,	 3.8712215320843368e+00 
2.1437239999999999e-01,	 5.7541900000000000e-02,	 2.5981453602649564e-02,	 1.6035906426184767e+03,	 4.1086629253497665e+02,	 4.5448451909121138e+02,	 3.3971324303255287e+03,	 4.2784704212469381e+02,	 3.8691149760144059e+00 
2.1841710000000000e-01,	 5.8625710000000004e-02,	 2.5987303277055021e-02,	 1.6040411832856646e+03,	 4.1145997267016651e+02,	 4.5533988375956278e+02,	 3.4042923163072410e+03,	 4.2824946860803163e+02,	 3.8668425253310241e+00 
2.2246189999999999e-01,	 5.9709520000000002e-02,	 2.5992047684738697e-02,	 1.6044970966000674e+03,	 4.1204162129672198e+02,	 4.5623184124078369e+02,	 3.4115836528443938e+03,	 4.2866870866396948e+02,	 3.8644282224067235e+00 
2.2650670000000001e-01,	 6.0793330000000000e-02,	 2.5996425115506407e-02,	 1.6049547915956864e+03,	 4.1261300681162453e+02,	 4.5715457749435291e+02,	 3.4190593570771080e+03,	 4.2910198438464812e+02,	 3.8618906638356214e+00 
2.3055139999999999e-01,	 6.1877140000000004e-02,	 2.6000893276027483e-02,	 1.6054121489665745e+03,	 4.1317333813648310e+02,	 4.5810133379068515e+02,	 3.4267290191074121e+03,	 4.2954608459371434e+02,	 3.8592540652913390e+00 
2.3459620000000000e-01,	 6.2960950000000002e-02,	 2.6005768968718722e-02,	 1.6058675221529477e+03,	 4.1372082928251928e+02,	 4.5906531029007806e+02,	 3.4345837721568291e+03,	 4.2999779112412824e+02,	 3.8565430316941236e+00 
2.3864099999999999e-01,	 6.4044760000000006e-02,	 2.6011596792468041e-02,	 1.6063180632806802e+03,	 4.1425697444012775e+02,	 4.6004153024755294e+02,	 3.4426588638967901e+03,	 4.3045475169966937e+02,	 3.8537734397569214e+00 
2.4268570000000000e-01,	 6.5128569999999997e-02,	 2.6018612649157755e-02,	 1.6067622753339751e+03,	 4.1478070465765154e+02,	 4.6102444772675028e+02,	 3.4509449335886425e+03,	 4.3091435775125086e+02,	 3.8509648882806342e+00 
2.4673049999999999e-01,	 6.6212380000000001e-02,	 2.6026225140418795e-02,	 1.6071925575610042e+03,	 4.1532104601509320e+02,	 4.6200592113954701e+02,	 3.4593034611670728e+03,	 4.3137279995816675e+02,	 3.8481512923616696e+00 
2.5077519999999998e-01,	 6.7296190000000006e-02,	 2.6031766399202013e-02,	 1.6074615723684919e+03,	 4.1581791596908050e+02,	 4.6266616380289321e+02,	 3.4649846517453411e+03,	 4.3168092268099730e+02,	 3.8462960380294064e+00 
-7.9385259999999999e-02,	 6.1388000000000007e-03,	 1.1557363065988677e-02,	 1.7360104967303323e+03,	 5.0866289312887814e-01,	 2.9999590338962560e+02,	 9.9747959028956166e+02,	 3.4760550737769455e+02,	 4.9941975440708273e+00 
-7.3850860000000004e-02,	 6.1388000000000007e-03,	 1.1557567130286448e-02,	 1.7360069342701531e+03,	 3.7488999669283496e-01,	 2.9999676754019669e+02,	 9.9750007576794565e+02,	 3.4760600802333340e+02,	 4.9941800045996132e+00 
-6.8316450000000001e-02,	 6.1388000000000007e-03,	 1.1558478843889376e-02,	 1.7359984310332227e+03,	 1.9934549787161787e-01,	 3.0000687786645256e+02,	 9.9761238297442321e+02,	 3.4761186538734557e+02,	 4.9940713057773749e+00 
-6.2782050000000006e-02,	 6.1388000000000007e-03,	 1.1560009322551209e-02,	 1.7359877169991983e+03,	 6.0273690715932041e-02,	 3.0002564529674333e+02,	 9.9780689416639950e+02,	 3.4762273793712677e+02,	 4.9938842560970063e+00 
-5.7247640000000002e-02,	 6.1388000000000007e-03,	 1.1561903068904061e-02,	 1.7359753239236252e+03,	 -4.4636917122429273e-02,	 3.0004628134168661e+02,	 9.9803899498688088e+02,	 3.4763469264034808e+02,	 4.9936768718692948e+00 
-5.1713240000000001e-02,	 6.1388000000000007e-03,	 1.1564002675850263e-02,	 1.7359619541580953e+03,	 -1.1712385996082943e-01,	 3.0006811294038056e+02,	 9.9829286715099033e+02,	 3.4764733949439318e+02,	 4.9934567617688206e+00 
-4.6178839999999999e-02,	 6.1388000000000007e-03,	 1.1566193789613089e-02,	 1.7359482654245744e+03,	 -1.6779440334434456e-01,	 3.0009080980482440e+02,	 9.9855754501756928e+02,	 3.4766048710154735e+02,	 4.9932285604458553e+00 
-4.0644430000000002e-02,	 6.1388000000000007e-03,	 1.1568375657411560e-02,	 1.7359348103504983e+03,	 -2.0181247762452942e-01,	 3.0011340046722546e+02,	 9.9882109974020966e+02,	 3.4767357269536484e+02,	 4.9930019374882919e+00 
-3.5110030000000000e-02,	 6.1388000000000007e-03,	 1.1570468212265629e-02,	 1.7359219977045236e+03,	 -2.1706324980153846e-01,	 3.0013503783006774e+02,	 9.9907379761158722e+02,	 3.4768610563065528e+02,	 4.9927851103707876e+00 
-2.9575620000000000e-02,	 6.1388000000000007e-03,	 1.1572418972758465e-02,	 1.7359101172342766e+03,	 -2.1973464901080347e-01,	 3.0015521272752619e+02,	 9.9930940815305883e+02,	 3.4769779106016290e+02,	 4.9925831448296822e+00 
-2.4041219999999999e-02,	 6.1388000000000007e-03,	 1.1574193304276623e-02,	 1.7358993599383211e+03,	 -2.1312998721552245e-01,	 3.0017356113988029e+02,	 9.9952372333523249e+02,	 3.4770841823683691e+02,	 4.9923996140920499e+00 
-1.8506809999999999e-02,	 6.1388000000000007e-03,	 1.1575769840066938e-02,	 1.7358898352736046e+03,	 -1.9992228257435748e-01,	 3.0018986440644539e+02,	 9.9971416407656397e+02,	 3.4771786061750180e+02,	 4.9922366475607713e+00 
-1.2972410000000000e-02,	 6.1388000000000007e-03,	 1.1577139189270082e-02,	 1.7358815856524200e+03,	 -1.8232089373177915e-01,	 3.0020402489814558e+02,	 9.9987958858313402e+02,	 3.4772606175684342e+02,	 4.9920951753134002e+00 
-7.4380039999999998e-03,	 6.1388000000000007e-03,	 1.1573476604619258e-02,	 1.7359173640890385e+03,	 6.1990773427951196e-01,	 3.0017275953039325e+02,	 9.9945916156535850e+02,	 3.4770795396118280e+02,	 4.9924583403963005e+00 
-1.9036000000000001e-03,	 6.1388000000000007e-03,	 1.1608773735450878e-02,	 1.7350037904588444e+03,	 7.5005590195104475e+00,	 3.0124652919622201e+02,	 1.0060934830842357e+03,	 3.4832930440997217e+02,	 4.9809762807003279e+00 
2.1502270000000002e-03,	 7.2009330000000005e-03,	 1.1806185420726388e-02,	 1.7303923513452517e+03,	 2.5008022010808816e+01,	 3.0792467246618355e+02,	 1.0458852188896403e+03,	 3.5216908636386978e+02,	 4.9140402145346638e+00 
6.2040530000000002e-03,	 8.2630669999999989e-03,	 1.2145173890972832e-02,	 1.7230163493291798e+03,	 4.7926291616747065e+01,	 3.1856186303592727e+02,	 1.1130827627940394e+03,	 3.5820024441884823e+02,	 4.8120647331847355e+00 
1.0257880000000000e-02,	 9.3251999999999988e-03,	 1.2554233875903568e-02,	 1.7156736934640949e+03,	 6.9623392298927115e+01,	 3.2865870900419191e+02,	 1.1870398460547640e+03,	 3.6383255735009851e+02,	 4.7194396536274015e+00 
1.4311710000000000e-02,	 1.0387330000000000e-02,	 1.2995579686018284e-02,	 1.7089945486919153e+03,	 8.8854491525900542e+01,	 3.3738817580674703e+02,	 1.2614076257885131e+03,	 3.6863274960223538e+02,	 4.6422974209861145e+00 
1.8365530000000001e-02,	 1.1449470000000000e-02,	 1.3453330453942600e-02,	 1.7028693889916144e+03,	 1.0613881193306486e+02,	 3.4517548950738376e+02,	 1.3359792004969138e+03,	 3.7286271818998739e+02,	 4.5758770804622815e+00 
2.2419359999999999e-02,	 1.2511599999999999e-02,	 1.3920432100721792e-02,	 1.6970917292612512e+03,	 1.2219340652267266e+02,	 3.5247326486339455e+02,	 1.4115908516063416e+03,	 3.7678367454559981e+02,	 4.5158143014191658e+00 
2.6473190000000001e-02,	 1.3573729999999999e-02,	 1.4393559551159629e-02,	 1.6915023964650393e+03,	 1.3756297514674722e+02,	 3.5955820265035300e+02,	 1.4889062304317301e+03,	 3.8055163044594826e+02,	 4.4595444068113652e+00 
3.0527010000000000e-02,	 1.4635869999999999e-02,	 1.4871050615597762e-02,	 1.6860083242296430e+03,	 1.5258025678415680e+02,	 3.6654963141382825e+02,	 1.5682105687855669e+03,	 3.8423363564665618e+02,	 4.4059087681128855e+00 
3.4580840000000002e-02,	 1.5698000000000000e-02,	 1.5352193841061883e-02,	 1.6805725931339221e+03,	 1.6739697991847058e+02,	 3.7345724756196881e+02,	 1.6494580501337157e+03,	 3.8783717307092246e+02,	 4.3546341045385990e+00 
3.8634670000000003e-02,	 1.6760129999999998e-02,	 1.5837049069952872e-02,	 1.6752018702597247e+03,	 1.8201754274049654e+02,	 3.8021961012599303e+02,	 1.7323622523266245e+03,	 3.9133279311523046e+02,	 4.3059548329787987e+00 
4.2688490000000003e-02,	 1.7822269999999998e-02,	 1.6325698246596736e-02,	 1.6699371799060177e+03,	 1.9635221280199113e+02,	 3.8673779177260343e+02,	 1.8164285343169772e+03,	 3.9467288756215981e+02,	 4.2603411927030299e+00 
4.6742319999999997e-02,	 1.8884399999999999e-02,	 1.6817039559388777e-02,	 1.6648464385156788e+03,	 2.1024925701547085e+02,	 3.9289246097015990e+02,	 1.9008733355759382e+03,	 3.9780096680065105e+02,	 4.2183654334525826e+00 
5.0796149999999998e-02,	 1.9946530000000001e-02,	 1.7309025224798106e-02,	 1.6599979717776378e+03,	 2.2354741708685700e+02,	 3.9858053467516413e+02,	 1.9848086031236096e+03,	 4.0067018751154660e+02,	 4.1804522854674078e+00 
5.4849969999999998e-02,	 2.1008670000000000e-02,	 1.7799134402999735e-02,	 1.6554415392298101e+03,	 2.3611866649513300e+02,	 4.0374145520103309e+02,	 2.0674364266941179e+03,	 4.0325583347057625e+02,	 4.1467367302986524e+00 
5.8903799999999999e-02,	 2.2070799999999998e-02,	 1.8284577655149258e-02,	 1.6512034534266659e+03,	 2.4788188737491643e+02,	 4.0836681920962980e+02,	 2.1481535332446492e+03,	 4.0555915569849634e+02,	 4.1170468498522839e+00 
6.2957630000000001e-02,	 2.3132929999999999e-02,	 1.8762346603149762e-02,	 1.6472893492904341e+03,	 2.5880560419686458e+02,	 4.1248004290785815e+02,	 2.2264863292795185e+03,	 4.0759651023200928e+02,	 4.0910455499629013e+00 
6.7011450000000000e-02,	 2.4195069999999999e-02,	 1.9229402090700655e-02,	 1.6436896147310099e+03,	 2.6889889424885303e+02,	 4.1612372236765032e+02,	 2.3020682383724434e+03,	 4.0939282215147227e+02,	 4.0683165693250203e+00 
7.1065279999999995e-02,	 2.5257200000000000e-02,	 1.9682779898940267e-02,	 1.6403855643950433e+03,	 2.7819796867309577e+02,	 4.1934854427890099e+02,	 2.3746057399986425e+03,	 4.1097609044421154e+02,	 4.0484315128652302e+00 
7.5119110000000003e-02,	 2.6319329999999998e-02,	 2.0119650346006879e-02,	 1.6373547106868982e+03,	 2.8675315877315694e+02,	 4.2220523943400417e+02,	 2.4438468424673351e+03,	 4.1237354461449638e+02,	 4.0309930536140550e+00 
7.9172930000000002e-02,	 2.7381469999999998e-02,	 2.0537432806352091e-02,	 1.6345737652359389e+03,	 2.9462043993941268e+02,	 4.2474041262104436e+02,	 2.5095721008329861e+03,	 4.1360976054740308e+02,	 4.0156527729113112e+00 
8.3226759999999997e-02,	 2.8443599999999999e-02,	 2.0934117905858328e-02,	 1.6320179854953626e+03,	 3.0185805119125263e+02,	 4.2699711820337194e+02,	 2.5716362995088366e+03,	 4.1470708834485606e+02,	 4.0020995834250401e+00 
8.7280590000000005e-02,	 2.9505730000000001e-02,	 2.1308665976862984e-02,	 1.6296614642567788e+03,	 3.0852653279395241e+02,	 4.2901653000998647e+02,	 2.6300271091396380e+03,	 4.1568657570814423e+02,	 3.9900480005960963e+00 
9.1334410000000005e-02,	 3.0567870000000000e-02,	 2.1660764351951602e-02,	 1.6274818857919104e+03,	 3.1468061876095055e+02,	 4.3083328442607404e+02,	 2.6848063287963000e+03,	 4.1656579893936356e+02,	 3.9792637010472234e+00 
9.5388239999999999e-02,	 3.1630000000000005e-02,	 2.1990729676899058e-02,	 1.6254616504757155e+03,	 3.2036648027322747e+02,	 4.3247482143951640e+02,	 2.7360901679876379e+03,	 4.1735863237185828e+02,	 3.9695639960852005e+00 
9.9442069999999994e-02,	 3.2692130000000000e-02,	 2.2299393876596511e-02,	 1.6235874770582554e+03,	 3.2562184195432468e+02,	 4.3396258022738544e+02,	 2.7840387693676530e+03,	 4.1807589479223441e+02,	 3.9608082181541073e+00 
1.0349590000000000e-01,	 3.3754270000000003e-02,	 2.2587782374279580e-02,	 1.6218472983070192e+03,	 3.3048368627878818e+02,	 4.3531463393514150e+02,	 2.8288296757924481e+03,	 4.1872666687736677e+02,	 3.9528797483603442e+00 
1.0754970000000000e-01,	 3.4816400000000004e-02,	 2.2856955581142081e-02,	 1.6202259648854083e+03,	 3.3499931302979542e+02,	 4.3654956452512101e+02,	 2.8706608147464503e+03,	 4.1932018259412706e+02,	 3.9456624768452859e+00 
1.1160349999999999e-01,	 3.5878530000000006e-02,	 2.3108287946189444e-02,	 1.6187145128917673e+03,	 3.3919919792754996e+02,	 4.3768092175293191e+02,	 2.9097476384757147e+03,	 4.1986318388470971e+02,	 3.9390737678676202e+00 
1.1565739999999999e-01,	 3.6940670000000002e-02,	 2.3343154802566803e-02,	 1.6173079541166851e+03,	 3.4310377522944179e+02,	 4.3871889461492930e+02,	 2.9462922708391070e+03,	 4.2036074785533981e+02,	 3.9330534966505017e+00 
1.1971120000000000e-01,	 3.8002800000000003e-02,	 2.3562872348305619e-02,	 1.6160021998958764e+03,	 3.4673282269223648e+02,	 4.3967254928520180e+02,	 2.9804889734801154e+03,	 4.2081737438942582e+02,	 3.9275505786355893e+00 
1.2376500000000000e-01,	 3.9064930000000005e-02,	 2.3768534768210742e-02,	 1.6147944204752275e+03,	 3.5010623034657317e+02,	 4.4054947403574818e+02,	 3.0124998547834925e+03,	 4.2123682444402499e+02,	 3.9225253813499577e+00 
1.2781890000000001e-01,	 4.0127070000000001e-02,	 2.3960948857142783e-02,	 1.6136825922214725e+03,	 3.5324355528354334e+02,	 4.4135581571475728e+02,	 3.0424454714460699e+03,	 4.2162214499177583e+02,	 3.9179479431565838e+00 
1.3187270000000001e-01,	 4.1189200000000002e-02,	 2.4140822721738654e-02,	 1.6126650433546672e+03,	 3.5616553295120127e+02,	 4.4209719384883596e+02,	 3.0704339721438300e+03,	 4.2197611141929946e+02,	 3.9137933575078048e+00 
1.3592650000000001e-01,	 4.2251330000000004e-02,	 2.4308605765104425e-02,	 1.6117408512117931e+03,	 3.5889159786555160e+02,	 4.4277826872941557e+02,	 3.0965370852190540e+03,	 4.2230102495759587e+02,	 3.9100431608398361e+00 
1.3998030000000000e-01,	 4.3313470000000000e-02,	 2.4464750859236890e-02,	 1.6109087967721550e+03,	 3.6144120669628330e+02,	 4.4340398750959230e+02,	 3.1208315603795745e+03,	 4.2259931014059248e+02,	 3.9066779035162469e+00 
1.4403420000000000e-01,	 4.4375600000000001e-02,	 2.4609673858256517e-02,	 1.6101682587788603e+03,	 3.6383161778303008e+02,	 4.4397922960666887e+02,	 3.1433913153965077e+03,	 4.2287334705387775e+02,	 3.9036795245251321e+00 
1.4808800000000000e-01,	 4.5437730000000003e-02,	 2.4743755226758563e-02,	 1.6095189304058163e+03,	 3.6607662543268805e+02,	 4.4450893164965800e+02,	 3.1642882612010726e+03,	 4.2312553239194420e+02,	 3.9010293459068088e+00 
1.5214179999999999e-01,	 4.6499870000000006e-02,	 2.4867516490256730e-02,	 1.6089595757677876e+03,	 3.6819000029908847e+02,	 4.4499918102065089e+02,	 3.1836224882366719e+03,	 4.2335880089031446e+02,	 3.8987020988303578e+00 
1.5619559999999999e-01,	 4.7562000000000000e-02,	 2.4981439136440756e-02,	 1.6084887367760934e+03,	 3.7018499602243423e+02,	 4.4545650058847195e+02,	 3.2014939995777195e+03,	 4.2357628505096096e+02,	 3.8966703936575873e+00 
1.6024949999999999e-01,	 4.8624130000000002e-02,	 2.5086049186251992e-02,	 1.6081071953330718e+03,	 3.7207290633679730e+02,	 4.4588856798241818e+02,	 3.2180185606260143e+03,	 4.2378165767962696e+02,	 3.8949064086021363e+00 
1.6430330000000001e-01,	 4.9686270000000005e-02,	 2.5182147353715448e-02,	 1.6078006620591377e+03,	 3.7386365087396200e+02,	 4.4630520133965985e+02,	 3.2333643572022315e+03,	 4.2397959990377541e+02,	 3.8933380609074959e+00 