TITLE = "Final State"
VARIABLES = "X", "Y", "rho", "u", "v", "T", "p", "c", "M"
ZONE I=102, J=25, DATAPACKING=POINT, STRANDID=34000, SOLUTIONTIME=0.000820
1.0567210000000000e+00,	 2.8514950000000000e-01,	 5.2649204434823044e-02,	 1.5420867476187652e+03,	 -7.8849673938650682e+01,	 6.1338345948382039e+02,	 9.2908149728920107e+03,	 4.9704420742640684e+02,	 3.1065673266458447e+00 
1.0574120000000000e+00,	 2.8514249999999997e-01,	 5.2366086520041738e-02,	 1.5427225198742080e+03,	 -8.1794022021473680e+01,	 6.1205348745675906e+02,	 9.2208176445001118e+03,	 4.9650505560804737e+02,	 3.1115278896358327e+00 
1.0581080000000000e+00,	 2.8513539999999998e-01,	 5.2048559421937493e-02,	 1.5435404145868363e+03,	 -8.5035926273823776e+01,	 6.1056707846421705e+02,	 9.1426487473419693e+03,	 4.9590179280929084e+02,	 3.1173128226205065e+00 
1.0588070000000001e+00,	 2.8512830000000000e-01,	 5.1739886429538029e-02,	 1.5443341375204582e+03,	 -8.8227583705548611e+01,	 6.0911357628093117e+02,	 9.0667927354346466e+03,	 4.9531117479857079e+02,	 3.1229909149574646e+00 
1.0595110000000001e+00,	 2.8512119999999996e-01,	 5.1436031744101399e-02,	 1.5451077155909702e+03,	 -9.1398141409195460e+01,	 6.0767812784896182e+02,	 8.9923043662385317e+03,	 4.9472720076118475e+02,	 3.1286102747264670e+00 
1.0602190000000000e+00,	 2.8511399999999998e-01,	 5.1135559927345177e-02,	 1.5458605521662821e+03,	 -9.4547321296600444e+01,	 6.0626164458528956e+02,	 8.9189359787265930e+03,	 4.9415026569008677e+02,	 3.1341664551061905e+00 
1.0609310000000001e+00,	 2.8510679999999999e-01,	 5.0841008312370192e-02,	 1.5465976511948811e+03,	 -9.7672953815842078e+01,	 6.0486096315312523e+02,	 8.8470737851288213e+03,	 4.9357910359578773e+02,	 3.1396766233940987e+00 
1.0616479999999999e+00,	 2.8509950000000001e-01,	 5.0549523599081547e-02,	 1.5473160378665657e+03,	 -1.0077308204725934e+02,	 6.0347925915712699e+02,	 8.7762574145765266e+03,	 4.9301503170626262e+02,	 3.1451254496211418e+00 
1.0623680000000000e+00,	 2.8509219999999996e-01,	 5.0264481378612454e-02,	 1.5480186602576900e+03,	 -1.0384099755068942e+02,	 6.0211694893026299e+02,	 8.7070691926377604e+03,	 4.9245824464015379e+02,	 3.1505159917649355e+00 
1.0630940000000000e+00,	 2.8508489999999997e-01,	 4.9984785892194482e-02,	 1.5487047472234754e+03,	 -1.0687627530251274e+02,	 6.0077394678949270e+02,	 8.6393061514819456e+03,	 4.9190873205605760e+02,	 3.1558458658123816e+00 
1.0638230000000000e+00,	 2.8507749999999998e-01,	 4.9709339862550897e-02,	 1.5493678826759237e+03,	 -1.0986597422339256e+02,	 5.9946088213560392e+02,	 8.5729202101082719e+03,	 4.9137087477520680e+02,	 3.1610711719062703e+00 
1.0645570000000000e+00,	 2.8506999999999999e-01,	 4.9440480589999225e-02,	 1.5500101045775073e+03,	 -1.1280972742204958e+02,	 5.9817734574069118e+02,	 8.5082958450925344e+03,	 4.9084454321309653e+02,	 3.1661955907250188e+00 
1.0652960000000000e+00,	 2.8506250000000000e-01,	 4.9180185445868885e-02,	 1.5506313411640858e+03,	 -1.1569683592642139e+02,	 5.9692636625235377e+02,	 8.4458013352855050e+03,	 4.9033101839264310e+02,	 3.1712078588831596e+00 
1.0660390000000000e+00,	 2.8505500000000000e-01,	 4.8927584094577800e-02,	 1.5512268858811849e+03,	 -1.1851592928487979e+02,	 5.9571535726223181e+02,	 8.3853753155205450e+03,	 4.8983338855496191e+02,	 3.1760752268101511e+00 
1.0667869999999999e+00,	 2.8504740000000001e-01,	 4.8683031435037757e-02,	 1.5517933302847225e+03,	 -1.2125877454100663e+02,	 5.9455063959498057e+02,	 8.3271502624274453e+03,	 4.8935430342591206e+02,	 3.1807705661954353e+00 
1.0675390000000000e+00,	 2.8503980000000001e-01,	 4.8450074760329823e-02,	 1.5523297503314579e+03,	 -1.2390685296279139e+02,	 5.9343933805887877e+02,	 8.2718132426025659e+03,	 4.8889675236939041e+02,	 3.1852676651442620e+00 
1.0682959999999999e+00,	 2.8503210000000001e-01,	 4.8227882231393168e-02,	 1.5528302099534230e+03,	 -1.2644643630143477e+02,	 5.9239156029743492e+02,	 8.2193408704166941e+03,	 4.8846496311863427e+02,	 3.1895224155291007e+00 
1.0690580000000001e+00,	 2.8502440000000001e-01,	 4.8020824754406416e-02,	 1.5532923207368649e+03,	 -1.2885143043830212e+02,	 5.9141788692420243e+02,	 8.1706010872496345e+03,	 4.8806336985585807e+02,	 3.1934941432349109e+00 
1.0698250000000000e+00,	 2.8501660000000001e-01,	 4.7828927897184015e-02,	 1.5537076125088438e+03,	 -1.3109694830024088e+02,	 5.9053423029374119e+02,	 8.1257912299990185e+03,	 4.8769861790941042e+02,	 3.1971150207147296e+00 
1.0705970000000000e+00,	 2.8500880000000001e-01,	 4.7657162030424735e-02,	 1.5540721377344278e+03,	 -1.3315235307471863e+02,	 5.8975412323703529e+02,	 8.0859136667300163e+03,	 4.8737638183510006e+02,	 3.2003313840846661e+00 
1.0713729999999999e+00,	 2.8500090000000000e-01,	 4.7504808466501361e-02,	 1.5543792167548841e+03,	 -1.3500132559962799e+02,	 5.8908847965809309e+02,	 8.0509668520489258e+03,	 4.8710125823757807e+02,	 3.2030933203202276e+00 
1.0721550000000000e+00,	 2.8499300000000000e-01,	 4.7380180858533856e-02,	 1.5546183634522931e+03,	 -1.3657753515633300e+02,	 5.8856926522730657e+02,	 8.0227679590209564e+03,	 4.8688654876380411e+02,	 3.2052768629288737e+00 
1.0729420000000001e+00,	 2.8498499999999999e-01,	 4.7290356283348142e-02,	 1.5547601954372869e+03,	 -1.3776236599457462e+02,	 5.8826422922230574e+02,	 8.0034081346821904e+03,	 4.8676036380608457e+02,	 3.2066119628687129e+00 
1.0737340000000000e+00,	 2.8497689999999998e-01,	 4.7237257841453828e-02,	 1.5548088294885574e+03,	 -1.3857594442768510e+02,	 5.8816007500937462e+02,	 7.9930063276064411e+03,	 4.8671727059700544e+02,	 3.2071433655513442e+00 
1.0745309999999999e+00,	 2.8496889999999997e-01,	 4.7228466541305171e-02,	 1.5547522717009047e+03,	 -1.3894795283070795e+02,	 5.8828826944934815e+02,	 7.9932605723743909e+03,	 4.8677030977043995e+02,	 3.2067461179628172e+00 
1.0753330000000001e+00,	 2.8496070000000001e-01,	 4.7265007028986880e-02,	 1.5545664651584837e+03,	 -1.3880855257619857e+02,	 5.8869290869733527e+02,	 8.0049471445697727e+03,	 4.8693768733376248e+02,	 3.2052383065058074e+00 
1.0761410000000000e+00,	 2.8495250000000000e-01,	 4.7356893683248913e-02,	 1.5542554669057554e+03,	 -1.3826165087038171e+02,	 5.8939342381501410e+02,	 8.0300533562831743e+03,	 4.8722731694497992e+02,	 3.2025975434507359e+00 
1.0769530000000000e+00,	 2.8494429999999998e-01,	 4.7472736446810757e-02,	 1.5538474325699863e+03,	 -1.3738112261365265e+02,	 5.9010744907030062e+02,	 8.0594480568347963e+03,	 4.8752235527997186e+02,	 3.1996661646311382e+00 
1.0777720000000000e+00,	 2.8493599999999997e-01,	 4.7654847946949498e-02,	 1.5532355380455147e+03,	 -1.3558893185691443e+02,	 5.9127745427603952e+02,	 8.1064058878339065e+03,	 4.8800542089775246e+02,	 3.1949284252375381e+00 
1.0785950000000000e+00,	 2.8492760000000000e-01,	 4.7967982585119168e-02,	 1.5523559080597479e+03,	 -1.3250798717700570e+02,	 5.9329706357551208e+02,	 8.1875429240705125e+03,	 4.8883814342831579e+02,	 3.1871511218119184e+00 
1.0794250000000001e+00,	 2.8491919999999998e-01,	 4.8359772256011943e-02,	 1.5513255019780954e+03,	 -1.2874739470083247e+02,	 5.9563146687918402e+02,	 8.2868946475534740e+03,	 4.8979889745373271e+02,	 3.1781591086272569e+00 
1.0802590000000001e+00,	 2.8491079999999996e-01,	 4.8802185601410884e-02,	 1.5501570674505406e+03,	 -1.2460983448113986e+02,	 5.9813129995093652e+02,	 8.3978040959521695e+03,	 4.9082565102354670e+02,	 3.1684517682298248e+00 
1.0810999999999999e+00,	 2.8490219999999999e-01,	 4.9300380238641250e-02,	 1.5488407453613195e+03,	 -1.2002234446848455e+02,	 6.0083962334183775e+02,	 8.5219458744451040e+03,	 4.9193561902982270e+02,	 3.1579013476689211e+00 
1.0819460000000001e+00,	 2.8489369999999997e-01,	 4.9850846304167973e-02,	 1.5474161832236650e+03,	 -1.1507465644987300e+02,	 6.0370966035604397e+02,	 8.6582595068113260e+03,	 4.9310913636088634e+02,	 3.1467457646172887e+00 
1.0827979999999999e+00,	 2.8488500000000000e-01,	 5.0433672596068124e-02,	 1.5459125835408713e+03,	 -1.0987934314320893e+02,	 6.0667948833540163e+02,	 8.8025772297677868e+03,	 4.9432052389250032e+02,	 3.1352382804501557e+00 
1.0836560000000000e+00,	 2.8487629999999997e-01,	 5.1040781397128449e-02,	 1.5443748001697318e+03,	 -1.0459108121193516e+02,	 6.0966497220066321e+02,	 8.9523797391056796e+03,	 4.9553531262036012e+02,	 3.1237176582716271e+00 
1.0845190000000000e+00,	 2.8486760000000000e-01,	 5.1653895211561753e-02,	 1.5428307438715105e+03,	 -9.9359184419929633e+01,	 6.1260151671727726e+02,	 9.1035562990730941e+03,	 4.9672728979366235e+02,	 3.1124257905703177e+00 
1.0853889999999999e+00,	 2.8485869999999996e-01,	 5.2258119342900686e-02,	 1.5413122811076908e+03,	 -9.4314446240426236e+01,	 6.1543194574577274e+02,	 9.2525991916474886e+03,	 4.9787349254419507e+02,	 3.1015814377563551e+00 
1.0862639999999999e+00,	 2.8484989999999999e-01,	 5.2844264847708738e-02,	 1.5398585952980197e+03,	 -8.9565772327998189e+01,	 6.1809423701266053e+02,	 9.3968542833470674e+03,	 4.9894920357737584e+02,	 3.0914192836300822e+00 
1.0871459999999999e+00,	 2.8484090000000001e-01,	 5.3395137481989693e-02,	 1.5384835013635147e+03,	 -8.5182653570289389e+01,	 6.2056369852502667e+02,	 9.5327458234213118e+03,	 4.9994493169663070e+02,	 3.0820192243216145e+00 
1.0880330000000000e+00,	 2.8483189999999997e-01,	 5.3908785858702346e-02,	 1.5372106481920659e+03,	 -8.1217444999133164e+01,	 6.2281339000400408e+02,	 9.6593394672946597e+03,	 5.0085032170953860e+02,	 3.0734824748901755e+00 
1.0889270000000000e+00,	 2.8482279999999999e-01,	 5.4377454164022912e-02,	 1.5360443836758222e+03,	 -7.7688927590288131e+01,	 6.2484164809270828e+02,	 9.7750452771488672e+03,	 5.0166519500671001e+02,	 3.0658052242839773e+00 
1.0898270000000001e+00,	 2.8481370000000000e-01,	 5.4800614205964410e-02,	 1.5349927049365904e+03,	 -7.4600031440467262e+01,	 6.2664581507021444e+02,	 9.8795578188116997e+03,	 5.0238892667981122e+02,	 3.0589933814748611e+00 
1.0907330000000000e+00,	 2.8480450000000002e-01,	 5.5177069378104585e-02,	 1.5340513357908339e+03,	 -7.1928104784372465e+01,	 6.2824073959475743e+02,	 9.9727438250875111e+03,	 5.0302785476607562e+02,	 3.0529853692226707e+00 
1.0916459999999999e+00,	 2.8479529999999997e-01,	 5.5510825821120394e-02,	 1.5332168911843332e+03,	 -6.9641580726920310e+01,	 6.2964100324922902e+02,	 1.0055429558482570e+04,	 5.0358813327665717e+02,	 3.0477241227373963e+00 
1.0925650000000000e+00,	 2.8478589999999998e-01,	 5.5801761223269422e-02,	 1.5324777921793188e+03,	 -6.7709061905412455e+01,	 6.3086843008208007e+02,	 1.0127835502634816e+04,	 5.0407874351075401e+02,	 3.0431214734999008e+00 
1.0934910000000000e+00,	 2.8477659999999999e-01,	 5.6060138696756384e-02,	 1.5318326489678695e+03,	 -6.6087272172402990e+01,	 6.3193686206837242e+02,	 1.0191961974905520e+04,	 5.0450541410455520e+02,	 3.0391300714722980e+00 
1.0944229999999999e+00,	 2.8476710000000000e-01,	 5.6282114848681203e-02,	 1.5312609801698611e+03,	 -6.4737287860696640e+01,	 6.3287473018046353e+02,	 1.0247504100363381e+04,	 5.0487964778421781e+02,	 3.0356320138131005e+00 
1.0953619999999999e+00,	 2.8475760000000000e-01,	 5.6479410960131204e-02,	 1.5307616004456838e+03,	 -6.3618810858453990e+01,	 6.3369475318663581e+02,	 1.0296750925751508e+04,	 5.0520663105854555e+02,	 3.0325869500416647e+00 
1.0963069999999999e+00,	 2.8474800000000000e-01,	 5.6651130462578046e-02,	 1.5303189807048625e+03,	 -6.2694396335542997e+01,	 6.3441926273858235e+02,	 1.0339865247355827e+04,	 5.0549535245574924e+02,	 3.0299045733514713e+00 
1.0972599999999999e+00,	 2.8473830000000000e-01,	 5.6803375103427270e-02,	 1.5299266469931504e+03,	 -6.1931666979233142e+01,	 6.3506257966096302e+02,	 1.0378165730772049e+04,	 5.0575157995123629e+02,	 3.0275330741887725e+00 
1.0982190000000001e+00,	 2.8472860000000000e-01,	 5.6939691465440201e-02,	 1.5295788026571984e+03,	 -6.1302419210015060e+01,	 6.3563547281810156e+02,	 1.0412455846911958e+04,	 5.0597964905320862e+02,	 3.0254314595470793e+00 
1.0991850000000001e+00,	 2.8471879999999999e-01,	 5.7060498735400908e-02,	 1.5292652371159813e+03,	 -6.0778272383274121e+01,	 6.3615293780775346e+02,	 1.0443042317694488e+04,	 5.0618556384167420e+02,	 3.0235404541758668e+00 
1.1001580000000000e+00,	 2.8470889999999999e-01,	 5.7169669632192818e-02,	 1.5289827698714869e+03,	 -6.0338037469927116e+01,	 6.3662245584021093e+02,	 1.0470744771487956e+04,	 5.0637232664642266e+02,	 3.0218335048020970e+00 
1.1011380000000000e+00,	 2.8469899999999998e-01,	 5.7269937491493478e-02,	 1.5287295199141640e+03,	 -5.9961414116904066e+01,	 6.3704871872190711e+02,	 1.0496132225878697e+04,	 5.0654182397252498e+02,	 3.0202935472529431e+00 
1.1021250000000000e+00,	 2.8468899999999997e-01,	 5.7360002102087852e-02,	 1.5284991329855666e+03,	 -5.9630641143139492e+01,	 6.3743970158812749e+02,	 1.0519090829499075e+04,	 5.0669724285178711e+02,	 3.0188872820117960e+00 
1.1031190000000000e+00,	 2.8467890000000001e-01,	 5.7442025986613215e-02,	 1.5282909927245987e+03,	 -5.9329912488303997e+01,	 6.3779838609252215e+02,	 1.0540060471033572e+04,	 5.0683978095340564e+02,	 3.0176048573483967e+00 
1.1041200000000000e+00,	 2.8466870000000000e-01,	 5.7516705592150857e-02,	 1.5281046619960407e+03,	 -5.9046113393902822e+01,	 6.3812636060532282e+02,	 1.0559190514578146e+04,	 5.0697008009589155e+02,	 3.0164403587853301e+00 
1.1051290000000000e+00,	 2.8465849999999998e-01,	 5.7585447948095426e-02,	 1.5279424892893469e+03,	 -5.8765843227421414e+01,	 6.3842166080598281e+02,	 1.0576702788475783e+04,	 5.0708736960140163e+02,	 3.0154017889400246e+00 
1.1061449999999999e+00,	 2.8464819999999996e-01,	 5.7645189148386275e-02,	 1.5278008623074793e+03,	 -5.8476335606117786e+01,	 6.3868757186036328e+02,	 1.0592085344349891e+04,	 5.0719296290097134e+02,	 3.0144730917423939e+00 
1.1071690000000001e+00,	 2.8463780000000000e-01,	 5.7698119307082768e-02,	 1.5276837539922722e+03,	 -5.8167494198017678e+01,	 6.3892078188978485e+02,	 1.0605682200164523e+04,	 5.0728555252975212e+02,	 3.0136689814604343e+00 
1.1082000000000001e+00,	 2.8462739999999997e-01,	 5.7743882499861329e-02,	 1.5275936730242142e+03,	 -5.7826945618917335e+01,	 6.3911818663162558e+02,	 1.0617373477288460e+04,	 5.0736391344910527e+02,	 3.0130006451975406e+00 
1.1092379999999999e+00,	 2.8461680000000000e-01,	 5.7778840204591619e-02,	 1.5275271515721520e+03,	 -5.7445641147406597e+01,	 6.3928236435336794e+02,	 1.0626530213330245e+04,	 5.0742907549926406e+02,	 3.0124543930989898e+00 
1.1102850000000000e+00,	 2.8460619999999998e-01,	 5.7807496726856020e-02,	 1.5274957282535022e+03,	 -5.7014039992566396e+01,	 6.3940435603186938e+02,	 1.0633829468178741e+04,	 5.0747748851301242e+02,	 3.0120732878359848e+00 
1.1113390000000001e+00,	 2.8459550000000000e-01,	 5.7825345030404582e-02,	 1.5274895057078497e+03,	 -5.6525177871091543e+01,	 6.3948563357627518e+02,	 1.0638464837899901e+04,	 5.0750974135352271e+02,	 3.0118338396078688e+00 
1.1124000000000001e+00,	 2.8458479999999997e-01,	 5.7833156154916993e-02,	 1.5275220219277187e+03,	 -5.5963482299491289e+01,	 6.3951834692080206e+02,	 1.0640446187663167e+04,	 5.0752272219924248e+02,	 3.0117801077233972e+00 
1.1134700000000000e+00,	 2.8457389999999999e-01,	 5.7828478698802505e-02,	 1.5275845538626579e+03,	 -5.5327617978823184e+01,	 6.3950790464396709e+02,	 1.0639411878017427e+04,	 5.0751857867902550e+02,	 3.0118822163250583e+00 
1.1145480000000001e+00,	 2.8456300000000001e-01,	 5.7815342050907215e-02,	 1.5276861060880606e+03,	 -5.4618139521980915e+01,	 6.3944576658843107e+02,	 1.0635961420270340e+04,	 5.0749392145157509e+02,	 3.0121782527839289e+00 
1.1156340000000000e+00,	 2.8455199999999997e-01,	 5.7788646020534476e-02,	 1.5278245583226906e+03,	 -5.3826921376167235e+01,	 6.3933141855626286e+02,	 1.0629149219258326e+04,	 5.0744854346266231e+02,	 3.0126649775032406e+00 
1.1167270000000000e+00,	 2.8454089999999999e-01,	 5.7750770497245543e-02,	 1.5279999025383195e+03,	 -5.2936594442377604e+01,	 6.3916787277573599e+02,	 1.0619465485345369e+04,	 5.0738363473627840e+02,	 3.0133344877030268e+00 
1.1178300000000001e+00,	 2.8452970000000000e-01,	 5.7701750103608812e-02,	 1.5282124973196028e+03,	 -5.1940210143310175e+01,	 6.3895471523967990e+02,	 1.0606912896547999e+04,	 5.0729902342480307e+02,	 3.0141885404809940e+00 
1.1189400000000000e+00,	 2.8451840000000000e-01,	 5.7639716208463254e-02,	 1.5284649910021062e+03,	 -5.0848585164016114e+01,	 6.3868450424319872e+02,	 1.0591028843383294e+04,	 5.0719174487530779e+02,	 3.0152512959242066e+00 
1.1200580000000000e+00,	 2.8450710000000001e-01,	 5.7565834106234448e-02,	 1.5287594711155180e+03,	 -4.9657225582115856e+01,	 6.3835513864343113e+02,	 1.0571998625449676e+04,	 5.0706095020708909e+02,	 3.0165323160034707e+00 
1.1211860000000000e+00,	 2.8449560000000002e-01,	 5.7477294024499331e-02,	 1.5290896500364611e+03,	 -4.8363606122490417e+01,	 6.3797309973403389e+02,	 1.0549420854256257e+04,	 5.0690919611833181e+02,	 3.0180046392463069e+00 
1.1223209999999999e+00,	 2.8448409999999996e-01,	 5.7378741980630407e-02,	 1.5294608252142407e+03,	 -4.6967237444687385e+01,	 6.3753415115541793e+02,	 1.0524086608555188e+04,	 5.0673478017695601e+02,	 3.0196897047924027e+00 
1.1234649999999999e+00,	 2.8447249999999996e-01,	 5.7267184563299198e-02,	 1.5298671840867873e+03,	 -4.5466762413085021e+01,	 6.3704302022704542e+02,	 1.0495533798772714e+04,	 5.0653955842175043e+02,	 3.0215659021703694e+00 
1.1246179999999999e+00,	 2.8446080000000001e-01,	 5.7144215681419433e-02,	 1.5303078364427561e+03,	 -4.3864525705602858e+01,	 6.3650156743749801e+02,	 1.0464095419900646e+04,	 5.0632424677783496e+02,	 3.0236283969505768e+00 
1.1257800000000000e+00,	 2.8444900000000001e-01,	 5.7010542148370459e-02,	 1.5307820772128900e+03,	 -4.2163602139712346e+01,	 6.3591010360829455e+02,	 1.0429916552865177e+04,	 5.0608894328757913e+02,	 3.0258765005402273e+00 
1.1269499999999999e+00,	 2.8443720000000000e-01,	 5.6867140107994381e-02,	 1.5312891320006513e+03,	 -4.0365533578452940e+01,	 6.3526980876023754e+02,	 1.0393206140099421e+04,	 5.0583408984805419e+02,	 3.0283073007486103e+00 
1.1281289999999999e+00,	 2.8442519999999999e-01,	 5.6711960348632157e-02,	 1.5318222859147629e+03,	 -3.8473979601898435e+01,	 6.3458718300519206e+02,	 1.0353707541430675e+04,	 5.0556224615153326e+02,	 3.0308935978114504e+00 
1.1293169999999999e+00,	 2.8441319999999998e-01,	 5.6549793420095862e-02,	 1.5323857508965605e+03,	 -3.6493153004479566e+01,	 6.3385946085095338e+02,	 1.0312261968574348e+04,	 5.0527228253938961e+02,	 3.0336519084578399e+00 
1.1305149999999999e+00,	 2.8440100000000001e-01,	 5.6376733142498595e-02,	 1.5329716287614351e+03,	 -3.4426105437048392e+01,	 6.3309347039855743e+02,	 1.0268279416777250e+04,	 5.0496689091309884e+02,	 3.0365518273942582e+00 
1.1317210000000000e+00,	 2.8438880000000000e-01,	 5.6197533005542713e-02,	 1.5335832828769549e+03,	 -3.2277580792244422e+01,	 6.3228738148357229e+02,	 1.0222607899898219e+04,	 5.0464531291257310e+02,	 3.0396060001094307e+00 
1.1329370000000001e+00,	 2.8437639999999997e-01,	 5.6008781458206702e-02,	 1.5342124104320296e+03,	 -3.0052011077421525e+01,	 6.3144920150940027e+02,	 1.0174767170100515e+04,	 5.0431071516414158e+02,	 3.0427803020506814e+00 
1.1341619999999999e+00,	 2.8436400000000001e-01,	 5.5815295513933078e-02,	 1.5348639892225356e+03,	 -2.7754456235372544e+01,	 6.3057489497337701e+02,	 1.0125578434896936e+04,	 5.0396145913158773e+02,	 3.0460958440162247e+00 
1.1353960000000001e+00,	 2.8435149999999998e-01,	 5.5614242629159552e-02,	 1.5355306524495259e+03,	 -2.5388829488398635e+01,	 6.2967148724717481e+02,	 1.0074650588480508e+04,	 5.0360032371036209e+02,	 3.0495225246640141e+00 
1.1366400000000001e+00,	 2.8433890000000001e-01,	 5.5407859782091388e-02,	 1.5362121796476229e+03,	 -2.2960362242281423e+01,	 6.2874030137789975e+02,	 1.0022420304398978e+04,	 5.0322781279211046e+02,	 3.0530581076944445e+00 
1.1378940000000000e+00,	 2.8432619999999997e-01,	 5.5196511791395494e-02,	 1.5369073800553097e+03,	 -2.0474058778602018e+01,	 6.2778260087913372e+02,	 9.9689827678192578e+03,	 5.0284440712357497e+02,	 3.0566985051394799e+00 
1.1391570000000000e+00,	 2.8431339999999999e-01,	 5.4980052001484148e-02,	 1.5376136191825010e+03,	 -1.7932292324203516e+01,	 6.2680156658537601e+02,	 9.9143707860806808e+03,	 5.0245135666272103e+02,	 3.0604319446614308e+00 
1.1404300000000001e+00,	 2.8430040000000001e-01,	 5.4758494351311547e-02,	 1.5383278092647856e+03,	 -1.5340836555678182e+01,	 6.2580067376173474e+02,	 9.8586503043506345e+03,	 5.0205003277867894e+02,	 3.0642449944861316e+00 
1.1417130000000000e+00,	 2.8428739999999997e-01,	 5.4535121625947085e-02,	 1.5390534870899396e+03,	 -1.2705942448217343e+01,	 6.2477678520996039e+02,	 9.8023703675152992e+03,	 5.0163915617325472e+02,	 3.0681535031544165e+00 
1.1430050000000000e+00,	 2.8427429999999998e-01,	 5.4307050426357598e-02,	 1.5397825331522886e+03,	 -1.0030977074550147e+01,	 6.2373792500720197e+02,	 9.7451449735449823e+03,	 5.0122192734912892e+02,	 3.0721225915977048e+00 
1.1443080000000001e+00,	 2.8426109999999999e-01,	 5.4076617610369609e-02,	 1.5405166818888256e+03,	 -7.3195469037023955e+00,	 6.2268357595128862e+02,	 9.6873918655590005e+03,	 5.0079812244778225e+02,	 3.0761578401219203e+00 
1.1456210000000000e+00,	 2.8424779999999999e-01,	 5.3843905639638701e-02,	 1.5412549005206706e+03,	 -4.5764446502023262e+00,	 6.2161489072367340e+02,	 9.6291488756725139e+03,	 5.0036818868467907e+02,	 3.0802551596466068e+00 
1.1469440000000000e+00,	 2.8423440000000000e-01,	 5.3609013958310830e-02,	 1.5419953085189975e+03,	 -1.8037693019783461e+00,	 6.2053441336799688e+02,	 9.5704779752433897e+03,	 4.9993313505222409e+02,	 3.0844052042059467e+00 
1.1482779999999999e+00,	 2.8422080000000000e-01,	 5.3371695395294599e-02,	 1.5427351055676795e+03,	 9.9381926394928877e-01,	 6.1944548837316165e+02,	 9.5113908929153095e+03,	 4.9949429660042870e+02,	 3.0885946770028916e+00 
1.1496210000000000e+00,	 2.8420719999999999e-01,	 5.3135104096524492e-02,	 1.5434788447519072e+03,	 3.8106849718582074e+00,	 6.1834392393167388e+02,	 9.4523886670681786e+03,	 4.9904997179599297e+02,	 3.0928436751089206e+00 
1.1509760000000000e+00,	 2.8419349999999999e-01,	 5.2896379059282454e-02,	 1.5442206026709064e+03,	 6.6481965690695031e+00,	 6.1723544387926995e+02,	 9.3930522555534881e+03,	 4.9860245783258358e+02,	 3.0971265570252187e+00 
1.1523410000000001e+00,	 2.8417959999999998e-01,	 5.2656277501274371e-02,	 1.5449586957469771e+03,	 9.5009564608162460e+00,	 6.1612275465811717e+02,	 9.3335603437760637e+03,	 4.9815284023435856e+02,	 3.1014335048779906e+00 
1.1537160000000000e+00,	 2.8416569999999997e-01,	 5.2417866272388723e-02,	 1.5456976941575379e+03,	 1.2365073123663116e+01,	 6.1500198036201857e+02,	 9.2743993035692474e+03,	 4.9769954498507735e+02,	 3.1057837347862205e+00 
1.1551030000000000e+00,	 2.8415160000000000e-01,	 5.2170801501003249e-02,	 1.5464458064371286e+03,	 1.5166783532115165e+01,	 6.1385709305242813e+02,	 9.2135017941801198e+03,	 4.9723607059978394e+02,	 3.1102332881399568e+00 
1.1565000000000001e+00,	 2.8413739999999998e-01,	 5.1967396646484344e-02,	 1.5469595409029857e+03,	 1.7274611353808236e+01,	 6.1291700016837183e+02,	 9.1635249315239271e+03,	 4.9685517804127909e+02,	 3.1136960174024115e+00 
1.0567210000000000e+00,	 2.8585329999999998e-01,	 5.3484253330754093e-02,	 1.5402487279608440e+03,	 -7.1031244203023107e+01,	 6.1777276718974065e+02,	 9.5057116123114265e+03,	 4.9881943536121281e+02,	 3.0910698607994425e+00 
1.0574120000000000e+00,	 2.8584660000000001e-01,	 5.3197913300169299e-02,	 1.5408903562607259e+03,	 -7.3976471820993396e+01,	 6.1644512844404949e+02,	 9.4345015388408519e+03,	 4.9828314739701847e+02,	 3.0959608152404705e+00 
1.0581080000000000e+00,	 2.8583979999999998e-01,	 5.2867314111146889e-02,	 1.5417273981267463e+03,	 -7.7319094477708333e+01,	 6.1491860795396781e+02,	 9.3526529612782360e+03,	 4.9766580865798960e+02,	 3.1018104253041487e+00 
1.0588080000000000e+00,	 2.8583300000000000e-01,	 5.2544165057911818e-02,	 1.5425386183619430e+03,	 -8.0605265558814210e+01,	 6.1342558189703436e+02,	 9.2729158015087214e+03,	 4.9706127370178234e+02,	 3.1075508717185247e+00 
1.0595110000000001e+00,	 2.8582619999999997e-01,	 5.2228551466021227e-02,	 1.5433307082082292e+03,	 -8.3845347985741356e+01,	 6.1195953778328089e+02,	 9.1951882844164811e+03,	 4.9646694760033500e+02,	 3.1132114494525536e+00 
1.0602190000000000e+00,	 2.8581930000000000e-01,	 5.1917755404682936e-02,	 1.5441040444085124e+03,	 -8.7051902889554341e+01,	 6.1051589640135649e+02,	 9.1189077437064225e+03,	 4.9588100737099961e+02,	 3.1188045838200655e+00 
1.0609310000000001e+00,	 2.8581239999999997e-01,	 5.1612668741427462e-02,	 1.5448602643206773e+03,	 -9.0226600590683390e+01,	 6.0909218952364517e+02,	 9.0441818019021302e+03,	 4.9530247921758644e+02,	 3.1243389653172233e+00 
1.0616479999999999e+00,	 2.8580539999999999e-01,	 5.1312031922581255e-02,	 1.5455995524410168e+03,	 -9.3375288700048714e+01,	 6.0768635516032498e+02,	 8.9707475498350032e+03,	 4.9473054978820852e+02,	 3.1298199686774040e+00 
1.0623689999999999e+00,	 2.8579840000000001e-01,	 5.1015981827328999e-02,	 1.5463198292496406e+03,	 -9.6492578484439861e+01,	 6.0630101983435600e+02,	 8.8986573757980786e+03,	 4.9416631237062944e+02,	 3.1352350475879804e+00 
1.0630940000000000e+00,	 2.8579129999999997e-01,	 5.0725468871520824e-02,	 1.5470235332834202e+03,	 -9.9581379378781122e+01,	 6.0493365261498820e+02,	 8.8280290297217925e+03,	 4.9360876075980019e+02,	 3.1405950485744762e+00 
1.0638230000000000e+00,	 2.8578419999999999e-01,	 5.0440347574841629e-02,	 1.5477096236723721e+03,	 -1.0263894352983569e+02,	 6.0358703954109023e+02,	 8.7588666386630812e+03,	 4.9305905556976921e+02,	 3.1458893387837881e+00 
1.0645570000000000e+00,	 2.8577710000000001e-01,	 5.0159881788125069e-02,	 1.5483761591391606e+03,	 -1.0566529673705742e+02,	 6.0226211991742912e+02,	 8.6910448337580292e+03,	 4.9251760714526387e+02,	 3.1511105161826327e+00 
1.0652960000000000e+00,	 2.8576989999999997e-01,	 4.9885240294916908e-02,	 1.5490216374469546e+03,	 -1.0865192457839035e+02,	 6.0096219539115009e+02,	 8.6248024974987275e+03,	 4.9198579421778538e+02,	 3.1562446063773781e+00 
1.0660390000000000e+00,	 2.8576269999999998e-01,	 4.9618038957185265e-02,	 1.5496461756654166e+03,	 -1.1159060505720092e+02,	 5.9969093141349981e+02,	 8.5604582724632801e+03,	 4.9146515004432848e+02,	 3.1612797390087142e+00 
1.0667869999999999e+00,	 2.8575539999999999e-01,	 4.9357405342508105e-02,	 1.5502465407566051e+03,	 -1.1447756075800559e+02,	 5.9845198375970506e+02,	 8.4978990906013023e+03,	 4.9095720971950465e+02,	 3.1661976778834533e+00 
1.0675390000000000e+00,	 2.8574810000000000e-01,	 4.9105529355678294e-02,	 1.5508216279671124e+03,	 -1.1730048959779779e+02,	 5.9724990631314040e+02,	 8.4375512709786617e+03,	 4.9046388254971248e+02,	 3.1709806219458492e+00 
1.0682959999999999e+00,	 2.8574079999999996e-01,	 4.8862005777962361e-02,	 1.5513681144194143e+03,	 -1.2005220491141876e+02,	 5.9608956484785074e+02,	 8.3793966211843435e+03,	 4.8998721251713124e+02,	 3.1756059036886839e+00 
1.0690580000000001e+00,	 2.8573339999999997e-01,	 4.8629383188533791e-02,	 1.5518836312639803e+03,	 -1.2271748082062251e+02,	 5.9497762688941270e+02,	 8.3239475238496743e+03,	 4.8952999120978780e+02,	 3.1800464331989873e+00 
1.0698250000000000e+00,	 2.8572589999999998e-01,	 4.8408208603588715e-02,	 1.5523622758062893e+03,	 -1.2527887691611294e+02,	 5.9392458318288914e+02,	 8.2714233670440972e+03,	 4.8909659275251136e+02,	 3.1842569100822522e+00 
1.0705970000000000e+00,	 2.8571839999999998e-01,	 4.8201820296852174e-02,	 1.5528007900238460e+03,	 -1.2771335478819897e+02,	 5.9294054140928631e+02,	 8.2225121204651932e+03,	 4.8869124583300498e+02,	 3.1881970007043607e+00 
1.0713740000000000e+00,	 2.8571079999999999e-01,	 4.8011187964514923e-02,	 1.5531926082520974e+03,	 -1.2999681303376423e+02,	 5.9203973123433002e+02,	 8.1775506424769937e+03,	 4.8831988872330362e+02,	 3.1918078509115935e+00 
1.0721550000000000e+00,	 2.8570329999999999e-01,	 4.7838413892382234e-02,	 1.5535331597715874e+03,	 -1.3212112036780169e+02,	 5.9122466356630707e+02,	 8.1369051255210161e+03,	 4.8798363524755649e+02,	 3.1950686116239742e+00 
1.0729420000000001e+00,	 2.8569559999999999e-01,	 4.7689944532782497e-02,	 1.5538071972257005e+03,	 -1.3401726225184859e+02,	 5.9053223343062746e+02,	 8.1021515577635828e+03,	 4.8769779334399658e+02,	 3.1978328873134791e+00 
1.0737340000000000e+00,	 2.8568789999999999e-01,	 4.7568135117081363e-02,	 1.5540029501789957e+03,	 -1.3563836631495292e+02,	 5.8998766919973934e+02,	 8.0740046999934757e+03,	 4.8747287418269599e+02,	 3.1999958918524154e+00 
1.0745309999999999e+00,	 2.8568020000000000e-01,	 4.7479891949125372e-02,	 1.5541160464752379e+03,	 -1.3694390639999986e+02,	 5.8960764652143905e+02,	 8.0538357174353223e+03,	 4.8731585345375265e+02,	 3.2014922267247918e+00 
1.0753330000000001e+00,	 2.8567239999999999e-01,	 4.7427705317582100e-02,	 1.5541316090033356e+03,	 -1.3788497578253401e+02,	 5.8942082751800478e+02,	 8.0424344172986366e+03,	 4.8723864357075234e+02,	 3.2022014770248317e+00 
1.0761410000000000e+00,	 2.8566449999999999e-01,	 4.7419051027553991e-02,	 1.5540350068010816e+03,	 -1.3829414708268979e+02,	 5.8945898599454745e+02,	 8.0414874513602272e+03,	 4.8725441497089804e+02,	 3.2019746721727329e+00 
1.0769540000000000e+00,	 2.8565659999999998e-01,	 4.7471322541939198e-02,	 1.5538003556660419e+03,	 -1.3802315323194171e+02,	 5.8990258247162933e+02,	 8.0564101166273103e+03,	 4.8743772178068207e+02,	 3.2002417897357369e+00 
1.0777720000000000e+00,	 2.8564869999999998e-01,	 4.7570949259971809e-02,	 1.5534414343698329e+03,	 -1.3749753273343930e+02,	 5.9058868228021197e+02,	 8.0827077346291007e+03,	 4.8772110225073862e+02,	 3.1975541277589561e+00 
1.0785960000000001e+00,	 2.8564069999999997e-01,	 4.7706110552118562e-02,	 1.5529596285039911e+03,	 -1.3665306302197064e+02,	 5.9134662978584993e+02,	 8.1160754126642487e+03,	 4.8803396674896726e+02,	 3.1943687338953062e+00 