TITLE = "Final State"
VARIABLES = "X", "Y", "rho", "u", "v", "T", "p", "c", "M"
ZONE I=77, J=21, DATAPACKING=POINT, STRANDID=36000, SOLUTIONTIME=0.000869
-5.0000000000000000e-01,	 3.0203999999999998e-01,	 1.1586407834508077e-02,	 1.7360000002483891e+03,	 -3.6044915626211232e-08,	 3.0000000003664161e+02,	 1.0000000082338746e+03,	 3.4760788076377588e+02,	 4.9941330341360235e+00 
-4.9550200000000000e-01,	 3.0203999999999998e-01,	 1.1586407799541648e-02,	 1.7360000001378169e+03,	 -9.8047181175613408e-08,	 3.0000000008361087e+02,	 1.0000000053725553e+03,	 3.4760788079098734e+02,	 4.9941330334269773e+00 
-4.9100400000000000e-01,	 3.0203999999999998e-01,	 1.1586407759851732e-02,	 1.7360000000093155e+03,	 -1.7068609360662834e-07,	 3.0000000011336408e+02,	 1.0000000020461742e+03,	 3.4760788080822476e+02,	 4.9941330328096516e+00 
-4.8650599999999999e-01,	 3.0203999999999998e-01,	 1.1586407755696637e-02,	 1.7359999999809852e+03,	 -1.8482532281959365e-07,	 3.0000000011497190e+02,	 1.0000000016929156e+03,	 3.4760788080915626e+02,	 4.9941330327147684e+00 
-4.8200799999999999e-01,	 3.0203999999999998e-01,	 1.1586407757158910e-02,	 1.7359999999730826e+03,	 -1.7557742859262589e-07,	 3.0000000011070472e+02,	 1.0000000018048976e+03,	 3.4760788080668408e+02,	 4.9941330327275519e+00 
-4.7750999999999999e-01,	 3.0203999999999998e-01,	 1.1586407756668818e-02,	 1.7359999999716483e+03,	 -1.6231799920850540e-07,	 3.0000000010539418e+02,	 1.0000000017448968e+03,	 3.4760788080360743e+02,	 4.9941330327676283e+00 
-4.7301199999999999e-01,	 3.0203999999999998e-01,	 1.1586407755730286e-02,	 1.7359999999719930e+03,	 -1.4876216278265423e-07,	 3.0000000009953931e+02,	 1.0000000016443778e+03,	 3.4760788080021541e+02,	 4.9941330328173539e+00 
-4.6851399999999999e-01,	 3.0203999999999998e-01,	 1.1586407754756653e-02,	 1.7359999999732031e+03,	 -1.3484959065847300e-07,	 3.0000000009315227e+02,	 1.0000000015390552e+03,	 3.4760788079651513e+02,	 4.9941330328739975e+00 
-4.6401599999999998e-01,	 3.0203999999999998e-01,	 1.1586407753782342e-02,	 1.7359999999751867e+03,	 -1.1787823914218004e-07,	 3.0000000008637460e+02,	 1.0000000014323722e+03,	 3.4760788079258850e+02,	 4.9941330329361184e+00 
-4.5951799999999998e-01,	 3.0203999999999998e-01,	 1.1586407752793742e-02,	 1.7359999999778211e+03,	 -1.0275461858407857e-07,	 3.0000000007928941e+02,	 1.0000000013234309e+03,	 3.4760788078848373e+02,	 4.9941330330026705e+00 
-4.5501999999999998e-01,	 3.0203999999999998e-01,	 1.1586407751767586e-02,	 1.7359999999807465e+03,	 -8.9874754994364227e-08,	 3.0000000007171104e+02,	 1.0000000012096041e+03,	 3.4760788078409320e+02,	 4.9941330330741662e+00 
-4.5052199999999998e-01,	 3.0203999999999998e-01,	 1.1586407750735730e-02,	 1.7359999999839119e+03,	 -7.4209148117512567e-08,	 3.0000000006387643e+02,	 1.0000000010944312e+03,	 3.4760788077955425e+02,	 4.9941330331484846e+00 
-4.4602399999999998e-01,	 3.0203999999999998e-01,	 1.1586407749706519e-02,	 1.7359999999872171e+03,	 -5.7985930718491666e-08,	 3.0000000005588515e+02,	 1.0000000009789645e+03,	 3.4760788077492452e+02,	 4.9941330332245082e+00 
-4.4152599999999997e-01,	 3.0203999999999998e-01,	 1.1586407748688571e-02,	 1.7359999999905965e+03,	 -4.1460565209976609e-08,	 3.0000000004782737e+02,	 1.0000000008642481e+03,	 3.4760788077025632e+02,	 4.9941330333012992e+00 
-4.3702800000000003e-01,	 3.0203999999999998e-01,	 1.1586407747680799e-02,	 1.7359999999939835e+03,	 -2.4908842389303973e-08,	 3.0000000003976248e+02,	 1.0000000007503863e+03,	 3.4760788076558396e+02,	 4.9941330333781710e+00 
-4.3253000000000003e-01,	 3.0203999999999998e-01,	 1.1586407746687316e-02,	 1.7359999999973215e+03,	 -8.5135464172310113e-09,	 3.0000000003176706e+02,	 1.0000000006379894e+03,	 3.4760788076095184e+02,	 4.9941330334543244e+00 
-4.2803200000000002e-01,	 3.0203999999999998e-01,	 1.1586407745720222e-02,	 1.7360000000005600e+03,	 7.7345605949948128e-09,	 3.0000000002397098e+02,	 1.0000000005285344e+03,	 3.4760788075643518e+02,	 4.9941330335285326e+00 
-4.2353400000000002e-01,	 3.0203999999999998e-01,	 1.1586407744780973e-02,	 1.7360000000036534e+03,	 2.3509455877942581e-08,	 3.0000000001640319e+02,	 1.0000000004222437e+03,	 3.4760788075205079e+02,	 4.9941330336004226e+00 
-4.1903600000000002e-01,	 3.0203999999999998e-01,	 1.1586407743873903e-02,	 1.7360000000065720e+03,	 3.8647386739851396e-08,	 3.0000000000912723e+02,	 1.0000000003197032e+03,	 3.4760788074783551e+02,	 4.9941330336693808e+00 
-4.1453800000000002e-01,	 3.0203999999999998e-01,	 1.1586407743003686e-02,	 1.7360000000092869e+03,	 5.2998679951176982e-08,	 3.0000000000219916e+02,	 1.0000000002215029e+03,	 3.4760788074382174e+02,	 4.9941330337348573e+00 
-4.1004000000000002e-01,	 3.0203999999999998e-01,	 1.1586407742174749e-02,	 1.7360000000117773e+03,	 6.6454160192516499e-08,	 2.9999999999566512e+02,	 1.0000000001281787e+03,	 3.4760788074003631e+02,	 4.9941330337964072e+00 
-4.0554200000000001e-01,	 3.0203999999999998e-01,	 1.1586407741391986e-02,	 1.7360000000140294e+03,	 7.8933028705008781e-08,	 2.9999999998957026e+02,	 1.0000000000403039e+03,	 3.4760788073650525e+02,	 4.9941330338536174e+00 
-4.0104400000000001e-01,	 3.0203999999999998e-01,	 1.1586407740658704e-02,	 1.7360000000160339e+03,	 9.0303109779133644e-08,	 2.9999999998394082e+02,	 9.9999999995825101e+02,	 3.4760788073324386e+02,	 4.9941330339062411e+00 
-3.9654600000000001e-01,	 3.0203999999999998e-01,	 1.1586407739977354e-02,	 1.7360000000177872e+03,	 1.0048381889471770e-07,	 2.9999999997879684e+02,	 9.9999999988229831e+02,	 3.4760788073026367e+02,	 4.9941330339541015e+00 
-3.9204800000000001e-01,	 3.0203999999999998e-01,	 1.1586407739350199e-02,	 1.7360000000192908e+03,	 1.0947174528791700e-07,	 2.9999999997415523e+02,	 9.9999999981269787e+02,	 3.4760788072757458e+02,	 4.9941330339970618e+00 
-3.8755000000000001e-01,	 3.0203999999999998e-01,	 1.1586407738778648e-02,	 1.7360000000210380e+03,	 1.1724150380677449e-07,	 2.9999999997001800e+02,	 9.9999999974957757e+02,	 3.4760788072517772e+02,	 4.9941330340365244e+00 
-3.8305200000000000e-01,	 3.0203999999999998e-01,	 1.1586407738264541e-02,	 1.7360000000234074e+03,	 1.2377530473338932e-07,	 2.9999999996638496e+02,	 9.9999999969309590e+02,	 3.4760788072307292e+02,	 4.9941330340735801e+00 
-3.7855400000000000e-01,	 3.0203999999999998e-01,	 1.1586407737802491e-02,	 1.7360000000258392e+03,	 1.2910817383865239e-07,	 2.9999999996325937e+02,	 9.9999999964279868e+02,	 3.4760788072126212e+02,	 4.9941330341065919e+00 
-3.7405600000000000e-01,	 3.0203999999999998e-01,	 1.1586407737390690e-02,	 1.7360000000278953e+03,	 1.3320962126612117e-07,	 2.9999999996063377e+02,	 9.9999999959850493e+02,	 3.4760788071974099e+02,	 4.9941330341343617e+00 
-3.6955800000000000e-01,	 3.0203999999999998e-01,	 1.1586407737033406e-02,	 1.7360000000296016e+03,	 1.3613641598979346e-07,	 2.9999999995849009e+02,	 9.9999999956052295e+02,	 3.4760788071849908e+02,	 4.9941330341571133e+00 
-3.6506000000000000e-01,	 3.0203999999999998e-01,	 1.1586407736733355e-02,	 1.7360000000309701e+03,	 1.3791602822991116e-07,	 2.9999999995682316e+02,	 9.9999999952906967e+02,	 3.4760788071753331e+02,	 4.9941330341749257e+00 
-3.6056199999999999e-01,	 3.0203999999999998e-01,	 1.1586407736493795e-02,	 1.7360000000320097e+03,	 1.3849760374309011e-07,	 2.9999999995563871e+02,	 9.9999999950444544e+02,	 3.4760788071684715e+02,	 4.9941330341877741e+00 
-3.5606399999999999e-01,	 3.0203999999999998e-01,	 1.1586407736336806e-02,	 1.7360000000327539e+03,	 1.3800070241787266e-07,	 2.9999999995490077e+02,	 9.9999999948843629e+02,	 3.4760788071641957e+02,	 4.9941330341960581e+00 
-3.5156599999999999e-01,	 3.0203999999999998e-01,	 1.1586407736304951e-02,	 1.7360000000332616e+03,	 1.3680664508986482e-07,	 2.9999999995453874e+02,	 9.9999999948448021e+02,	 3.4760788071620988e+02,	 4.9941330342005310e+00 
-3.4706799999999999e-01,	 3.0203999999999998e-01,	 1.1586407736390733e-02,	 1.7360000000336481e+03,	 1.3521009925053995e-07,	 2.9999999995451748e+02,	 9.9999999949181301e+02,	 3.4760788071619754e+02,	 4.9941330342018206e+00 
-3.4256999999999999e-01,	 3.0203999999999998e-01,	 1.1586407736473604e-02,	 1.7360000000338730e+03,	 1.3317051821682449e-07,	 2.9999999995476423e+02,	 9.9999999949978792e+02,	 3.4760788071634050e+02,	 4.9941330342004138e+00 
-3.3807199999999998e-01,	 3.0203999999999998e-01,	 1.1586407736573750e-02,	 1.7360000000339126e+03,	 1.3076019955413363e-07,	 2.9999999995525525e+02,	 9.9999999951006805e+02,	 3.4760788071662495e+02,	 4.9941330341964409e+00 
-3.3357399999999998e-01,	 3.0203999999999998e-01,	 1.1586407736683830e-02,	 1.7360000000337814e+03,	 1.2801364798175072e-07,	 2.9999999995595897e+02,	 9.9999999952191456e+02,	 3.4760788071703269e+02,	 4.9941330341902050e+00 
-3.2907599999999998e-01,	 3.0203999999999998e-01,	 1.1586407736803013e-02,	 1.7360000000335006e+03,	 1.2494254540058345e-07,	 2.9999999995684266e+02,	 9.9999999953514657e+02,	 3.4760788071754462e+02,	 4.9941330341820427e+00 
-3.2457799999999998e-01,	 3.0203999999999998e-01,	 1.1586407736929139e-02,	 1.7360000000330899e+03,	 1.2159775604441607e-07,	 2.9999999995787880e+02,	 9.9999999954948612e+02,	 3.4760788071814494e+02,	 4.9941330341722363e+00 
-3.2007999999999998e-01,	 3.0203999999999998e-01,	 1.1586407737060708e-02,	 1.7360000000325708e+03,	 1.1799325343385889e-07,	 2.9999999995904034e+02,	 9.9999999956471333e+02,	 3.4760788071881785e+02,	 4.9941330341610746e+00 
-3.1558199999999997e-01,	 3.0203999999999998e-01,	 1.1586407737196203e-02,	 1.7360000000319621e+03,	 1.1417360922515182e-07,	 2.9999999996030374e+02,	 9.9999999958061903e+02,	 3.4760788071954983e+02,	 4.9941330341488079e+00 
-3.1108400000000003e-01,	 3.0203999999999998e-01,	 1.1586407737334218e-02,	 1.7360000000312757e+03,	 1.1023737564734140e-07,	 2.9999999996165064e+02,	 9.9999999959702052e+02,	 3.4760788072033012e+02,	 4.9941330341356220e+00 
-3.0658600000000003e-01,	 3.0203999999999998e-01,	 1.1586407737473624e-02,	 1.7360000000305272e+03,	 1.0615940711021530e-07,	 2.9999999996306138e+02,	 9.9999999961375488e+02,	 3.4760788072114741e+02,	 4.9941330341217265e+00 
-3.0208800000000002e-01,	 3.0203999999999998e-01,	 1.1586407737613259e-02,	 1.7360000000297302e+03,	 1.0196217724077523e-07,	 2.9999999996451766e+02,	 9.9999999963066068e+02,	 3.4760788072199108e+02,	 4.9941330341073131e+00 
-2.9759000000000002e-01,	 3.0203999999999998e-01,	 1.1586407737752177e-02,	 1.7360000000288937e+03,	 9.7717610885873077e-08,	 2.9999999996600593e+02,	 9.9999999964761128e+02,	 3.4760788072285334e+02,	 4.9941330340925179e+00 
-2.9309200000000002e-01,	 3.0203999999999998e-01,	 1.1586407737889839e-02,	 1.7360000000280324e+03,	 9.3442856368204936e-08,	 2.9999999996751001e+02,	 9.9999999966450639e+02,	 3.4760788072372469e+02,	 4.9941330340775218e+00 
-2.8859400000000002e-01,	 3.0203999999999998e-01,	 1.1586407738025280e-02,	 1.7360000000271457e+03,	 8.9173400412219948e-08,	 2.9999999996902670e+02,	 9.9999999968125155e+02,	 3.4760788072460343e+02,	 4.9941330340623455e+00 
-2.8409600000000002e-01,	 3.0203999999999998e-01,	 1.1586407738157865e-02,	 1.7360000000262446e+03,	 8.4940747266366876e-08,	 2.9999999997054294e+02,	 9.9999999969774888e+02,	 3.4760788072548183e+02,	 4.9941330340471328e+00 
-2.7959800000000001e-01,	 3.0203999999999998e-01,	 1.1586407738287043e-02,	 1.7360000000253488e+03,	 8.0705274300404465e-08,	 2.9999999997203315e+02,	 9.9999999971386524e+02,	 3.4760788072634517e+02,	 4.9941330340321528e+00 
-2.7510000000000001e-01,	 3.0203999999999998e-01,	 1.1586407738412262e-02,	 1.7360000000244545e+03,	 7.6525499823190547e-08,	 2.9999999997350471e+02,	 9.9999999972957801e+02,	 3.4760788072719771e+02,	 4.9941330340173309e+00 
-2.7060200000000001e-01,	 3.0203999999999998e-01,	 1.1586407738533481e-02,	 1.7360000000235675e+03,	 7.2416739503040227e-08,	 2.9999999997495104e+02,	 9.9999999974486116e+02,	 3.4760788072803564e+02,	 4.9941330340027408e+00 
-2.6610400000000001e-01,	 3.0203999999999998e-01,	 1.1586407738650360e-02,	 1.7360000000226921e+03,	 6.8386565631018051e-08,	 2.9999999997636405e+02,	 9.9999999975965875e+02,	 3.4760788072885430e+02,	 4.9941330339884606e+00 
-2.6160600000000001e-01,	 3.0203999999999998e-01,	 1.1586407738762648e-02,	 1.7360000000218329e+03,	 6.4459331579680091e-08,	 2.9999999997773853e+02,	 9.9999999977393179e+02,	 3.4760788072965056e+02,	 4.9941330339745491e+00 
-2.5710800000000000e-01,	 3.0203999999999998e-01,	 1.1586407738870205e-02,	 1.7360000000209925e+03,	 6.0644974443372961e-08,	 2.9999999997907162e+02,	 9.9999999978765845e+02,	 3.4760788073042289e+02,	 4.9941330339610355e+00 
-2.5261000000000000e-01,	 3.0203999999999998e-01,	 1.1586407738972949e-02,	 1.7360000000201746e+03,	 5.6949939637926308e-08,	 2.9999999998036071e+02,	 9.9999999980082316e+02,	 3.4760788073116976e+02,	 4.9941330339479517e+00 
-2.4811200000000000e-01,	 3.0203999999999998e-01,	 1.1586407739070803e-02,	 1.7360000000193809e+03,	 5.3399040662945649e-08,	 2.9999999998160240e+02,	 9.9999999981340761e+02,	 3.4760788073188911e+02,	 4.9941330339353334e+00 
-2.4361400000000000e-01,	 3.0203999999999998e-01,	 1.1586407739163784e-02,	 1.7360000000186124e+03,	 4.9980107599164537e-08,	 2.9999999998279634e+02,	 9.9999999982541237e+02,	 3.4760788073258078e+02,	 4.9941330339231849e+00 
-2.3911600000000000e-01,	 3.0203999999999998e-01,	 1.1586407739251948e-02,	 1.7360000000178732e+03,	 4.6680138795959298e-08,	 2.9999999998393787e+02,	 9.9999999983682676e+02,	 3.4760788073324215e+02,	 4.9941330339115568e+00 
-2.3461799999999999e-01,	 3.0203999999999998e-01,	 1.1586407739335253e-02,	 1.7360000000171622e+03,	 4.3536269882398052e-08,	 2.9999999998502926e+02,	 9.9999999984765464e+02,	 3.4760788073387442e+02,	 4.9941330339004271e+00 
-2.3011999999999999e-01,	 3.0203999999999998e-01,	 1.1586407739413827e-02,	 1.7360000000164807e+03,	 4.0528171620440836e-08,	 2.9999999998606859e+02,	 9.9999999985790066e+02,	 3.4760788073447657e+02,	 4.9941330338898160e+00 
-2.2562199999999999e-01,	 3.0203999999999998e-01,	 1.1586407739487808e-02,	 1.7360000000158311e+03,	 3.7646096014915710e-08,	 2.9999999998705658e+02,	 9.9999999986757916e+02,	 3.4760788073504898e+02,	 4.9941330338797227e+00 
-2.2112399999999999e-01,	 3.0203999999999998e-01,	 1.1586407739557322e-02,	 1.7360000000152127e+03,	 3.4915316898724013e-08,	 2.9999999998799223e+02,	 9.9999999987669753e+02,	 3.4760788073559104e+02,	 4.9941330338701562e+00 
-2.1662600000000001e-01,	 3.0203999999999998e-01,	 1.1586407739622486e-02,	 1.7360000000146233e+03,	 3.2338764144102301e-08,	 2.9999999998887915e+02,	 9.9999999988527816e+02,	 3.4760788073610485e+02,	 4.9941330338610790e+00 
-2.1212800000000001e-01,	 3.0203999999999998e-01,	 1.1586407739683568e-02,	 1.7360000000140653e+03,	 2.9882288652453460e-08,	 2.9999999998971612e+02,	 9.9999999989333980e+02,	 3.4760788073658972e+02,	 4.9941330338525072e+00 
-2.0763000000000001e-01,	 3.0203999999999998e-01,	 1.1586407739740776e-02,	 1.7360000000135394e+03,	 2.7574061028155358e-08,	 2.9999999999050351e+02,	 9.9999999990090191e+02,	 3.4760788073704595e+02,	 4.9941330338444399e+00 
-2.0313200000000001e-01,	 3.0203999999999998e-01,	 1.1586407739794821e-02,	 1.7360000000130422e+03,	 2.5398020090853263e-08,	 2.9999999999124401e+02,	 9.9999999990803485e+02,	 3.4760788073747494e+02,	 4.9941330338368459e+00 
-1.9863400000000001e-01,	 3.0203999999999998e-01,	 1.1586407739848330e-02,	 1.7360000000125738e+03,	 2.3327547835346033e-08,	 2.9999999999193824e+02,	 9.9999999991496725e+02,	 3.4760788073787711e+02,	 4.9941330338297201e+00 
-1.9413600000000000e-01,	 3.0203999999999998e-01,	 1.1586407739911587e-02,	 1.7360000000121363e+03,	 2.1374977540193317e-08,	 2.9999999999258694e+02,	 9.9999999992258915e+02,	 3.4760788073825296e+02,	 4.9941330338230614e+00 
-1.8963800000000000e-01,	 3.0203999999999998e-01,	 1.1586407740027407e-02,	 1.7360000000116729e+03,	 1.9479097261706118e-08,	 2.9999999999319158e+02,	 9.9999999993460085e+02,	 3.4760788073860323e+02,	 4.9941330338166967e+00 
-1.8514000000000000e-01,	 3.0203999999999998e-01,	 1.1586407740375445e-02,	 1.7360000000105135e+03,	 1.7368899352244589e-08,	 2.9999999999375734e+02,	 9.9999999996652514e+02,	 3.4760788073893099e+02,	 4.9941330338086525e+00 
-1.8064200000000000e-01,	 3.0203999999999998e-01,	 1.1586407741707442e-02,	 1.7360000000091732e+03,	 1.4031574136545896e-08,	 2.9999999999426774e+02,	 1.0000000000831885e+03,	 3.4760788073922669e+02,	 4.9941330338005478e+00 
-1.7614400000000000e-01,	 3.0203999999999998e-01,	 1.1586407747145516e-02,	 1.7360000000186110e+03,	 5.2633975098619631e-09,	 2.9999999999502813e+02,	 1.0000000005550726e+03,	 3.4760788073966722e+02,	 4.9941330338213694e+00 
-1.7164599999999999e-01,	 3.0203999999999998e-01,	 1.1586407769585864e-02,	 1.7360000000774492e+03,	 -2.6225395969419393e-08,	 2.9999999999773740e+02,	 1.0000000025008857e+03,	 3.4760788074123684e+02,	 4.9941330339680841e+00 
-1.6714799999999999e-01,	 3.0203999999999998e-01,	 1.1586407861804586e-02,	 1.7360000003488558e+03,	 -1.5134736149153780e-07,	 3.0000000000587954e+02,	 1.0000000104872422e+03,	 3.4760788074595399e+02,	 4.9941330346810959e+00 
-1.6264999999999999e-01,	 3.0203999999999998e-01,	 1.1587703203961960e-02,	 1.7359937895169774e+03,	 2.6447804842917502e-02,	 3.0001304664177474e+02,	 1.0001553025627707e+03,	 3.4761543918620185e+02,	 4.9940065774482179e+00 
-1.5815199999999999e-01,	 3.0203999999999998e-01,	 1.1588998638301462e-02,	 1.7359875790154181e+03,	 5.2895914055871907e-02,	 3.0002609330213727e+02,	 1.0003106124005806e+03,	 3.4762299747627941e+02,	 4.9938801299811892e+00 
-5.0000000000000000e-01,	 3.0803999999999998e-01,	 1.1586407916939389e-02,	 1.7360000004699418e+03,	 -2.7206275660113749e-07,	 3.0000000001655508e+02,	 1.0000000152814034e+03,	 3.4760788075213878e+02,	 4.9941330349405790e+00 
-4.9550200000000000e-01,	 3.0802469999999998e-01,	 1.1586407761247102e-02,	 1.7360000000146158e+03,	 -3.1542530831715024e-07,	 3.0000000003934065e+02,	 1.0000000019198611e+03,	 3.4760788076533953e+02,	 4.9941330334410381e+00 
-4.9100400000000000e-01,	 3.0800929999999999e-01,	 1.1586407748729839e-02,	 1.7359999999746651e+03,	 -3.0616167651610001e-07,	 3.0000000004864938e+02,	 1.0000000008705499e+03,	 3.4760788077073255e+02,	 4.9941330332486258e+00 
-4.8650599999999999e-01,	 3.0799399999999999e-01,	 1.1586407744884730e-02,	 1.7359999999674462e+03,	 -2.7811249549757504e-07,	 3.0000000005237069e+02,	 1.0000000005510905e+03,	 3.4760788077288845e+02,	 4.9941330331968841e+00 
-4.8200799999999999e-01,	 3.0797869999999999e-01,	 1.1586407744185293e-02,	 1.7359999999668289e+03,	 -2.4465517597726298e-07,	 3.0000000005355457e+02,	 1.0000000004946697e+03,	 3.4760788077357432e+02,	 4.9941330331852543e+00 
-4.7750999999999999e-01,	 3.0796330000000000e-01,	 1.1586407744383773e-02,	 1.7359999999684148e+03,	 -2.1115608675989402e-07,	 3.0000000005326217e+02,	 1.0000000005108254e+03,	 3.4760788077340493e+02,	 4.9941330331922504e+00 
-4.7301199999999999e-01,	 3.0794800000000000e-01,	 1.1586407744494863e-02,	 1.7359999999706861e+03,	 -1.7914175035302856e-07,	 3.0000000005176457e+02,	 1.0000000005154214e+03,	 3.4760788077253733e+02,	 4.9941330332112495e+00 
-4.6851399999999999e-01,	 3.0793270000000000e-01,	 1.1586407744427275e-02,	 1.7359999999730339e+03,	 -1.4847569070247057e-07,	 3.0000000004922742e+02,	 1.0000000005011309e+03,	 3.4760788077106741e+02,	 4.9941330332391223e+00 
-4.6401599999999998e-01,	 3.0791730000000000e-01,	 1.1586407744259383e-02,	 1.7359999999759955e+03,	 -1.2049960741338490e-07,	 3.0000000004579385e+02,	 1.0000000004751953e+03,	 3.4760788076907818e+02,	 4.9941330332762215e+00 
-4.5951799999999998e-01,	 3.0790200000000001e-01,	 1.1586407744005892e-02,	 1.7359999999790209e+03,	 -9.2697485642240589e-08,	 3.0000000004162405e+02,	 1.0000000004394176e+03,	 3.4760788076666245e+02,	 4.9941330333196321e+00 
-4.5501999999999998e-01,	 3.0788670000000001e-01,	 1.1586407743656425e-02,	 1.7359999999822289e+03,	 -6.4750092939570619e-08,	 3.0000000003679332e+02,	 1.0000000003931533e+03,	 3.4760788076386376e+02,	 4.9941330333690699e+00 
-4.5052199999999998e-01,	 3.0787130000000001e-01,	 1.1586407743225053e-02,	 1.7359999999855447e+03,	 -3.9460374522300339e-08,	 3.0000000003148733e+02,	 1.0000000003382357e+03,	 3.4760788076078973e+02,	 4.9941330334227736e+00 
-4.4602399999999998e-01,	 3.0785599999999996e-01,	 1.1586407742735182e-02,	 1.7359999999889014e+03,	 -1.5780120569479975e-08,	 3.0000000002585756e+02,	 1.0000000002771902e+03,	 3.4760788075752816e+02,	 4.9941330334792902e+00 
-4.4152599999999997e-01,	 3.0784069999999997e-01,	 1.1586407742205720e-02,	 1.7359999999922477e+03,	 6.3538742814503786e-09,	 3.0000000002003873e+02,	 1.0000000002120973e+03,	 3.4760788075415701e+02,	 4.9941330335373504e+00 
-4.3702800000000003e-01,	 3.0782529999999997e-01,	 1.1586407741650376e-02,	 1.7359999999955453e+03,	 2.6900431133989953e-08,	 3.0000000001414486e+02,	 1.0000000001445203e+03,	 3.4760788075074248e+02,	 4.9941330335958938e+00 
-4.3253000000000003e-01,	 3.0780999999999997e-01,	 1.1586407741082629e-02,	 1.7359999999987508e+03,	 4.5774561363385923e-08,	 3.0000000000826913e+02,	 1.0000000000759335e+03,	 3.4760788074733836e+02,	 4.9941330336540233e+00 
-4.2803200000000002e-01,	 3.0779469999999998e-01,	 1.1586407740517651e-02,	 1.7360000000018267e+03,	 6.3049625106091911e-08,	 3.0000000000253101e+02,	 1.0000000000080443e+03,	 3.4760788074401398e+02,	 4.9941330337106340e+00 
-4.2353400000000002e-01,	 3.0777929999999998e-01,	 1.1586407739965178e-02,	 1.7360000000047494e+03,	 7.8677298222787644e-08,	 2.9999999999700458e+02,	 9.9999999994193990e+02,	 3.4760788074081228e+02,	 4.9941330337650411e+00 
-4.1903600000000002e-01,	 3.0776399999999998e-01,	 1.1586407739434146e-02,	 1.7360000000074951e+03,	 9.2649863680306693e-08,	 2.9999999999175282e+02,	 9.9999999987860178e+02,	 3.4760788073776968e+02,	 4.9941330338166532e+00 
-4.1453800000000002e-01,	 3.0774869999999999e-01,	 1.1586407738931884e-02,	 1.7360000000100454e+03,	 1.0498247943954268e-07,	 2.9999999998683035e+02,	 9.9999999981884434e+02,	 3.4760788073491790e+02,	 4.9941330338649621e+00 
-4.1004000000000002e-01,	 3.0773329999999999e-01,	 1.1586407738464160e-02,	 1.7360000000123846e+03,	 1.1567969124363409e-07,	 2.9999999998227889e+02,	 9.9999999976330446e+02,	 3.4760788073228099e+02,	 4.9941330339095762e+00 
-4.0554200000000001e-01,	 3.0771799999999999e-01,	 1.1586407738035267e-02,	 1.7360000000145014e+03,	 1.2477079704077974e-07,	 2.9999999997813131e+02,	 9.9999999971246223e+02,	 3.4760788072987816e+02,	 4.9941330339501881e+00 
-4.0104400000000001e-01,	 3.0770270000000000e-01,	 1.1586407737648255e-02,	 1.7360000000163905e+03,	 1.3234153925629560e-07,	 2.9999999997440773e+02,	 9.9999999966664814e+02,	 3.4760788072772090e+02,	 4.9941330339866159e+00 
-3.9654600000000001e-01,	 3.0768730000000000e-01,	 1.1586407737305012e-02,	 1.7360000000180494e+03,	 1.3845993302649985e-07,	 2.9999999997111860e+02,	 9.9999999962605966e+02,	 3.4760788072581533e+02,	 4.9941330340187653e+00 
-3.9204800000000001e-01,	 3.0767200000000000e-01,	 1.1586407737006022e-02,	 1.7360000000194786e+03,	 1.4318374532993968e-07,	 2.9999999996826779e+02,	 9.9999999959075171e+02,	 3.4760788072416375e+02,	 4.9941330340466061e+00 
-3.8755000000000001e-01,	 3.0765670000000001e-01,	 1.1586407736752142e-02,	 1.7360000000205905e+03,	 1.4658411258192936e-07,	 2.9999999996585012e+02,	 9.9999999956078102e+02,	 3.4760788072276307e+02,	 4.9941330340699288e+00 
-3.8305200000000000e-01,	 3.0764130000000001e-01,	 1.1586407736538129e-02,	 1.7360000000215259e+03,	 1.4876443194209979e-07,	 2.9999999996385367e+02,	 9.9999999953565509e+02,	 3.4760788072160642e+02,	 4.9941330340892369e+00 
-3.7855400000000000e-01,	 3.0762600000000001e-01,	 1.1586407736381135e-02,	 1.7360000000224109e+03,	 1.4980378976402241e-07,	 2.9999999996226313e+02,	 9.9999999951680343e+02,	 3.4760788072068493e+02,	 4.9941330341050225e+00 
-3.7405600000000000e-01,	 3.0761070000000001e-01,	 1.1586407736269778e-02,	 1.7360000000231039e+03,	 1.4977028348449593e-07,	 2.9999999996105851e+02,	 9.9999999950317704e+02,	 3.4760788071998707e+02,	 4.9941330341170422e+00 
-3.6955800000000000e-01,	 3.0759530000000002e-01,	 1.1586407736195285e-02,	 1.7360000000235798e+03,	 1.4873395537301262e-07,	 2.9999999996022569e+02,	 9.9999999949397159e+02,	 3.4760788071950458e+02,	 4.9941330341253432e+00 
-3.6506000000000000e-01,	 3.0757999999999996e-01,	 1.1586407736186711e-02,	 1.7360000000238269e+03,	 1.4676172157758364e-07,	 2.9999999995976214e+02,	 9.9999999949168637e+02,	 3.4760788071923599e+02,	 4.9941330341299128e+00 
-3.6056199999999999e-01,	 3.0756469999999997e-01,	 1.1586407736253234e-02,	 1.7360000000238642e+03,	 1.4406939087201084e-07,	 2.9999999995964515e+02,	 9.9999999949703795e+02,	 3.4760788071916824e+02,	 4.9941330341309937e+00 
-3.5606399999999999e-01,	 3.0754929999999997e-01,	 1.1586407736342293e-02,	 1.7360000000237198e+03,	 1.4082121092115496e-07,	 2.9999999995983637e+02,	 9.9999999950536187e+02,	 3.4760788071927902e+02,	 4.9941330341289865e+00 
-3.5156599999999999e-01,	 3.0753399999999997e-01,	 1.1586407736401568e-02,	 1.7360000000234445e+03,	 1.3716517569086387e-07,	 2.9999999996028515e+02,	 9.9999999951197367e+02,	 3.4760788071953903e+02,	 4.9941330341244594e+00 
-3.4706799999999999e-01,	 3.0751869999999998e-01,	 1.1586407736470006e-02,	 1.7360000000230903e+03,	 1.3326634116865706e-07,	 2.9999999996095391e+02,	 9.9999999952010967e+02,	 3.4760788071992647e+02,	 4.9941330341178736e+00 
-3.4256999999999999e-01,	 3.0750329999999998e-01,	 1.1586407736550317e-02,	 1.7360000000226346e+03,	 1.2917052086801593e-07,	 2.9999999996179736e+02,	 9.9999999952985263e+02,	 3.4760788072041510e+02,	 4.9941330341095425e+00 
-3.3807199999999998e-01,	 3.0748799999999998e-01,	 1.1586407736644282e-02,	 1.7360000000220866e+03,	 1.2489280698658492e-07,	 2.9999999996279234e+02,	 9.9999999954127918e+02,	 3.4760788072099155e+02,	 4.9941330340996846e+00 
-3.3357399999999998e-01,	 3.0747269999999999e-01,	 1.1586407736748860e-02,	 1.7360000000214607e+03,	 1.2048427289617395e-07,	 2.9999999996391585e+02,	 9.9999999955405008e+02,	 3.4760788072164246e+02,	 4.9941330340885317e+00 
-3.2907599999999998e-01,	 3.0745729999999999e-01,	 1.1586407736862340e-02,	 1.7360000000207704e+03,	 1.1596642535321864e-07,	 2.9999999996514396e+02,	 9.9999999956793806e+02,	 3.4760788072235397e+02,	 4.9941330340763237e+00 
-3.2457799999999998e-01,	 3.0744199999999999e-01,	 1.1586407736982895e-02,	 1.7360000000200275e+03,	 1.1138277674641689e-07,	 2.9999999996645596e+02,	 9.9999999958271621e+02,	 3.4760788072311408e+02,	 4.9941330340632657e+00 
-3.2007999999999998e-01,	 3.0742670000000000e-01,	 1.1586407737108879e-02,	 1.7360000000192447e+03,	 1.0677975371471013e-07,	 2.9999999996783316e+02,	 9.9999999959818035e+02,	 3.4760788072391193e+02,	 4.9941330340495504e+00 
-3.1558199999999997e-01,	 3.0741130000000000e-01,	 1.1586407737238898e-02,	 1.7360000000184323e+03,	 1.0217082622732805e-07,	 2.9999999996925703e+02,	 9.9999999961414835e+02,	 3.4760788072473684e+02,	 4.9941330340353618e+00 
-3.1108400000000003e-01,	 3.0739600000000000e-01,	 1.1586407737371709e-02,	 1.7360000000175978e+03,	 9.7555076027433941e-08,	 2.9999999997071347e+02,	 9.9999999963046571e+02,	 3.4760788072558063e+02,	 4.9941330340208383e+00 
-3.0658600000000003e-01,	 3.0738070000000001e-01,	 1.1586407737506068e-02,	 1.7360000000167504e+03,	 9.2971953622524478e-08,	 2.9999999997218993e+02,	 9.9999999964698350e+02,	 3.4760788072643601e+02,	 4.9941330340061114e+00 
-3.0208800000000002e-01,	 3.0736530000000001e-01,	 1.1586407737641000e-02,	 1.7360000000158982e+03,	 8.8451279334008578e-08,	 2.9999999997367291e+02,	 9.9999999966357257e+02,	 3.4760788072729520e+02,	 4.9941330339913161e+00 
-2.9759000000000002e-01,	 3.0735000000000001e-01,	 1.1586407737775632e-02,	 1.7360000000150483e+03,	 8.3994951144106072e-08,	 2.9999999997515164e+02,	 9.9999999968012139e+02,	 3.4760788072815188e+02,	 4.9941330339765626e+00 
-2.9309200000000002e-01,	 3.0733470000000002e-01,	 1.1586407737909189e-02,	 1.7360000000142068e+03,	 7.9632835451723087e-08,	 2.9999999997661666e+02,	 9.9999999969653186e+02,	 3.4760788072900061e+02,	 4.9941330339619476e+00 
-2.8859400000000002e-01,	 3.0731929999999996e-01,	 1.1586407738041055e-02,	 1.7360000000133746e+03,	 7.5379019643817004e-08,	 2.9999999997806316e+02,	 9.9999999971273462e+02,	 3.4760788072983866e+02,	 4.9941330339475138e+00 
-2.8409600000000002e-01,	 3.0730399999999997e-01,	 1.1586407738170311e-02,	 1.7360000000125576e+03,	 7.1223223457485953e-08,	 2.9999999997948601e+02,	 9.9999999972863338e+02,	 3.4760788073066294e+02,	 4.9941330339333208e+00 
-2.7959800000000001e-01,	 3.0728869999999997e-01,	 1.1586407738296303e-02,	 1.7360000000117634e+03,	 6.7163558565100840e-08,	 2.9999999998086992e+02,	 9.9999999974412037e+02,	 3.4760788073146472e+02,	 4.9941330339195167e+00 
-2.7510000000000001e-01,	 3.0727329999999997e-01,	 1.1586407738418902e-02,	 1.7360000000109933e+03,	 6.3232449063034783e-08,	 2.9999999998221392e+02,	 9.9999999975918183e+02,	 3.4760788073224336e+02,	 4.9941330339061141e+00 
-2.7060200000000001e-01,	 3.0725799999999998e-01,	 1.1586407738537753e-02,	 1.7360000000102491e+03,	 5.9437194777060211e-08,	 2.9999999998351626e+02,	 9.9999999977378070e+02,	 3.4760788073299790e+02,	 4.9941330338931333e+00 
-2.6610400000000001e-01,	 3.0724269999999998e-01,	 1.1586407738652552e-02,	 1.7360000000095310e+03,	 5.5791606179537634e-08,	 2.9999999998477313e+02,	 9.9999999978787832e+02,	 3.4760788073372606e+02,	 4.9941330338806056e+00 
-2.6160600000000001e-01,	 3.0722729999999998e-01,	 1.1586407738763091e-02,	 1.7360000000088426e+03,	 5.2281454435423192e-08,	 2.9999999998598133e+02,	 9.9999999980144605e+02,	 3.4760788073442603e+02,	 4.9941330338685681e+00 
-2.5710800000000000e-01,	 3.0721199999999999e-01,	 1.1586407738869185e-02,	 1.7360000000081845e+03,	 4.8910238807364312e-08,	 2.9999999998713918e+02,	 9.9999999981446217e+02,	 3.4760788073509678e+02,	 4.9941330338570387e+00 