TITLE = "Final State"
VARIABLES = "X", "Y", "rho", "u", "v", "T", "p", "c", "M"
ZONE I=102, J=27, DATAPACKING=POINT, STRANDID=80000, SOLUTIONTIME=0.001930
1.0000000000000000e+00,	 2.6805000000000001e-01,	 2.4705873812913243e-02,	 1.5915505242752122e+03,	 4.0021489062178443e+02,	 4.6094133684777023e+02,	 3.2762407924728345e+03,	 4.3087551459940562e+02,	 3.8087537371160276e+00 
1.0004999999999999e+00,	 2.6803939999999998e-01,	 1.9218464275754382e-02,	 1.6063025555470358e+03,	 3.2683007885073647e+02,	 4.5849890811561181e+02,	 2.5350523024993931e+03,	 4.2973244014973989e+02,	 3.8145014013867766e+00 
1.0009999999999999e+00,	 2.6802890000000001e-01,	 1.4488522724673887e-02,	 1.6232416452805192e+03,	 2.3514126702806351e+02,	 4.5006518874386944e+02,	 1.8759854537411909e+03,	 4.2576180459704989e+02,	 3.8523521339003679e+00 
1.0014989999999999e+00,	 2.6801829999999999e-01,	 1.2143168641305886e-02,	 1.6365678494923779e+03,	 1.6439284476165133e+02,	 4.3595952521557405e+02,	 1.5230288668222329e+03,	 4.1903671071695419e+02,	 3.9252020049316112e+00 
1.0019990000000001e+00,	 2.6800770000000002e-01,	 1.0729793003853232e-02,	 1.6479793741766889e+03,	 1.1736721184055260e+02,	 4.2078256491713012e+02,	 1.2989098727585877e+03,	 4.1167818566269744e+02,	 4.0132159658320381e+00 
1.0024999999999999e+00,	 2.6799719999999999e-01,	 9.7537824168232347e-03,	 1.6577269283651037e+03,	 8.4766243628628217e+01,	 4.0678168067090428e+02,	 1.1414696983078461e+03,	 4.0477127029979010e+02,	 4.1008165717307206e+00 
1.0029999999999999e+00,	 2.6798659999999996e-01,	 9.0277091900948878e-03,	 1.6658180538297713e+03,	 6.1092487433713885e+01,	 3.9473984481062291e+02,	 1.0252232916650546e+03,	 3.9873510184982740e+02,	 4.1805648102457136e+00 
1.0035000000000001e+00,	 2.6797599999999999e-01,	 8.4741167527874507e-03,	 1.6723061750460852e+03,	 4.3058446551981767e+01,	 3.8481577413574280e+02,	 9.3816072285449604e+02,	 3.9369093919395891e+02,	 4.2491717484594833e+00 
1.0040009999999999e+00,	 2.6796539999999996e-01,	 8.0551805975105552e-03,	 1.6772469385013624e+03,	 2.8678618691294613e+01,	 3.7698017257320487e+02,	 8.7362233396336512e+02,	 3.8966216665995711e+02,	 4.3049909552544507e+00 
1.0045020000000000e+00,	 2.6795490000000000e-01,	 7.7553746546922004e-03,	 1.6806287199963945e+03,	 1.6566729980968066e+01,	 3.7117903740840927e+02,	 8.2816364471693907e+02,	 3.8665239724976112e+02,	 4.3468251662341570e+00 
1.0050030000000001e+00,	 2.6794429999999997e-01,	 7.5664353698635372e-03,	 1.6822411575071844e+03,	 5.8012634533030267e+00,	 3.6785787564101179e+02,	 8.0075806746050989e+02,	 3.8491870483362231e+02,	 4.3704063722432487e+00 
1.0055050000000001e+00,	 2.6793370000000000e-01,	 7.5374994880337944e-03,	 1.6814638491398414e+03,	 -9.6115755830193521e+00,	 3.6788809708417409e+02,	 7.9776130949473850e+02,	 3.8493451604851884e+02,	 4.3682529096055545e+00 
1.0060070000000001e+00,	 2.6792309999999997e-01,	 7.7088893891445152e-03,	 1.6777102901539342e+03,	 -2.9153938440850453e+01,	 3.7254454828076041e+02,	 8.2622810553582735e+02,	 3.8736296183267535e+02,	 4.3317605025425481e+00 
1.0065100000000000e+00,	 2.6791239999999999e-01,	 8.1354092673976124e-03,	 1.6703474180414614e+03,	 -5.0119556564890289e+01,	 3.8324708385612985e+02,	 8.9699124109648233e+02,	 3.9288768493179208e+02,	 4.2533763295367830e+00 
1.0070129999999999e+00,	 2.6790179999999997e-01,	 8.8701538974653542e-03,	 1.6591413954886152e+03,	 -7.2780389209559942e+01,	 4.0095379717543790e+02,	 1.0231879648313244e+03,	 4.0186126957761030e+02,	 4.1326125633704054e+00 
1.0075160000000001e+00,	 2.6789120000000000e-01,	 9.9416249668763338e-03,	 1.6444182953423870e+03,	 -9.2428339102258192e+01,	 4.2552433588025201e+02,	 1.2170592347920485e+03,	 4.1399127456393904e+02,	 3.9783781026495548e+00 
1.0080199999999999e+00,	 2.6788049999999997e-01,	 1.1358852520677780e-02,	 1.6270538167769728e+03,	 -1.0527816516911722e+02,	 4.5546368621503666e+02,	 1.4883948376127410e+03,	 4.2830768306975369e+02,	 3.8067406309418437e+00 
1.0085249999999999e+00,	 2.6786989999999999e-01,	 1.3103753862349403e-02,	 1.6081823525808891e+03,	 -1.1009135702244291e+02,	 4.8478441705117007e+02,	 1.8275712425586153e+03,	 4.4187894888791402e+02,	 3.6479361931845693e+00 
1.0090300000000001e+00,	 2.6785919999999996e-01,	 1.5125983212977921e-02,	 1.5892325389508142e+03,	 -1.0798939429433392e+02,	 5.1575953591943426e+02,	 2.2444028833792331e+03,	 4.5577722491183908e+02,	 3.4949032149268042e+00 
1.0095360000000000e+00,	 2.6784849999999999e-01,	 1.7371390410776268e-02,	 1.5713468596237906e+03,	 -1.0060871350411622e+02,	 5.4881540450084299e+02,	 2.7427789724360127e+03,	 4.7015616261441244e+02,	 3.3490242828222914e+00 
1.0100420000000001e+00,	 2.6783780000000001e-01,	 1.9789481698174599e-02,	 1.5550035301258904e+03,	 -9.2444475077901174e+01,	 5.7706180270330151e+02,	 3.2853881430316783e+03,	 4.8210335150063673e+02,	 3.2311515761500460e+00 
1.0105489999999999e+00,	 2.6782709999999998e-01,	 2.2288601663684508e-02,	 1.5406345416876322e+03,	 -8.6576189773250192e+01,	 6.0141268017679170e+02,	 3.8564290054768526e+03,	 4.9217015739247665e+02,	 3.1352270796603952e+00 
1.0110570000000001e+00,	 2.6781630000000001e-01,	 2.4794695756897966e-02,	 1.5284927234821309e+03,	 -8.1408198892147283e+01,	 6.2189814458690353e+02,	 4.4361679743304248e+03,	 5.0048217813575218e+02,	 3.0583688559917062e+00 
1.0115660000000000e+00,	 2.6780559999999998e-01,	 2.7240769151593996e-02,	 1.5185840622234182e+03,	 -7.5866580737448217e+01,	 6.3851145174942963e+02,	 5.0040079857030350e+03,	 5.0712302805041355e+02,	 2.9982428274016000e+00 
1.0120750000000001e+00,	 2.6779480000000000e-01,	 2.9473618338881950e-02,	 1.5108601712708066e+03,	 -6.9883150974978534e+01,	 6.5150511445791062e+02,	 5.5243504628860401e+03,	 5.1225699941444691e+02,	 2.9525716448481774e+00 
1.0125860000000000e+00,	 2.6778399999999997e-01,	 3.1520679778137023e-02,	 1.5046398349134852e+03,	 -6.4484635569713248e+01,	 6.6182414523766681e+02,	 6.0016148285305471e+03,	 5.1629781879127916e+02,	 2.9169618025084483e+00 
1.0130969999999999e+00,	 2.6777319999999999e-01,	 3.3360875057102259e-02,	 1.4996627092019626e+03,	 -5.9563253898563950e+01,	 6.7000247452105077e+02,	 6.4304857153935891e+03,	 5.1947803599652411e+02,	 2.8891406350157647e+00 
1.0136090000000000e+00,	 2.6776240000000001e-01,	 3.4987720789866443e-02,	 1.4957134193735915e+03,	 -5.5127246894352368e+01,	 6.7645878913597994e+02,	 6.8090564306557890e+03,	 5.2197494658125549e+02,	 2.8674345234997785e+00 
1.0141220000000000e+00,	 2.6775159999999998e-01,	 3.6400411616107811e-02,	 1.4925915740174628e+03,	 -5.1230569787531508e+01,	 6.8152387867636639e+02,	 7.1370264956421479e+03,	 5.2392548611775521e+02,	 2.8505399225941708e+00 
1.0146360000000001e+00,	 2.6774070000000000e-01,	 3.7611107086842559e-02,	 1.4901221559776081e+03,	 -4.7903031485540254e+01,	 6.8547549314159869e+02,	 7.4171658018981798e+03,	 5.2544220415453037e+02,	 2.8374042205568815e+00 
1.0151509999999999e+00,	 2.6772979999999996e-01,	 3.8652591625286073e-02,	 1.4881138175516139e+03,	 -4.5053745469650138e+01,	 6.8864254782184321e+02,	 7.6577715811091639e+03,	 5.2665463734863908e+02,	 2.8268918062675414e+00 
1.0156670000000001e+00,	 2.6771889999999998e-01,	 3.9550586540183924e-02,	 1.4864418542005919e+03,	 -4.2667872989124433e+01,	 6.9123986847965352e+02,	 7.8652339449770152e+03,	 5.2764688187200034e+02,	 2.8182751827461976e+00 
1.0161849999999999e+00,	 2.6770800000000000e-01,	 4.0324842169107832e-02,	 1.4850409379583493e+03,	 -4.0739020207276461e+01,	 6.9338966092116880e+02,	 8.0441465737326507e+03,	 5.2846674972208166e+02,	 2.8111506143727754e+00 
1.0167029999999999e+00,	 2.6769699999999996e-01,	 4.0987680085203537e-02,	 1.4838651054265838e+03,	 -3.9229459424625745e+01,	 6.9517434673045409e+02,	 8.1974167102644496e+03,	 5.2914641157770814e+02,	 2.8052416945892547e+00 
1.0172230000000000e+00,	 2.6768599999999998e-01,	 4.1565776068335017e-02,	 1.4828537788355775e+03,	 -3.7942312139687630e+01,	 6.9672497835461115e+02,	 8.3315769880424014e+03,	 5.2973623060811474e+02,	 2.8001466305009677e+00 
1.0177430000000001e+00,	 2.6767500000000000e-01,	 4.2064074509538224e-02,	 1.4819857135274565e+03,	 -3.6853835662953962e+01,	 6.9806383172030701e+02,	 8.4476597312675331e+03,	 5.3024496702422221e+02,	 2.7957717153179598e+00 
1.0182650000000000e+00,	 2.6766400000000001e-01,	 4.2493705876750429e-02,	 1.4812384838475077e+03,	 -3.5940751305107469e+01,	 6.9921778949628560e+02,	 8.5480492188362605e+03,	 5.3068305564274806e+02,	 2.7920138713592251e+00 
1.0187889999999999e+00,	 2.6765289999999997e-01,	 4.2862981930345052e-02,	 1.4805934754531556e+03,	 -3.5193072779183851e+01,	 7.0021144833490848e+02,	 8.6345861258424375e+03,	 5.3105999878314822e+02,	 2.7887840958047749e+00 
1.0193129999999999e+00,	 2.6764189999999999e-01,	 4.3184080589469889e-02,	 1.4800193948165665e+03,	 -3.4575486379191943e+01,	 7.0109342359296511e+02,	 8.7102277033627615e+03,	 5.3139435091480118e+02,	 2.7859219898499732e+00 
1.0198389999999999e+00,	 2.6763070000000000e-01,	 4.3455368250750616e-02,	 1.4795161275292251e+03,	 -3.4115323332554283e+01,	 7.0185253878068602e+02,	 8.7744367404377044e+03,	 5.3168195908123619e+02,	 2.7834485878843815e+00 
1.0203670000000000e+00,	 2.6761960000000001e-01,	 4.3703215095397180e-02,	 1.4790449853843102e+03,	 -3.3675131277589173e+01,	 7.0257487802320406e+02,	 8.8335636326359381e+03,	 5.3195548945756957e+02,	 2.7811129415989000e+00 
1.0208950000000001e+00,	 2.6760839999999997e-01,	 4.3917033256806820e-02,	 1.4786144176894750e+03,	 -3.3377222265864958e+01,	 7.0322439868583274e+02,	 8.8849883402808027e+03,	 5.3220132536310814e+02,	 2.7790067713623188e+00 
1.0214259999999999e+00,	 2.6759719999999998e-01,	 4.4115114738630209e-02,	 1.4782037333384847e+03,	 -3.3087941552222865e+01,	 7.0385827768671993e+02,	 8.9331077630695218e+03,	 5.3244113164546877e+02,	 2.7769717954074449e+00 
1.0219570000000000e+00,	 2.6758599999999999e-01,	 4.4289793979693279e-02,	 1.4778289120628988e+03,	 -3.2861650387757877e+01,	 7.0443499654472146e+02,	 8.9758279896467466e+03,	 5.3265921955911460e+02,	 2.7751218333411236e+00 
1.0224910000000000e+00,	 2.6757470000000000e-01,	 4.4444494753777500e-02,	 1.4774849646643811e+03,	 -3.2684201975410929e+01,	 7.0496152779515091e+02,	 9.0139122856654103e+03,	 5.3285825093743199e+02,	 2.7734325776837241e+00 
1.0230260000000000e+00,	 2.6756340000000001e-01,	 4.4586460863293161e-02,	 1.4771626061443690e+03,	 -3.2504262322199978e+01,	 7.0545983210252416e+02,	 9.0490966941829520e+03,	 5.3304654394766908e+02,	 2.7718408459384931e+00 
1.0235620000000001e+00,	 2.6755210000000001e-01,	 4.4713457868657477e-02,	 1.4768668835091635e+03,	 -3.2358319394062654e+01,	 7.0591317217595110e+02,	 9.0807031796486626e+03,	 5.3321778867243188e+02,	 2.7703901849586301e+00 
1.0241000000000000e+00,	 2.6754069999999996e-01,	 4.4826309901599096e-02,	 1.4765998764807991e+03,	 -3.2259571816897278e+01,	 7.0631681154512125e+02,	 9.1088273409361846e+03,	 5.3337021317905851e+02,	 2.7690939399979255e+00 
1.0246400000000000e+00,	 2.6752929999999997e-01,	 4.4931984268324773e-02,	 1.4763443468578039e+03,	 -3.2160076876169043e+01,	 7.0670511643806378e+02,	 9.1353201340926207e+03,	 5.3351680589971704e+02,	 2.7678501781291991e+00 
1.0251820000000000e+00,	 2.6751779999999997e-01,	 4.5029839006893987e-02,	 1.4761041859280426e+03,	 -3.2070612303640686e+01,	 7.0707340423168773e+02,	 9.1599865036265837e+03,	 5.3365580456430462e+02,	 2.7666756805643424e+00 
1.0257250000000000e+00,	 2.6750639999999998e-01,	 4.5123169125767915e-02,	 1.4758746406216649e+03,	 -3.1962799128509801e+01,	 7.0742819422341699e+02,	 9.1835775065519847e+03,	 5.3378967467767950e+02,	 2.7655475122295021e+00 
1.0262700000000000e+00,	 2.6749479999999998e-01,	 4.5201332737968995e-02,	 1.4756646263581983e+03,	 -3.1930985113848244e+01,	 7.0773710159943153e+02,	 9.2035026261901185e+03,	 5.3390620492946471e+02,	 2.7645493527183307e+00 
1.0268170000000001e+00,	 2.6748329999999998e-01,	 4.5286740552693952e-02,	 1.4754475374620620e+03,	 -3.1828288504738836e+01,	 7.0807303492879100e+02,	 9.2252693970684013e+03,	 5.3403290141769492e+02,	 2.7634829105574763e+00 
1.0273660000000000e+00,	 2.6747169999999998e-01,	 4.5359435492022621e-02,	 1.4752569786058602e+03,	 -3.1812008973836946e+01,	 7.0835460849035394e+02,	 9.2437523601964494e+03,	 5.3413907309246895e+02,	 2.7625762755327101e+00 
1.0279170000000000e+00,	 2.6745999999999998e-01,	 4.5430093961427637e-02,	 1.4750626299964433e+03,	 -3.1784990511132666e+01,	 7.0864471323509565e+02,	 9.2619434278854897e+03,	 5.3424843951386572e+02,	 2.7616459614870905e+00 
1.0284690000000001e+00,	 2.6744839999999998e-01,	 4.5503295689243287e-02,	 1.4748718417656564e+03,	 -3.1731717465255290e+01,	 7.0893890347236436e+02,	 9.2807184857616576e+03,	 5.3435932326384648e+02,	 2.7607137938508965e+00 
1.0290239999999999e+00,	 2.6743659999999997e-01,	 4.5566502687331353e-02,	 1.4746913522677537e+03,	 -3.1719036799255086e+01,	 7.0920739973483751e+02,	 9.2971297660765940e+03,	 5.3446050257461911e+02,	 2.7598530238042600e+00 
1.0295810000000001e+00,	 2.6742489999999997e-01,	 4.5638372872830776e-02,	 1.4745049065994181e+03,	 -3.1639483071690726e+01,	 7.0950075364122949e+02,	 9.3156454451899845e+03,	 5.3457102727201459e+02,	 2.7589305210185864e+00 
1.0301400000000001e+00,	 2.6741310000000001e-01,	 4.5698074170722754e-02,	 1.4743366700058027e+03,	 -3.1638124497726302e+01,	 7.0974934496974038e+02,	 9.3310998356617711e+03,	 5.3466466923285873e+02,	 2.7581326776076223e+00 
1.0307010000000001e+00,	 2.6740120000000001e-01,	 4.5754909126696053e-02,	 1.4741774725297482e+03,	 -3.1655615691291111e+01,	 7.0998179550233488e+02,	 9.3457648140601141e+03,	 5.3475221627580981e+02,	 2.7573841967744825e+00 
1.0312640000000000e+00,	 2.6738930000000000e-01,	 4.5816949132094970e-02,	 1.4740063142145632e+03,	 -3.1613095534963065e+01,	 7.1024478001009118e+02,	 9.3619033859386982e+03,	 5.3485124594729621e+02,	 2.7565520138956461e+00 
1.0318290000000001e+00,	 2.6737739999999999e-01,	 4.5878185814516602e-02,	 1.4738362870237909e+03,	 -3.1568467704568022e+01,	 7.1050650549227441e+02,	 9.3778705219087151e+03,	 5.3494978331814264e+02,	 2.7557247066454647e+00 
1.0323970000000000e+00,	 2.6736539999999998e-01,	 4.5931819222068529e-02,	 1.4736863465355982e+03,	 -3.1599346949381363e+01,	 7.1072546142700696e+02,	 9.3917269677452878e+03,	 5.3503220438419919e+02,	 2.7550212457748500e+00 
1.0329660000000001e+00,	 2.6735330000000002e-01,	 4.5983871493006381e-02,	 1.4735390466037445e+03,	 -3.1619674116032222e+01,	 7.1093979861847436e+02,	 9.4052056717573396e+03,	 5.3511287453153523e+02,	 2.7543315256827436e+00 
1.0335390000000000e+00,	 2.6734120000000000e-01,	 4.6044543920194581e-02,	 1.4733717231288706e+03,	 -3.1570019340662899e+01,	 7.1119999768177729e+02,	 9.4210619496763829e+03,	 5.3521078938415280e+02,	 2.7535130827763044e+00 
1.0341130000000001e+00,	 2.6732909999999999e-01,	 4.6102659692621603e-02,	 1.4732035968939595e+03,	 -3.1535493704301466e+01,	 7.1145662150324506e+02,	 9.4363565889111687e+03,	 5.3530734130405312e+02,	 2.7527010559591996e+00 
1.0346900000000001e+00,	 2.6731689999999997e-01,	 4.6158818133250831e-02,	 1.4730421008640110e+03,	 -3.1524684511929625e+01,	 7.1169809456662369e+02,	 9.4510578396640412e+03,	 5.3539817701587936e+02,	 2.7519320322104703e+00 
1.0352690000000000e+00,	 2.6730470000000001e-01,	 4.6217428051416730e-02,	 1.4728789917676006e+03,	 -3.1509550118386876e+01,	 7.1194463339188565e+02,	 9.4663363621906465e+03,	 5.3549090243512535e+02,	 2.7511503763906697e+00 
1.0358510000000001e+00,	 2.6729239999999999e-01,	 4.6270391247309001e-02,	 1.4727223980412559e+03,	 -3.1544057673553418e+01,	 7.1217239040399045e+02,	 9.4802162089394242e+03,	 5.3557654958354021e+02,	 2.7504194863876590e+00 
1.0364350000000000e+00,	 2.6727999999999996e-01,	 4.6323104391049516e-02,	 1.4725635259262810e+03,	 -3.1567545301127062e+01,	 7.1240461868160151e+02,	 9.4941113354276822e+03,	 5.3566386403415538e+02,	 2.7496755798646069e+00 
1.0370220000000001e+00,	 2.6726759999999999e-01,	 4.6385116569289744e-02,	 1.4723910347239489e+03,	 -3.1516045027349222e+01,	 7.1267362333977758e+02,	 9.5104107717697661e+03,	 5.3576498807990663e+02,	 2.7488326489148363e+00 
1.0376120000000000e+00,	 2.6725519999999997e-01,	 4.6447770239760391e-02,	 1.4722188033141047e+03,	 -3.1470109407207303e+01,	 7.1294161020190518e+02,	 9.5268377817133623e+03,	 5.3586571054136164e+02,	 2.7479928049835065e+00 
1.0382039999999999e+00,	 2.6724270000000000e-01,	 4.6501602817713594e-02,	 1.4720578117988734e+03,	 -3.1503917073130410e+01,	 7.1317571563413253e+02,	 9.5410112177306582e+03,	 5.3595368322761703e+02,	 2.7472427773402361e+00 
1.0387980000000001e+00,	 2.6723009999999997e-01,	 4.6556410853475796e-02,	 1.4718983027427889e+03,	 -3.1515130446175061e+01,	 7.1340954599083068e+02,	 9.5553884269004702e+03,	 5.3604153813310916e+02,	 2.7464954634330829e+00 
1.0393960000000000e+00,	 2.6721750000000000e-01,	 4.6616954265481785e-02,	 1.4717287791933732e+03,	 -3.1500008269399345e+01,	 7.1366870434609382e+02,	 9.5712902268096368e+03,	 5.3613889247200621e+02,	 2.7456800187302677e+00 
1.0399959999999999e+00,	 2.6720479999999996e-01,	 4.6670859931190189e-02,	 1.4715716852949331e+03,	 -3.1536094241776812e+01,	 7.1389919615706503e+02,	 9.5854528095907208e+03,	 5.3622546320670995e+02,	 2.7449452890740629e+00 
1.0405990000000001e+00,	 2.6719199999999999e-01,	 4.6726569214473324e-02,	 1.4714110525693486e+03,	 -3.1548478797593678e+01,	 7.1413830145457234e+02,	 9.6001088858968869e+03,	 5.3631525432549381e+02,	 2.7441867759978567e+00 
1.0412049999999999e+00,	 2.6717920000000001e-01,	 4.6790087375606859e-02,	 1.4712322690724959e+03,	 -3.1487209678359676e+01,	 7.1441768796906058e+02,	 9.6169197538370081e+03,	 5.3642015319244729e+02,	 2.7433144807567449e+00 
1.0418140000000000e+00,	 2.6716639999999997e-01,	 4.6850877925304818e-02,	 1.4710601200162407e+03,	 -3.1477080190870549e+01,	 7.1468069425061162e+02,	 9.6329592144431153e+03,	 5.3651888317219732e+02,	 2.7424884636903109e+00 
1.0424260000000001e+00,	 2.6715339999999999e-01,	 4.6902377448292405e-02,	 1.4709104016185709e+03,	 -3.1521913111978588e+01,	 7.1489459530967247e+02,	 9.6464342517741989e+03,	 5.3659916613812629e+02,	 2.7418009871025046e+00 
1.0430400000000000e+00,	 2.6714040000000000e-01,	 4.6962867673033912e-02,	 1.4707400294499357e+03,	 -3.1492431155841281e+01,	 7.1515526927013275e+02,	 9.6623972470039771e+03,	 5.3669698802829510e+02,	 2.7409826992089865e+00 
1.0436580000000000e+00,	 2.6712740000000001e-01,	 4.7026529563124440e-02,	 1.4705623775595300e+03,	 -3.1431411347619061e+01,	 7.1543315325859271e+02,	 9.6792549470091981e+03,	 5.3680124861426066e+02,	 2.7401170290475010e+00 
1.0442790000000000e+00,	 2.6711429999999997e-01,	 4.7083038127601021e-02,	 1.4704036911496971e+03,	 -3.1431501847680003e+01,	 7.1566997128040566e+02,	 9.6940936596268966e+03,	 5.3689008548952177e+02,	 2.7393681389432811e+00 
1.0449029999999999e+00,	 2.6710109999999998e-01,	 4.7135875226350668e-02,	 1.4702571028222633e+03,	 -3.1466644553498902e+01,	 7.1588335511357741e+02,	 9.7078661074101074e+03,	 5.3697011897614345e+02,	 2.7386883162157525e+00 
1.0455300000000001e+00,	 2.6708779999999999e-01,	 4.7189525694371778e-02,	 1.4701092603937716e+03,	 -3.1474105844647482e+01,	 7.1610374694801772e+02,	 9.7219077512274635e+03,	 5.3705276842020794e+02,	 2.7379919229006080e+00 
1.0461600000000000e+00,	 2.6707449999999999e-01,	 4.7246382129963252e-02,	 1.4699526956054924e+03,	 -3.1447935192438202e+01,	 7.1634491840761757e+02,	 9.7368993363880672e+03,	 5.3714319588777096e+02,	 2.7372385323902084e+00 
1.0467930000000001e+00,	 2.6706110000000000e-01,	 4.7301562181915842e-02,	 1.4697996535709294e+03,	 -3.1418833213827615e+01,	 7.1657961061802291e+02,	 9.7514650410573231e+03,	 5.3723117934171739e+02,	 2.7365042843185723e+00 
1.0474300000000001e+00,	 2.6704770000000000e-01,	 4.7360017168959032e-02,	 1.4696417222048817e+03,	 -3.1358996453727354e+01,	 7.1682626054221464e+02,	 9.7668764891662358e+03,	 5.3732363008075026e+02,	 2.7357372142949052e+00 
1.0480700000000001e+00,	 2.6703420000000000e-01,	 4.7411831352087000e-02,	 1.4695017347682638e+03,	 -3.1349994809332721e+01,	 7.1703543401429465e+02,	 9.7804150726427106e+03,	 5.3740202121779828e+02,	 2.7350773635021781e+00 
1.0487139999999999e+00,	 2.6702060000000000e-01,	 4.7460460094541718e-02,	 1.4693686433992461e+03,	 -3.1364737796051163e+01,	 7.1723054603351216e+02,	 9.7931105915765875e+03,	 5.3747513229193646e+02,	 2.7344583376915224e+00 
1.0493610000000000e+00,	 2.6700689999999999e-01,	 4.7505218342328723e-02,	 1.4692441566139305e+03,	 -3.1403782005979544e+01,	 7.1741063861845214e+02,	 9.8048074352632339e+03,	 5.3754260655877044e+02,	 2.7338851176831702e+00 
1.0500110000000000e+00,	 2.6699309999999998e-01,	 4.7552018047829117e-02,	 1.4691224453440284e+03,	 -3.1405156887312856e+01,	 7.1759420506028380e+02,	 9.8169778917476870e+03,	 5.3761137364072260e+02,	 2.7333091339726905e+00 
1.0506650000000000e+00,	 2.6697929999999997e-01,	 4.7603227094759691e-02,	 1.4689893957905017e+03,	 -3.1363396259652610e+01,	 7.1780377801226359e+02,	 9.8304199827438588e+03,	 5.3768987244741902e+02,	 2.7326610416846120e+00 
1.0513220000000001e+00,	 2.6696539999999996e-01,	 4.7651506149770803e-02,	 1.4688592127350812e+03,	 -3.1325077782272764e+01,	 7.1800462832439393e+02,	 9.8431434281694328e+03,	 5.3776509330058298e+02,	 2.7320352591832524e+00 
1.0519829999999999e+00,	 2.6695150000000001e-01,	 4.7700083966513207e-02,	 1.4687323584041451e+03,	 -3.1295265988191943e+01,	 7.1819986026266963e+02,	 9.8558570831386332e+03,	 5.3783819992237341e+02,	 2.7314269150047767e+00 
1.0526480000000000e+00,	 2.6693739999999999e-01,	 4.7740399134737987e-02,	 1.4686245709875043e+03,	 -3.1318564484130590e+01,	 7.1835482445445223e+02,	 9.8663154297826513e+03,	 5.3789622079597382e+02,	 2.7309328676868883e+00 
1.0533159999999999e+00,	 2.6692329999999997e-01,	 4.7786054444930892e-02,	 1.4685071084719693e+03,	 -3.1297590675844127e+01,	 7.1853487477603903e+02,	 9.8782261121777410e+03,	 5.3796362642646125e+02,	 2.7303715600003269e+00 
1.0539879999999999e+00,	 2.6690910000000001e-01,	 4.7828121894732067e-02,	 1.4683967027965193e+03,	 -3.1292696522315296e+01,	 7.1870099068680975e+02,	 9.8892079288773584e+03,	 5.3802580792699280e+02,	 2.7298506491315266e+00 
1.0546640000000000e+00,	 2.6689479999999999e-01,	 4.7868227458440007e-02,	 1.4682920339505895e+03,	 -3.1301069970217270e+01,	 7.1885635042353078e+02,	 9.8996398949063605e+03,	 5.3808395660927783e+02,	 2.7293614989559143e+00 
1.0553440000000001e+00,	 2.6688039999999996e-01,	 4.7909461801017197e-02,	 1.4681817855130876e+03,	 -3.1288667179459502e+01,	 7.1902347562508771e+02,	 9.9104711057297882e+03,	 5.3814650190327586e+02,	 2.7288389713185315e+00 
1.0560270000000000e+00,	 2.6686599999999999e-01,	 4.7955091091504407e-02,	 1.4680678632964141e+03,	 -3.1237768446606587e+01,	 7.1920334243208174e+02,	 9.9223914124311323e+03,	 5.3821380752237496e+02,	 2.7282840873422560e+00 
1.0567150000000001e+00,	 2.6685149999999996e-01,	 4.7991821106469386e-02,	 1.4679855446557463e+03,	 -3.1202999344456849e+01,	 7.1935228418099746e+02,	 9.9320476510316585e+03,	 5.3826953470773151e+02,	 2.7278473565349368e+00 
1.0000000000000000e+00,	 2.6872979999999996e-01,	 2.7968941849125718e-02,	 1.5887055656451284e+03,	 4.1980130394319451e+02,	 4.5997576631772557e+02,	 3.7011861220665337e+03,	 4.3042398338204782e+02,	 3.8177105013099437e+00 
1.0004999999999999e+00,	 2.6871940000000000e-01,	 2.5447743561720016e-02,	 1.5983089955261576e+03,	 3.8911702959009341e+02,	 4.5673017062535905e+02,	 3.3437894123489359e+03,	 4.2890275624021689e+02,	 3.8353531290950205e+00 
1.0009999999999999e+00,	 2.6870909999999998e-01,	 2.2487268494259180e-02,	 1.6126169353716709e+03,	 3.4960096283718821e+02,	 4.4967399808367549e+02,	 2.9091386379200144e+03,	 4.2557673113106404e+02,	 3.8772726793578736e+00 
1.0014989999999999e+00,	 2.6869870000000001e-01,	 1.9332919146133231e-02,	 1.6272679134995997e+03,	 3.0249230261967296e+02,	 4.4024551253595149e+02,	 2.4486251732532055e+03,	 4.2109148109704876e+02,	 3.9306049026727861e+00 
1.0019990000000001e+00,	 2.6868839999999999e-01,	 1.6706593081869552e-02,	 1.6398908835938946e+03,	 2.5455030583412005e+02,	 4.2992815905642738e+02,	 2.0663968127275375e+03,	 4.1612799326711445e+02,	 3.9880264454185324e+00 
1.0024999999999999e+00,	 2.6867799999999997e-01,	 1.4689764026967665e-02,	 1.6502047133072624e+03,	 2.1070136896531204e+02,	 4.1976076547431637e+02,	 1.7739713437471673e+03,	 4.1117803634891720e+02,	 4.0459401205776544e+00 
1.0029999999999999e+00,	 2.6866770000000001e-01,	 1.3186360444687815e-02,	 1.6583935810779847e+03,	 1.7178324797273831e+02,	 4.1047724525302857e+02,	 1.5571984666477265e+03,	 4.0660576329899055e+02,	 4.1004506132742931e+00 
1.0035000000000001e+00,	 2.6865729999999999e-01,	 1.2084289868098683e-02,	 1.6646345559743299e+03,	 1.3679617871537610e+02,	 4.0250373267715821e+02,	 1.3993327030520636e+03,	 4.0263724212008680e+02,	 4.1482648278648124e+00 
1.0040009999999999e+00,	 2.6864689999999997e-01,	 1.1311531370042351e-02,	 1.6687677017752353e+03,	 1.0398115917069690e+02,	 3.9717004860078180e+02,	 1.2924919050554395e+03,	 3.9996061876368123e+02,	 4.1804218355685485e+00 
1.0045020000000000e+00,	 2.6863660000000000e-01,	 1.0832523635320220e-02,	 1.6706571293914897e+03,	 7.1198372942344662e+01,	 3.9449892930696637e+02,	 1.2294345442031520e+03,	 3.9861340634511083e+02,	 4.1949757449330232e+00 
1.0050040000000000e+00,	 2.6862619999999998e-01,	 1.0644396716724793e-02,	 1.6698249709778240e+03,	 3.4368437332739987e+01,	 3.9576631207036985e+02,	 1.2119642622445976e+03,	 3.9925319345286670e+02,	 4.1832567592000283e+00 
1.0055050000000001e+00,	 2.6861580000000002e-01,	 1.0711220245844585e-02,	 1.6661307155212310e+03,	 -6.0351606307446426e+00,	 4.0103773381749465e+02,	 1.2358168841783393e+03,	 4.0190333068369910e+02,	 4.1456278630860899e+00 
1.0060070000000001e+00,	 2.6860539999999999e-01,	 1.1030436726367145e-02,	 1.6595154839646455e+03,	 -4.7600049805759582e+01,	 4.0993067983009030e+02,	 1.3008675128438863e+03,	 4.0633496792372546e+02,	 4.0857866863101622e+00 
1.0065100000000000e+00,	 2.6859499999999997e-01,	 1.1582574064880578e-02,	 1.6502196450056558e+03,	 -9.0119590054879538e+01,	 4.2171273042220798e+02,	 1.4052439846203490e+03,	 4.1213295433789409e+02,	 4.0100616584240969e+00 
1.0070129999999999e+00,	 2.6858460000000001e-01,	 1.2349246743278225e-02,	 1.6389310022231946e+03,	 -1.2987939358918015e+02,	 4.3524940491129530e+02,	 1.5463528232068325e+03,	 4.1869529398881753e+02,	 3.9266483506495748e+00 
1.0075160000000001e+00,	 2.6857409999999998e-01,	 1.3308558026743977e-02,	 1.6265722133620095e+03,	 -1.6444661674706254e+02,	 4.4958138480533910e+02,	 1.7213503044318325e+03,	 4.2553290372940648e+02,	 3.8419211535640603e+00 
1.0080199999999999e+00,	 2.6856370000000002e-01,	 1.4440109609561354e-02,	 1.6140245116856017e+03,	 -1.9226921322691280e+02,	 4.6422043202915506e+02,	 1.9285223604593557e+03,	 4.3240540336259619e+02,	 3.7590559823273111e+00 
1.0085249999999999e+00,	 2.6855329999999999e-01,	 1.5724258718030782e-02,	 1.6020520079626267e+03,	 -2.1285314680446965e+02,	 4.8071389974515614e+02,	 2.1746371260265664e+03,	 4.4001990861259048e+02,	 3.6728571899533624e+00 
1.0090300000000001e+00,	 2.6854279999999997e-01,	 1.7140267159076617e-02,	 1.5910103472702112e+03,	 -2.2696552907278104e+02,	 4.9622348322000744e+02,	 2.4469485462267944e+03,	 4.4706188302612583e+02,	 3.5948439202611056e+00 
1.0095360000000000e+00,	 2.6853230000000000e-01,	 1.8672990895439084e-02,	 1.5809600982868947e+03,	 -2.3599553730941545e+02,	 5.0979129167508586e+02,	 2.7386481243679455e+03,	 4.5313247981603263e+02,	 3.5276151528019528e+00 
1.0100420000000001e+00,	 2.6852179999999998e-01,	 2.0304537643411943e-02,	 1.5719451548243414e+03,	 -2.3887271755002672e+02,	 5.2413890794176348e+02,	 3.0617479909842223e+03,	 4.5946473758763585e+02,	 3.4605291433075842e+00 
1.0105489999999999e+00,	 2.6851130000000001e-01,	 2.2034828279137768e-02,	 1.5637999362202863e+03,	 -2.3381011569155308e+02,	 5.3889995427455881e+02,	 3.4162351317182033e+03,	 4.6588964730446691e+02,	 3.3938987305710917e+00 
1.0110570000000001e+00,	 2.6850079999999998e-01,	 2.3835932728935135e-02,	 1.5562685243490096e+03,	 -2.2230349709680485e+02,	 5.5415515364416410e+02,	 3.8000863481493216e+03,	 4.7243783956875495e+02,	 3.3275609364881071e+00 
1.0115660000000000e+00,	 2.6849030000000002e-01,	 2.5592834145256250e-02,	 1.5492849224376032e+03,	 -2.0668830941569200e+02,	 5.6990187911643750e+02,	 4.1961249186510149e+03,	 4.7910315528793609e+02,	 3.2623687073423482e+00 
1.0120750000000001e+00,	 2.6847969999999999e-01,	 2.7436582994546127e-02,	 1.5424957287875657e+03,	 -1.8854553800995114e+02,	 5.8544910679387021e+02,	 4.6211398066187776e+03,	 4.8559427784079372e+02,	 3.2001537495527108e+00 
1.0125860000000000e+00,	 2.6846919999999996e-01,	 2.9391229746365401e-02,	 1.5360490774100408e+03,	 -1.6950907508168973e+02,	 5.9994572032611825e+02,	 5.0729391704337686e+03,	 4.9156954262973085e+02,	 3.1437541137943334e+00 
1.0130969999999999e+00,	 2.6845859999999999e-01,	 3.1253567666369275e-02,	 1.5302843970226345e+03,	 -1.5088396666494282e+02,	 6.1304861272625942e+02,	 5.5121934625760096e+03,	 4.9690852039496673e+02,	 3.0945432003591291e+00 
1.0136090000000000e+00,	 2.6844799999999996e-01,	 3.3023396354016264e-02,	 1.5251167367423971e+03,	 -1.3339432151876539e+02,	 6.2453230994266198e+02,	 5.9334404211684023e+03,	 5.0154100082469841e+02,	 3.0524708571964276e+00 
1.0141220000000000e+00,	 2.6843729999999999e-01,	 3.4683533628670687e-02,	 1.5205606016792076e+03,	 -1.1750998730260372e+02,	 6.3432940908679711e+02,	 6.3294813153552286e+03,	 5.0545955419550910e+02,	 3.0172433317532183e+00 
1.0146360000000001e+00,	 2.6842669999999996e-01,	 3.6219612824546749e-02,	 1.5166074489900984e+03,	 -1.0363762347002950e+02,	 6.4251701191498285e+02,	 6.6951200998951763e+03,	 5.0871120317397811e+02,	 2.9882266448749957e+00 