TITLE = "Final State"
VARIABLES = "X", "Y", "rho", "u", "v", "T", "p", "c", "M"
ZONE I=82, J=25, DATAPACKING=POINT, STRANDID=14000, SOLUTIONTIME=0.000338
8.4940000000000004e-01,	 2.6635680000000000e-01,	 2.7626620980752692e-02,	 1.6243784568650851e+03,	 3.7587639338380319e+02,	 4.6199405817581714e+02,	 3.6719274936685042e+03,	 4.3136726172532610e+02,	 3.8651513253417464e+00 
8.5141040000000001e-01,	 2.6661879999999999e-01,	 2.7690661108903548e-02,	 1.6244359472368492e+03,	 3.7655999596259562e+02,	 4.6175574342617722e+02,	 3.6785407213503927e+03,	 4.3125598925351892e+02,	 3.8666361388516108e+00 
8.5342070000000003e-01,	 2.6688079999999997e-01,	 2.7694385443533674e-02,	 1.6248822541647507e+03,	 3.7642233090598836e+02,	 4.6105649756360344e+02,	 3.6734642409527919e+03,	 4.3092933580167079e+02,	 3.8705039586919425e+00 
8.5538060000000005e-01,	 2.6713609999999999e-01,	 2.7672439191286237e-02,	 1.6254029366914085e+03,	 3.7612817130062012e+02,	 4.6045068965199516e+02,	 3.6657302807834080e+03,	 4.3064613166703333e+02,	 3.8740731386200138e+00 
8.5734049999999995e-01,	 2.6739140000000000e-01,	 2.7650652592347155e-02,	 1.6257960240467919e+03,	 3.7599962955110675e+02,	 4.6000985167306374e+02,	 3.6593374128617133e+03,	 4.3043993083375256e+02,	 3.8767514185010632e+00 
8.5925130000000005e-01,	 2.6764019999999999e-01,	 2.7635800906116448e-02,	 1.6260409167439698e+03,	 3.7609570700420011e+02,	 4.5975932366102973e+02,	 3.6553800562331212e+03,	 4.3032270296764102e+02,	 3.8784122820526217e+00 
8.6116210000000004e-01,	 2.6788899999999999e-01,	 2.7628742251852044e-02,	 1.6261621694013947e+03,	 3.7637247831882325e+02,	 4.5967683393073401e+02,	 3.6537907314164786e+03,	 4.3028409712079315e+02,	 3.8791797987309993e+00 
8.6302509999999999e-01,	 2.6813139999999996e-01,	 2.7623762922252763e-02,	 1.6261937751998848e+03,	 3.7671879181148154e+02,	 4.5971829815967089e+02,	 3.6534617584621351e+03,	 4.3030350314114833e+02,	 3.8792579632133664e+00 
8.6488799999999999e-01,	 2.6837390000000000e-01,	 2.7620377964715052e-02,	 1.6261601411108832e+03,	 3.7710114347427719e+02,	 4.5985380922256491e+02,	 3.6540908691424902e+03,	 4.3036691870332260e+02,	 3.8788108117999731e+00 
8.6670449999999999e-01,	 2.6861019999999997e-01,	 2.7616949827849985e-02,	 1.6260721358003480e+03,	 3.7751286387822870e+02,	 4.6006450639430284e+02,	 3.6553113715103873e+03,	 4.3046550080318400e+02,	 3.8779395454987817e+00 
8.6852099999999999e-01,	 2.6884649999999999e-01,	 2.7614318332683872e-02,	 1.6259736348668127e+03,	 3.7794884646676007e+02,	 4.6033168623502269e+02,	 3.6570856722793446e+03,	 4.3059047785432648e+02,	 3.8768202774186955e+00 
8.7029219999999996e-01,	 2.6907680000000000e-01,	 2.7611957504229376e-02,	 1.6258545794232982e+03,	 3.7840200308043626e+02,	 4.6063927567211783e+02,	 3.6592164397810348e+03,	 4.3073431214751207e+02,	 3.8754948215832941e+00 
8.7206329999999999e-01,	 2.6930709999999997e-01,	 2.7610434600750661e-02,	 1.6256673268081181e+03,	 3.7886337363420841e+02,	 4.6092701870948008e+02,	 3.6613002611349780e+03,	 4.3086882244291991e+02,	 3.8741045715958493e+00 
8.7379050000000003e-01,	 2.6953159999999998e-01,	 2.7607485172859304e-02,	 1.6254620068137369e+03,	 3.7929325485481229e+02,	 4.6124718440449237e+02,	 3.6634520637300393e+03,	 4.3101843991311051e+02,	 3.8725223636471933e+00 
8.7551760000000001e-01,	 2.6975610000000000e-01,	 2.7602968909254892e-02,	 1.6252753387356452e+03,	 3.7970890932530608e+02,	 4.6163907161887039e+02,	 3.6659648174435424e+03,	 4.3120150309379636e+02,	 3.8706759240951958e+00 
8.7720189999999998e-01,	 2.6997489999999996e-01,	 2.7597741342682912e-02,	 1.6250889209993502e+03,	 3.8012427176107144e+02,	 4.6200969903748251e+02,	 3.6682132079223607e+03,	 4.3137456365750944e+02,	 3.8689214499360052e+00 
8.7888619999999995e-01,	 2.7019369999999998e-01,	 2.7593313052946152e-02,	 1.6248998584675689e+03,	 3.8054558446689555e+02,	 4.6236948780649919e+02,	 3.6704807647309917e+03,	 4.3154249684074057e+02,	 3.8672117849329748e+00 
8.8052880000000000e-01,	 2.7040700000000001e-01,	 2.7589224988939641e-02,	 1.6247107451965562e+03,	 3.8096817092944821e+02,	 4.6272419798030813e+02,	 3.6727523870511855e+03,	 4.3170799561571818e+02,	 3.8655260920519461e+00 
8.8217140000000005e-01,	 2.7062029999999998e-01,	 2.7585634829172950e-02,	 1.6245252771994096e+03,	 3.8138833866230095e+02,	 4.6307314851719525e+02,	 3.6750437985233521e+03,	 4.3187074520508384e+02,	 3.8638735113600515e+00 
8.8377340000000004e-01,	 2.7082819999999996e-01,	 2.7581750041050582e-02,	 1.6243455789817021e+03,	 3.8180036435356260e+02,	 4.6341158646839199e+02,	 3.6772117899825198e+03,	 4.3202853318611147e+02,	 3.8622755024072757e+00 
8.8537540000000003e-01,	 2.7103610000000000e-01,	 2.7578490130403283e-02,	 1.6241728264389649e+03,	 3.8220793106341705e+02,	 4.6373943487604282e+02,	 3.6793783757148453e+03,	 4.3218132913281892e+02,	 3.8607368058194025e+00 
8.8693800000000000e-01,	 2.7123890000000000e-01,	 2.7575529523504935e-02,	 1.6240080537297758e+03,	 3.8260649269393076e+02,	 4.6405392966283375e+02,	 3.6814783680137762e+03,	 4.3232785078754262e+02,	 3.8592686579655284e+00 
8.8850059999999997e-01,	 2.7144160000000001e-01,	 2.7572399405525850e-02,	 1.6238495340490138e+03,	 3.8299919982823826e+02,	 4.6435856353597717e+02,	 3.6834769579218355e+03,	 4.3246973095709706e+02,	 3.8578541250710545e+00 
8.9002470000000000e-01,	 2.7163919999999997e-01,	 2.7569690005660341e-02,	 1.6236989025902697e+03,	 3.8338359081256863e+02,	 4.6464989855759626e+02,	 3.6854257595855147e+03,	 4.3260537379073287e+02,	 3.8565096938932784e+00 
8.9154889999999998e-01,	 2.7183689999999999e-01,	 2.7567887889444885e-02,	 1.6235563386090307e+03,	 3.8376328675385344e+02,	 4.6492955545954220e+02,	 3.6874028454829322e+03,	 4.3273553940666903e+02,	 3.8552307797199292e+00 
8.9303569999999999e-01,	 2.7202959999999998e-01,	 2.7565475474659942e-02,	 1.6234198526266018e+03,	 3.8413647192692036e+02,	 4.6519677235903856e+02,	 3.6891993062139818e+03,	 4.3285987828494217e+02,	 3.8540149376609687e+00 
8.9452259999999995e-01,	 2.7222229999999997e-01,	 2.7563983914641293e-02,	 1.6232904439948375e+03,	 3.8450517456473960e+02,	 4.6545325373118942e+02,	 3.6910335760620956e+03,	 4.3297918822414118e+02,	 3.8528582780652245e+00 
8.9597309999999997e-01,	 2.7241029999999999e-01,	 2.7562775049573926e-02,	 1.6231684875247179e+03,	 3.8486636779181913e+02,	 4.6569730622725348e+02,	 3.6928069453434168e+03,	 4.3309268598454145e+02,	 3.8517668975480595e+00 
8.9742359999999999e-01,	 2.7259820000000001e-01,	 2.7561574645247344e-02,	 1.6230516274890708e+03,	 3.8522378366232442e+02,	 4.6593203592326057e+02,	 3.6945073558902832e+03,	 4.3320182007901872e+02,	 3.8507245093017310e+00 
8.9883880000000005e-01,	 2.7278150000000001e-01,	 2.7560563824241477e-02,	 1.6229418267544611e+03,	 3.8557501105589625e+02,	 4.6615553156196688e+02,	 3.6961439551576273e+03,	 4.3330570551983817e+02,	 3.8497420211132209e+00 
9.0025409999999995e-01,	 2.7296470000000000e-01,	 2.7559922602794031e-02,	 1.6228358241326825e+03,	 3.8592271280563324e+02,	 4.6637087131322897e+02,	 3.6977653486846002e+03,	 4.3340577637940891e+02,	 3.8488007084429854e+00 
9.0163490000000002e-01,	 2.7314349999999998e-01,	 2.7560149523743936e-02,	 1.6227368056490943e+03,	 3.8626273454246331e+02,	 4.6657571598224047e+02,	 3.6994199826191862e+03,	 4.3350094861418830e+02,	 3.8479150644063149e+00 
9.0301580000000004e-01,	 2.7332220000000002e-01,	 2.7559296787820733e-02,	 1.6226420762788030e+03,	 3.8659968477835656e+02,	 4.6677345833870106e+02,	 3.7008733449061128e+03,	 4.3359280124984269e+02,	 3.8470674159935139e+00 
9.0436329999999998e-01,	 2.7349649999999998e-01,	 2.7559739070640597e-02,	 1.6225511081930729e+03,	 3.8692936652765201e+02,	 4.6696252936371616e+02,	 3.7024318360041721e+03,	 4.3368060780129730e+02,	 3.8462607281595922e+00 
9.0571080000000004e-01,	 2.7367089999999999e-01,	 2.7560130880957025e-02,	 1.6224669835984701e+03,	 3.8725475088615349e+02,	 4.6714399665168753e+02,	 3.7039233028618883e+03,	 4.3376486638142933e+02,	 3.8454990279970298e+00 
9.0702579999999999e-01,	 2.7384090000000000e-01,	 2.7560086017097741e-02,	 1.6223845952687900e+03,	 3.8757345856317329e+02,	 4.6731837733357884e+02,	 3.7052999126553846e+03,	 4.3384581910273732e+02,	 3.8447673928787096e+00 
9.0834079999999995e-01,	 2.7401100000000000e-01,	 2.7561097522579008e-02,	 1.6223083373461332e+03,	 3.8788798767405206e+02,	 4.6748589906941140e+02,	 3.7067642083233741e+03,	 4.3392357347324213e+02,	 3.8440760151316171e+00 
9.0962430000000005e-01,	 2.7417690000000000e-01,	 2.7561168228721619e-02,	 1.6222348483300129e+03,	 3.8819604551063844e+02,	 4.6764678127617628e+02,	 3.7080493796466308e+03,	 4.3399823302663873e+02,	 3.8434151714004607e+00 
9.1090780000000005e-01,	 2.7434280000000000e-01,	 2.7561964718551352e-02,	 1.6221652991943561e+03,	 3.8850064492343449e+02,	 4.6780219617256137e+02,	 3.7093888847806834e+03,	 4.3407034320689104e+02,	 3.8427842339925480e+00 
9.1216059999999999e-01,	 2.7450469999999999e-01,	 2.7562654830115725e-02,	 1.6220992077184542e+03,	 3.8879867654916688e+02,	 4.6795131580400522e+02,	 3.7106642207129748e+03,	 4.3413952121913684e+02,	 3.8421838095684757e+00 
9.1341340000000004e-01,	 2.7466649999999998e-01,	 2.7562994090928408e-02,	 1.6220353414748643e+03,	 3.8909390544653206e+02,	 4.6809629154498225e+02,	 3.7118595072155208e+03,	 4.3420676627495487e+02,	 3.8416042844257277e+00 
9.1463640000000002e-01,	 2.7482439999999997e-01,	 2.7563696945808867e-02,	 1.6219746907864942e+03,	 3.8938268955483767e+02,	 4.6823573351757176e+02,	 3.7130599195522473e+03,	 4.3427143474240597e+02,	 3.8410515895455446e+00 
9.1585939999999999e-01,	 2.7498240000000002e-01,	 2.7565018334256793e-02,	 1.6219175605834005e+03,	 3.8966776420951732e+02,	 4.6837077058179432e+02,	 3.7143088025933339e+03,	 4.3433405118532164e+02,	 3.8405232099851294e+00 
9.1705340000000002e-01,	 2.7513650000000001e-01,	 2.7565244114449008e-02,	 1.6218616749791304e+03,	 3.8994680457093796e+02,	 4.6850160439910962e+02,	 3.7153767824304173e+03,	 4.3439470998134578e+02,	 3.8400119429593578e+00 
9.1824740000000005e-01,	 2.7529060000000000e-01,	 2.7566244818657260e-02,	 1.6218085476307429e+03,	 3.9022328525911763e+02,	 4.6862901943221880e+02,	 3.7165221433316037e+03,	 4.3445377557809974e+02,	 3.8395198045963519e+00 
9.1941329999999999e-01,	 2.7544099999999999e-01,	 2.7566809565763468e-02,	 1.6217570095209589e+03,	 3.9049442500098075e+02,	 4.6875255849035477e+02,	 3.7175780456884495e+03,	 4.3451103672844670e+02,	 3.8390445303803502e+00 
9.2057920000000004e-01,	 2.7559139999999999e-01,	 2.7567805980007694e-02,	 1.6217074418283873e+03,	 3.9076284983538568e+02,	 4.6887332633661345e+02,	 3.7186702381854971e+03,	 4.3456700611111745e+02,	 3.8385838411174160e+00 
9.2171780000000003e-01,	 2.7573829999999999e-01,	 2.7568963289606688e-02,	 1.6216599112363738e+03,	 3.9102601954771097e+02,	 4.6899033552043682e+02,	 3.7197543974806094e+03,	 4.3462122668188908e+02,	 3.8381405388295335e+00 
9.2285629999999996e-01,	 2.7588509999999999e-01,	 2.7569635456610626e-02,	 1.6216129922434704e+03,	 3.9128732609807605e+02,	 4.6910549138507713e+02,	 3.7207584604929730e+03,	 4.3467458184453085e+02,	 3.8377054483886468e+00 
9.2396829999999996e-01,	 2.7602840000000001e-01,	 2.7570331978257492e-02,	 1.6215672345011658e+03,	 3.9154446989585904e+02,	 4.6921779867578073e+02,	 3.7217432613890896e+03,	 4.3472661087006617e+02,	 3.8372826162798606e+00 
9.2508029999999997e-01,	 2.7617169999999996e-01,	 2.7571502966799475e-02,	 1.6215229470652423e+03,	 3.9179939094973116e+02,	 4.6932815331427014e+02,	 3.7227766826153229e+03,	 4.3477772921821077e+02,	 3.8368701021178353e+00 
9.2616650000000000e-01,	 2.7631169999999999e-01,	 2.7572846921412777e-02,	 1.6214801064459709e+03,	 3.9204973393629950e+02,	 4.6943561607550549e+02,	 3.7238105981258009e+03,	 4.3482750221899551e+02,	 3.8364704065673028e+00 
9.2725270000000004e-01,	 2.7645159999999996e-01,	 2.7573514031833463e-02,	 1.6214370333673096e+03,	 3.9229914374873636e+02,	 4.6954213380708359e+02,	 3.7247456689520141e+03,	 4.3487683189327316e+02,	 3.8360737774597595e+00 
9.2831390000000003e-01,	 2.7658820000000001e-01,	 2.7574514506143663e-02,	 1.6213947818168554e+03,	 3.9254462228662362e+02,	 4.6964648822004676e+02,	 3.7257086614490345e+03,	 4.3492515428230814e+02,	 3.8356859185754710e+00 
9.2937510000000001e-01,	 2.7672490000000000e-01,	 2.7576273915659359e-02,	 1.6213540679980542e+03,	 3.9278915340752553e+02,	 4.6974926480990734e+02,	 3.7267617620523388e+03,	 4.3497274079691732e+02,	 3.8353076424500463e+00 
9.3041189999999996e-01,	 2.7685830000000000e-01,	 2.7576900913552901e-02,	 1.6213124504163047e+03,	 3.9302969573825948e+02,	 4.6985074658897622e+02,	 3.7276516222041969e+03,	 4.3501972269461743e+02,	 3.8349306840939650e+00 
9.3144879999999997e-01,	 2.7699180000000001e-01,	 2.7578786808506301e-02,	 1.6212723930499219e+03,	 3.9326996459516187e+02,	 4.6995092570663189e+02,	 3.7287013889544701e+03,	 4.3506609653735069e+02,	 3.8345625850395306e+00 
9.3246200000000001e-01,	 2.7712209999999998e-01,	 2.7579389696555819e-02,	 1.6212316207248568e+03,	 3.9350640450955018e+02,	 4.7005006204911626e+02,	 3.7295694887966911e+03,	 4.3511198280420547e+02,	 3.8341952698035171e+00 
9.3347530000000001e-01,	 2.7725250000000001e-01,	 2.7581348267483236e-02,	 1.6211921282519827e+03,	 3.9374212229027171e+02,	 4.7014808381813009e+02,	 3.7306121470033559e+03,	 4.3515734842206598e+02,	 3.8338351643797628e+00 
9.3446560000000001e-01,	 2.7737980000000001e-01,	 2.7581974235886687e-02,	 1.6211518845348328e+03,	 3.9397454546972671e+02,	 4.7024523636075315e+02,	 3.7314677348149812e+03,	 4.3520230708560615e+02,	 3.8334753318633399e+00 
9.3545599999999995e-01,	 2.7750720000000001e-01,	 2.7584013469258997e-02,	 1.6211131153301762e+03,	 3.9420532223361045e+02,	 4.7034139927454248e+02,	 3.7325067393017453e+03,	 4.3524680321164016e+02,	 3.8331221214604834e+00 
9.3642409999999998e-01,	 2.7763159999999998e-01,	 2.7585085645873846e-02,	 1.6210730034694495e+03,	 3.9443355786973035e+02,	 4.7043661511607502e+02,	 3.7334074574141323e+03,	 4.3529085663062529e+02,	 3.8327685791300485e+00 
9.3739229999999996e-01,	 2.7775600000000000e-01,	 2.7586551574489294e-02,	 1.6210339216125626e+03,	 3.9466106474444075e+02,	 4.7053149189043393e+02,	 3.7343588450512625e+03,	 4.3533474873956430e+02,	 3.8324185049112387e+00 
9.3833889999999998e-01,	 2.7787760000000000e-01,	 2.7587919775968098e-02,	 1.6209951907134555e+03,	 3.9488483762092017e+02,	 4.7062515319571003e+02,	 3.7352874338285560e+03,	 4.3537807420517373e+02,	 3.8320723149878950e+00 
9.3928550000000000e-01,	 2.7799920000000000e-01,	 2.7589795597136403e-02,	 1.6209561069746974e+03,	 3.9510727912953121e+02,	 4.7071833905165693e+02,	 3.7362810657405253e+03,	 4.3542117546114736e+02,	 3.8317267262907193e+00 
9.4021120000000002e-01,	 2.7811799999999998e-01,	 2.7590829816122972e-02,	 1.6209168408811024e+03,	 3.9532760931216239e+02,	 4.7081073085678815e+02,	 3.7371545007986110e+03,	 4.3546390523308560e+02,	 3.8313829887162671e+00 
9.4113680000000000e-01,	 2.7823690000000001e-01,	 2.7593016610372390e-02,	 1.6208794163507018e+03,	 3.9554541817494481e+02,	 4.7090233026011219e+02,	 3.7381778464682043e+03,	 4.3550626439286242e+02,	 3.8310453829195756e+00 
9.4204230000000000e-01,	 2.7835309999999996e-01,	 2.7594356787349894e-02,	 1.6208402855416255e+03,	 3.9576064897847039e+02,	 4.7099306928458981e+02,	 3.7390797588779424e+03,	 4.3554822161791577e+02,	 3.8307062349888530e+00 
9.4294770000000006e-01,	 2.7846929999999998e-01,	 2.7596340999038012e-02,	 1.6208024410053240e+03,	 3.9597454435091527e+02,	 4.7108332160459764e+02,	 3.7400651617248800e+03,	 4.3558994978452586e+02,	 3.8303713732125533e+00 
9.4383349999999999e-01,	 2.7858289999999997e-01,	 2.7597888387665304e-02,	 1.6207641043930212e+03,	 3.9618547801401490e+02,	 4.7117258323442860e+02,	 3.7409835888863227e+03,	 4.3563121597398344e+02,	 3.8300379902749579e+00 
9.4471930000000004e-01,	 2.7869650000000001e-01,	 2.7599936515040405e-02,	 1.6207261372744597e+03,	 3.9639514660179907e+02,	 4.7126142574695348e+02,	 3.7419666572218439e+03,	 4.3567228452180223e+02,	 3.8297066047908133e+00 
9.4558609999999998e-01,	 2.7880759999999999e-01,	 2.7601277124964935e-02,	 1.6206886262148423e+03,	 3.9660185567774920e+02,	 4.7134939238373278e+02,	 3.7428469327229377e+03,	 4.3571294437134850e+02,	 3.8293783381118480e+00 
9.4645279999999998e-01,	 2.7891879999999997e-01,	 2.7603792500463915e-02,	 1.6206524344962868e+03,	 3.9680560286404489e+02,	 4.7143654560979542e+02,	 3.7438801492186426e+03,	 4.3575322450553568e+02,	 3.8290548541690894e+00 
9.4730119999999995e-01,	 2.7902749999999998e-01,	 2.7605228151239742e-02,	 1.6206144752562691e+03,	 3.9700684283905275e+02,	 4.7152299343628056e+02,	 3.7447614204128326e+03,	 4.3579317494293610e+02,	 3.8287290769813658e+00 
9.4814949999999998e-01,	 2.7913620000000000e-01,	 2.7607570986425786e-02,	 1.6205778598386150e+03,	 3.9720656465353579e+02,	 4.7160890223968124e+02,	 3.7457615676330784e+03,	 4.3583287265184634e+02,	 3.8284078024846981e+00 
9.4898000000000005e-01,	 2.7924250000000000e-01,	 2.7608940659049543e-02,	 1.6205407676144396e+03,	 3.9740383987891533e+02,	 4.7169410467109424e+02,	 3.7466241584499944e+03,	 4.3587224038136327e+02,	 3.8280871417567557e+00 
9.4981050000000000e-01,	 2.7934890000000001e-01,	 2.7611365372657171e-02,	 1.6205057638786477e+03,	 3.9759828234193890e+02,	 4.7177859808768835e+02,	 3.7476243826751552e+03,	 4.3591127699993541e+02,	 3.8277726062544657e+00 
9.5062369999999996e-01,	 2.7945300000000001e-01,	 2.7613087210620304e-02,	 1.6204694242298042e+03,	 3.9778948010358920e+02,	 4.7186217790184480e+02,	 3.7485220503180258e+03,	 4.3594988808804504e+02,	 3.8274571661174539e+00 
9.5143690000000003e-01,	 2.7955710000000000e-01,	 2.7615255686560480e-02,	 1.6204341219301557e+03,	 3.9797913504278017e+02,	 4.7194537723504982e+02,	 3.7494774205281419e+03,	 4.3598832001055717e+02,	 3.8271448731194098e+00 
9.5223340000000001e-01,	 2.7965899999999999e-01,	 2.7617097987048922e-02,	 1.6203981095544873e+03,	 3.9816723252638519e+02,	 4.7202933348840020e+02,	 3.7503946140034045e+03,	 4.3602709814024900e+02,	 3.8268272138245538e+00 
9.5302989999999999e-01,	 2.7976089999999998e-01,	 2.7629582651776674e-02,	 1.6202894526552841e+03,	 3.9869384786990042e+02,	 4.7215241259625498e+02,	 3.7530683654546974e+03,	 4.3608394029455985e+02,	 3.8263747921292439e+00 
9.5381020000000005e-01,	 2.7986069999999996e-01,	 2.7720350577538459e-02,	 1.6199621618455192e+03,	 4.0022794407573787e+02,	 4.7237144632552207e+02,	 3.7671446256134732e+03,	 4.3618507926370387e+02,	 3.8256009948069196e+00 
8.4940000000000004e-01,	 2.6784360000000002e-01,	 2.7418026728883695e-02,	 1.6245749565717244e+03,	 3.7238764256889760e+02,	 4.6204501788272819e+02,	 3.6446046476654333e+03,	 4.3139105179652802e+02,	 3.8635670110247355e+00 
8.5140930000000004e-01,	 2.6809469999999996e-01,	 2.7500691651515464e-02,	 1.6244613630270599e+03,	 3.7367444639431818e+02,	 4.6218775261221168e+02,	 3.6567223578831413e+03,	 4.3145767921165094e+02,	 3.8633812604001485e+00 
8.5341869999999997e-01,	 2.6834569999999996e-01,	 2.7568599302174930e-02,	 1.6245325729690289e+03,	 3.7477923635963236e+02,	 4.6208437389544611e+02,	 3.6649319999233826e+03,	 4.3140942389182749e+02,	 3.8645491306562110e+00 
8.5537759999999996e-01,	 2.6859040000000001e-01,	 2.7588319119733012e-02,	 1.6248021520142961e+03,	 3.7515589412039037e+02,	 4.6172747045456782e+02,	 3.6647207908098931e+03,	 4.3124278630460026e+02,	 3.8668479693528437e+00 
8.5733649999999995e-01,	 2.6883509999999999e-01,	 2.7586908759127303e-02,	 1.6251508339010986e+03,	 3.7524813951433373e+02,	 4.6131805030031484e+02,	 3.6612840515599155e+03,	 4.3105154942116906e+02,	 3.8693998222780448e+00 
8.5924639999999997e-01,	 2.6907349999999997e-01,	 2.7580123485206751e-02,	 1.6254635521731464e+03,	 3.7531356018653526e+02,	 4.6096175803681177e+02,	 3.6575564786284294e+03,	 4.3088505908172897e+02,	 3.8716362360318972e+00 
8.6115629999999999e-01,	 2.6931189999999999e-01,	 2.7575844141401584e-02,	 1.6257031439993837e+03,	 3.7546922336449921e+02,	 4.6070271019636573e+02,	 3.6549338432896384e+03,	 4.3076396928597211e+02,	 3.8733478202611842e+00 
8.6301839999999996e-01,	 2.6954430000000001e-01,	 2.7574395944617781e-02,	 1.6258661495431459e+03,	 3.7571677585761182e+02,	 4.6054515917198273e+02,	 3.6534920497032090e+03,	 4.3069030669789697e+02,	 3.8745084354758088e+00 
8.6488050000000005e-01,	 2.6977659999999998e-01,	 2.7575482511093145e-02,	 1.6259637559916869e+03,	 3.7603134386328418e+02,	 4.6047624829984181e+02,	 3.6530893256232503e+03,	 4.3065808363098654e+02,	 3.8751836791542154e+00 
8.6669620000000003e-01,	 2.7000310000000000e-01,	 2.7577716820437519e-02,	 1.6260027004912599e+03,	 3.7639377530133913e+02,	 4.6048620882997352e+02,	 3.6534643440911495e+03,	 4.3066274137352775e+02,	 3.8754195757864984e+00 
8.6851179999999994e-01,	 2.7022950000000001e-01,	 2.7581004745818965e-02,	 1.6259783810462768e+03,	 3.7679439968380200e+02,	 4.6056382644683708e+02,	 3.6545158106701333e+03,	 4.3069903519357683e+02,	 3.8752478765377747e+00 
8.7028220000000001e-01,	 2.7045019999999997e-01,	 2.7584643045509772e-02,	 1.6259129275414307e+03,	 3.7722099033862537e+02,	 4.6069749277394686e+02,	 3.6560586550293701e+03,	 4.3076153009481476e+02,	 3.8747613242773702e+00 
8.7205270000000001e-01,	 2.7067099999999999e-01,	 2.7588564388857793e-02,	 1.6258465028758210e+03,	 3.7766955627298944e+02,	 4.6090160558387112e+02,	 3.6581984417560511e+03,	 4.3085694434292446e+02,	 3.8739885037621855e+00 
8.7377910000000003e-01,	 2.7088609999999996e-01,	 2.7591805992343711e-02,	 1.6257631501785877e+03,	 3.7811864777690568e+02,	 4.6112250875089620e+02,	 3.6603817982512760e+03,	 4.3096018358185933e+02,	 3.8731080006092280e+00 
8.7550559999999999e-01,	 2.7110119999999999e-01,	 2.7594025129933811e-02,	 1.6256462218945505e+03,	 3.7856014726981812e+02,	 4.6133350163664039e+02,	 3.6623511855533561e+03,	 4.3105876815745125e+02,	 3.8721901659769897e+00 
8.7718920000000000e-01,	 2.7131089999999997e-01,	 2.7594840970134111e-02,	 1.6255181843749929e+03,	 3.7899193205753653e+02,	 4.6157619635009530e+02,	 3.6643861839747456e+03,	 4.3117213725878156e+02,	 3.8711100898384401e+00 
8.7887280000000001e-01,	 2.7152060000000000e-01,	 2.7595084458939292e-02,	 1.6253789531726384e+03,	 3.7942163823276059e+02,	 4.6184310366013409e+02,	 3.6665374743968910e+03,	 4.3129678229496159e+02,	 3.8699033135701120e+00 
8.8051480000000004e-01,	 2.7172499999999999e-01,	 2.7594870368826890e-02,	 1.6252309692499987e+03,	 3.7984904440773272e+02,	 4.6212303655100561e+02,	 3.6687313772194561e+03,	 4.3142747155371063e+02,	 3.8686223474902599e+00 
8.8215679999999996e-01,	 2.7192939999999999e-01,	 2.7594569455446243e-02,	 1.6250774297199926e+03,	 3.8027595390034907e+02,	 4.6241244644272780e+02,	 3.6709889312226042e+03,	 4.3156254362912790e+02,	 3.8672903658214017e+00 
8.8375820000000005e-01,	 2.7212870000000000e-01,	 2.7593099231417725e-02,	 1.6249221718237764e+03,	 3.8069664530624891e+02,	 4.6270528838643065e+02,	 3.6731180256717794e+03,	 4.3169917447959722e+02,	 3.8659383792094713e+00 
8.8535969999999997e-01,	 2.7232800000000001e-01,	 2.7591115135672879e-02,	 1.6247658253407249e+03,	 3.8111194083676617e+02,	 4.6300031141104836e+02,	 3.6751957368450303e+03,	 4.3183677924047231e+02,	 3.8645734994971921e+00 
8.8692170000000004e-01,	 2.7252219999999999e-01,	 2.7590388396033918e-02,	 1.6246103832558399e+03,	 3.8151796710605396e+02,	 4.6329249433137124e+02,	 3.6774181569278958e+03,	 4.3197301611574767e+02,	 3.8632191236437499e+00 
8.8848369999999999e-01,	 2.7271649999999997e-01,	 2.7589655557215091e-02,	 1.6244575288907520e+03,	 3.8191937612128146e+02,	 4.6358231956602856e+02,	 3.6796209275775336e+03,	 4.3210811123208009e+02,	 3.8618794475008631e+00 
8.9000740000000000e-01,	 2.7290589999999998e-01,	 2.7587956169133135e-02,	 1.6243076761719381e+03,	 3.8231290348378081e+02,	 4.6386651901118586e+02,	 3.6816499359712079e+03,	 4.3224054301888572e+02,	 3.8605672294447944e+00 
8.9153110000000002e-01,	 2.7309539999999999e-01,	 2.7586512708871490e-02,	 1.6241615873408646e+03,	 3.8270095906566127e+02,	 4.6414571309332973e+02,	 3.6836731164558742e+03,	 4.3237060289978348e+02,	 3.8592827985490104e+00 
8.9301750000000002e-01,	 2.7327999999999997e-01,	 2.7584806881415111e-02,	 1.6240203515873409e+03,	 3.8308009039626654e+02,	 4.6441735956131436e+02,	 3.6856011120314665e+03,	 4.3249710925741647e+02,	 3.8580372569154471e+00 
8.9450390000000002e-01,	 2.7346470000000000e-01,	 2.7583059447167196e-02,	 1.6238826213096695e+03,	 3.8345465026487580e+02,	 4.6468300113543813e+02,	 3.6874756270313378e+03,	 4.3262078334754295e+02,	 3.8568233740352285e+00 
8.9595400000000003e-01,	 2.7364479999999997e-01,	 2.7581519982549204e-02,	 1.6237505612283669e+03,	 3.8382173388946217e+02,	 4.6493966784751478e+02,	 3.6893064777867189e+03,	 4.3274024545925062e+02,	 3.8556567073246257e+00 
8.9740410000000004e-01,	 2.7382489999999998e-01,	 2.7579926234272946e-02,	 1.6236226396019865e+03,	 3.8418485078774529e+02,	 4.6518941308744661e+02,	 3.6910749173347785e+03,	 4.3285645441552447e+02,	 3.8545270549585333e+00 
8.9881889999999998e-01,	 2.7400059999999998e-01,	 2.7578464137727500e-02,	 1.6235004956190196e+03,	 3.8454033623596132e+02,	 4.6543025365799713e+02,	 3.6927901056075375e+03,	 4.3296849039791800e+02,	 3.8534442735996177e+00 
9.0023379999999997e-01,	 2.7417619999999998e-01,	 2.7577060742683575e-02,	 1.6233815115630480e+03,	 3.8489136917952283e+02,	 4.6566503092217192e+02,	 3.6944648508476039e+03,	 4.3307767790892973e+02,	 3.8523923119605756e+00 
9.0161429999999998e-01,	 2.7434749999999997e-01,	 2.7576136458250019e-02,	 1.6232677251499003e+03,	 3.8523559849278826e+02,	 4.6589106142722642e+02,	 3.6961342325466107e+03,	 4.3318277157499853e+02,	 3.8513855143578852e+00 
9.0299479999999999e-01,	 2.7451880000000001e-01,	 2.7575099605224349e-02,	 1.6231594421828559e+03,	 3.8557506084415934e+02,	 4.6611029653006028e+02,	 3.6977344896080172e+03,	 4.3328468134269821e+02,	 3.8504174943864706e+00 
9.0434199999999998e-01,	 2.7468589999999998e-01,	 2.7574219989857582e-02,	 1.6230540696717790e+03,	 3.8590846653685338e+02,	 4.6632139204510383e+02,	 3.6992911401570691e+03,	 4.3338278483903520e+02,	 3.8494872135883318e+00 
9.0568919999999997e-01,	 2.7485290000000001e-01,	 2.7573716120428103e-02,	 1.6229544980160422e+03,	 3.8623846491837242e+02,	 4.6652542615388046e+02,	 3.7008420992985216e+03,	 4.3347758555109806e+02,	 3.8485980439482641e+00 
9.0700389999999997e-01,	 2.7501589999999998e-01,	 2.7573027583525540e-02,	 1.6228586548416979e+03,	 3.8656121976035956e+02,	 4.6672154475066270e+02,	 3.7023054126396760e+03,	 4.3356868892773622e+02,	 3.8477467330793087e+00 
9.0831870000000003e-01,	 2.7517890000000000e-01,	 2.7572736225721615e-02,	 1.6227670654357535e+03,	 3.8688105091718546e+02,	 4.6691120855367967e+02,	 3.7037707983922182e+03,	 4.3365677564106011e+02,	 3.8469306745496987e+00 
9.0960189999999996e-01,	 2.7533789999999997e-01,	 2.7572308365979521e-02,	 1.6226801035621374e+03,	 3.8719377979861537e+02,	 4.6709323409268580e+02,	 3.7051572194154874e+03,	 4.3374129804597908e+02,	 3.8461532829461555e+00 
9.1088510000000000e-01,	 2.7549679999999999e-01,	 2.7571983691399529e-02,	 1.6225963762826188e+03,	 3.8750315349499652e+02,	 4.6726959679857850e+02,	 3.7065125478476039e+03,	 4.3382317524311804e+02,	 3.8454052421533897e+00 
9.1213770000000005e-01,	 2.7565200000000001e-01,	 2.7571889691369592e-02,	 1.6225170460275253e+03,	 3.8780589587122853e+02,	 4.6743882628752738e+02,	 3.7078422822367402e+03,	 4.3390172628599436e+02,	 3.8446934006258853e+00 
9.1339029999999999e-01,	 2.7580709999999997e-01,	 2.7571835685769600e-02,	 1.6224413200407851e+03,	 3.8810478123062296e+02,	 4.6760304123289848e+02,	 3.7091376112916923e+03,	 4.3397793614215362e+02,	 3.8440086988169750e+00 
9.1461309999999996e-01,	 2.7595839999999999e-01,	 2.7571529610872138e-02,	 1.6223680606996875e+03,	 3.8839783596925031e+02,	 4.6776124866621672e+02,	 3.7103513609064648e+03,	 4.3405134534065184e+02,	 3.8433515663747113e+00 
9.1583590000000004e-01,	 2.7610980000000002e-01,	 2.7571845079027209e-02,	 1.6222984321188694e+03,	 3.8868776868021598e+02,	 4.6791452061777375e+02,	 3.7116096037197585e+03,	 4.3412245260748671e+02,	 3.8427216156595074e+00 
9.1702980000000001e-01,	 2.7625749999999999e-01,	 2.7571873390608449e-02,	 1.6222321704357744e+03,	 3.8897116681728232e+02,	 4.6806210955773241e+02,	 3.7127841267924791e+03,	 4.3419091235624109e+02,	 3.8421194530178533e+00 
9.1822360000000003e-01,	 2.7640519999999996e-01,	 2.7572090252847809e-02,	 1.6221684120289951e+03,	 3.8925163674553153e+02,	 4.6820561294636184e+02,	 3.7139516423477749e+03,	 4.3425746665634910e+02,	 3.8415384850825123e+00 
9.1938940000000002e-01,	 2.7654930000000000e-01,	 2.7572271742883531e-02,	 1.6221074855142415e+03,	 3.8952642964866612e+02,	 4.6834406108699466e+02,	 3.7150743096710262e+03,	 4.3432166675699756e+02,	 3.8409819168535866e+00 
9.2055509999999996e-01,	 2.7669349999999998e-01,	 2.7572439538580632e-02,	 1.6220482036403876e+03,	 3.8979889070329648e+02,	 4.6847908179485512e+02,	 3.7161679579375364e+03,	 4.3438426837598223e+02,	 3.8404421817375982e+00 
9.2169350000000005e-01,	 2.7683419999999997e-01,	 2.7572864878496660e-02,	 1.6219914795652285e+03,	 3.9006646270665226e+02,	 4.6860946925303608e+02,	 3.7172595872283864e+03,	 4.3444471325225891e+02,	 3.8399248650621582e+00 
9.2283199999999999e-01,	 2.7697489999999997e-01,	 2.7573379791710914e-02,	 1.6219369746539394e+03,	 3.9033128476184146e+02,	 4.6873681240337373e+02,	 3.7183391781709852e+03,	 4.3450373873517441e+02,	 3.8394238223917125e+00 
9.2394390000000004e-01,	 2.7711219999999998e-01,	 2.7573796846387274e-02,	 1.6218842567029892e+03,	 3.9059107450357391e+02,	 4.6886035080810530e+02,	 3.7193754245023342e+03,	 4.3456099299918327e+02,	 3.8389399500412202e+00 
9.2505579999999998e-01,	 2.7724959999999998e-01,	 2.7574196270593071e-02,	 1.6218323725981813e+03,	 3.9084925365126480e+02,	 4.6898153547560401e+02,	 3.7203906497153243e+03,	 4.3461714908803265e+02,	 3.8384669978096326e+00 