TITLE = "Final State"
VARIABLES = "X", "Y", "rho", "u", "v", "T", "p", "c", "M"
ZONE I=77, J=21, DATAPACKING=POINT, STRANDID=21000, SOLUTIONTIME=0.000507
1.8369600000000000e-01,	 3.0203999999999998e-01,	 1.1611539295018129e-02,	 1.7358448398037501e+03,	 9.8218500648703488e-01,	 3.0025866783010883e+02,	 1.0030331512172296e+03,	 3.4775770674726738e+02,	 4.9915360148663428e+00 
1.8819400000000000e-01,	 3.0203999999999998e-01,	 1.1621158623386243e-02,	 1.7358020072081215e+03,	 1.3314631779246873e+00,	 3.0035563595688632e+02,	 1.0041882888560456e+03,	 3.4781385615255817e+02,	 4.9906077263993049e+00 
1.9269200000000000e-01,	 3.0203999999999998e-01,	 1.1630344447231536e-02,	 1.7357455011452216e+03,	 1.6308242397355044e+00,	 3.0044593805258262e+02,	 1.0052841874656935e+03,	 3.4786613744177907e+02,	 4.9896959791268953e+00 
1.9719000000000000e-01,	 3.0203999999999998e-01,	 1.1635549844058325e-02,	 1.7357137700752087e+03,	 1.7760432216690916e+00,	 3.0049494592508290e+02,	 1.0058981752588571e+03,	 3.4789450774404656e+02,	 4.9891982773319290e+00 
2.0168800000000001e-01,	 3.0203999999999998e-01,	 1.1637756014747777e-02,	 1.7357010304791661e+03,	 1.8144094337377403e+00,	 3.0051402079989964e+02,	 1.0061527643431749e+03,	 3.4790554942539092e+02,	 4.9890034283417934e+00 
2.0618600000000001e-01,	 3.0203999999999998e-01,	 1.1637708357021877e-02,	 1.7357023974973840e+03,	 1.7781375120506784e+00,	 3.0050902705920430e+02,	 1.0061319245470168e+03,	 3.4790265878269599e+02,	 4.9890487022300496e+00 
2.1068400000000001e-01,	 3.0203999999999998e-01,	 1.1636039370156297e-02,	 1.7357136502127623e+03,	 1.6918764873281651e+00,	 3.0048864044529341e+02,	 1.0059193866958306e+03,	 3.4789085767717364e+02,	 4.9892500377128783e+00 
2.1518200000000001e-01,	 3.0203999999999998e-01,	 1.1633256126246560e-02,	 1.7357313406966105e+03,	 1.5746519019903995e+00,	 3.0046159759121394e+02,	 1.0055882718089933e+03,	 3.4787520288675347e+02,	 4.9895250956475712e+00 
2.1967999999999999e-01,	 3.0203999999999998e-01,	 1.1629927570194119e-02,	 1.7357533867861932e+03,	 1.4405883034424103e+00,	 3.0042396291139704e+02,	 1.0051746285407243e+03,	 3.4785341544041012e+02,	 4.9899006522518334e+00 
2.2417799999999999e-01,	 3.0203999999999998e-01,	 1.1626087036321401e-02,	 1.7357778829335612e+03,	 1.2992729956396443e+00,	 3.0037844168393076e+02,	 1.0046904341306442e+03,	 3.4782706049493044e+02,	 4.9903488438556884e+00 
2.2867599999999999e-01,	 3.0203999999999998e-01,	 1.1621947594829287e-02,	 1.7358028338464223e+03,	 1.1561569556739841e+00,	 3.0033580524369188e+02,	 1.0041901590100396e+03,	 3.4780237391308430e+02,	 4.9907745003425754e+00 
2.3317399999999999e-01,	 3.0203999999999998e-01,	 1.1617971723155939e-02,	 1.7358274160245123e+03,	 1.0171449503980534e+00,	 3.0029395353692712e+02,	 1.0037067395286524e+03,	 3.4777813998918282e+02,	 4.9911927014369661e+00 
2.3767199999999999e-01,	 3.0203999999999998e-01,	 1.1614169320986084e-02,	 1.7358509726718512e+03,	 8.8699923594264352e-01,	 3.0025396047692533e+02,	 1.0032446105159270e+03,	 3.4775498072310961e+02,	 4.9915926313561538e+00 
2.4217000000000000e-01,	 3.0203999999999998e-01,	 1.1610611159150717e-02,	 1.7358730724825318e+03,	 7.6709800969626141e-01,	 3.0021647728784887e+02,	 1.0028120476514250e+03,	 3.4773327347815757e+02,	 4.9919676210833881e+00 
2.4666800000000000e-01,	 3.0203999999999998e-01,	 1.1607343175127814e-02,	 1.7358934025732979e+03,	 6.5848852233714794e-01,	 3.0018200993618541e+02,	 1.0024146921002148e+03,	 3.4771331156741013e+02,	 4.9923125451907735e+00 
2.5116600000000000e-01,	 3.0203999999999998e-01,	 1.1604387775352859e-02,	 1.7359117994777826e+03,	 5.6150567207411350e-01,	 3.0015081863547471e+02,	 1.0020553302740562e+03,	 3.4769524600742540e+02,	 4.9926247488993738e+00 
2.5566400000000000e-01,	 3.0203999999999998e-01,	 1.1601751752635801e-02,	 1.7359282137538357e+03,	 4.7593163271133743e-01,	 3.0012298305415538e+02,	 1.0017347978289778e+03,	 3.4767912323998286e+02,	 4.9929034070810205e+00 
2.6016200000000000e-01,	 3.0203999999999998e-01,	 1.1599429467421783e-02,	 1.7359426840258998e+03,	 4.0122776480503913e-01,	 3.0009844224591626e+02,	 1.0014523891761953e+03,	 3.4766490823213377e+02,	 4.9931491194234363e+00 
2.6466000000000001e-01,	 3.0203999999999998e-01,	 1.1597404766859311e-02,	 1.7359553030784436e+03,	 3.3665034264190663e-01,	 3.0007703612875378e+02,	 1.0012061624741262e+03,	 3.4765250848686890e+02,	 4.9933634688183925e+00 
2.6915800000000001e-01,	 3.0203999999999998e-01,	 1.1595656381408416e-02,	 1.7359662018345903e+03,	 2.8132925660781161e-01,	 3.0005854312220777e+02,	 1.0009935314642873e+03,	 3.4764179583911982e+02,	 4.9935486624685002e+00 
2.7365600000000001e-01,	 3.0203999999999998e-01,	 1.1594160552093693e-02,	 1.7359755336712947e+03,	 2.3434596649565570e-01,	 3.0004270739967581e+02,	 1.0008115831306327e+03,	 3.4763262224319692e+02,	 4.9937072599431387e+00 
2.7815400000000001e-01,	 3.0203999999999998e-01,	 1.1592891173950202e-02,	 1.7359834543044344e+03,	 1.9476255724889335e-01,	 3.0002926117087759e+02,	 1.0006571641671757e+03,	 3.4762483268519105e+02,	 4.9938419295893350e+00 
2.8265200000000001e-01,	 3.0203999999999998e-01,	 1.1591822860207011e-02,	 1.7359901216422961e+03,	 1.6166313966754178e-01,	 3.0001793755880408e+02,	 1.0005271881071578e+03,	 3.4761827264854810e+02,	 4.9939553405606709e+00 
2.8715000000000002e-01,	 3.0203999999999998e-01,	 1.1590931487017515e-02,	 1.7359956926728273e+03,	 1.3419894367930732e-01,	 3.0000847542361055e+02,	 1.0004186980801359e+03,	 3.4761279091460085e+02,	 4.9940501133238060e+00 
2.9164800000000002e-01,	 3.0203999999999998e-01,	 1.1590193131284751e-02,	 1.7360003102234732e+03,	 1.1158476694113950e-01,	 3.0000062896820714e+02,	 1.0003288068563772e+03,	 3.4760824513286593e+02,	 4.9941287012512801e+00 
2.9614600000000002e-01,	 3.0203999999999998e-01,	 1.1589586346267314e-02,	 1.7360041075777597e+03,	 9.3101946520736084e-02,	 2.9999417222897887e+02,	 1.0002549079599482e+03,	 3.4760450442759378e+02,	 4.9941933662021931e+00 
3.0064400000000002e-01,	 3.0203999999999998e-01,	 1.1589092277937174e-02,	 1.7360072086908831e+03,	 7.8119282216860042e-02,	 2.9998889916206792e+02,	 1.0001946857629763e+03,	 3.4760144945180650e+02,	 4.9942461781628262e+00 
3.0514200000000002e-01,	 3.0203999999999998e-01,	 1.1588693045888273e-02,	 1.7360097188978825e+03,	 6.6075951993208509e-02,	 2.9998462744164033e+02,	 1.0001459882306424e+03,	 3.4759897459106594e+02,	 4.9942889566855255e+00 
3.0964000000000003e-01,	 3.0203999999999998e-01,	 1.1588373416838015e-02,	 1.7360117328179197e+03,	 5.6478220683343690e-02,	 2.9998119655218443e+02,	 1.0001069648529152e+03,	 3.4759698686076655e+02,	 4.9943233093444750e+00 
3.1413799999999997e-01,	 3.0203999999999998e-01,	 1.1588120705798299e-02,	 1.7360133362185752e+03,	 4.8909168588239377e-02,	 2.9997846547256836e+02,	 1.0000760502839562e+03,	 3.4759540456624768e+02,	 4.9943506562575299e+00 
3.1863599999999997e-01,	 3.0203999999999998e-01,	 1.1587922839970875e-02,	 1.7360145984675883e+03,	 4.3006833438631244e-02,	 2.9997631314280477e+02,	 1.0000517987297804e+03,	 3.4759415757460823e+02,	 4.9943722043937919e+00 
3.2313399999999998e-01,	 3.0203999999999998e-01,	 1.1587769983583525e-02,	 1.7360155805423924e+03,	 3.8461851271872738e-02,	 2.9997463608600640e+02,	 1.0000330161915372e+03,	 3.4759318593795854e+02,	 4.9943889903478071e+00 
3.2763199999999998e-01,	 3.0203999999999998e-01,	 1.1587654428057112e-02,	 1.7360163372227935e+03,	 3.5019630001852473e-02,	 2.9997334588668593e+02,	 1.0000187425380277e+03,	 3.4759243843313556e+02,	 4.9944019075948818e+00 
3.3212999999999998e-01,	 3.0203999999999998e-01,	 1.1587545955158582e-02,	 1.7360169173974018e+03,	 3.2395383269921953e-02,	 2.9997237903430744e+02,	 1.0000061581300279e+03,	 3.4759187826528853e+02,	 4.9944116253910362e+00 
3.3662799999999998e-01,	 3.0203999999999998e-01,	 1.1587482363241634e-02,	 1.7360173356398568e+03,	 3.0424638074025873e-02,	 2.9997165761077451e+02,	 9.9999826517427812e+02,	 3.4759146029161974e+02,	 4.9944188342544136e+00 
3.4112599999999998e-01,	 3.0203999999999998e-01,	 1.1587462697417322e-02,	 1.7360176363921714e+03,	 2.9191318312552381e-02,	 2.9997112525962950e+02,	 9.9999479335073499e+02,	 3.4759115186115758e+02,	 4.9944241311730426e+00 
3.4562399999999999e-01,	 3.0203999999999998e-01,	 1.1587437216173495e-02,	 1.7360178580681320e+03,	 2.8407469500223201e-02,	 2.9997075861522876e+02,	 9.9999137206991918e+02,	 3.4759093943673105e+02,	 4.9944278211444812e+00 
3.5012199999999999e-01,	 3.0203999999999998e-01,	 1.1587422183351778e-02,	 1.7360179998789085e+03,	 2.7965256672422924e-02,	 2.9997051986009910e+02,	 9.9998927882307828e+02,	 3.4759080110802080e+02,	 4.9944302167094756e+00 
3.5461999999999999e-01,	 3.0203999999999998e-01,	 1.1587416338688381e-02,	 1.7360180904722338e+03,	 2.7812486070936615e-02,	 2.9997037464126083e+02,	 9.9998829032634603e+02,	 3.4759071697185556e+02,	 4.9944316862627520e+00 
3.5911799999999999e-01,	 3.0203999999999998e-01,	 1.1587417549509801e-02,	 1.7360181381457844e+03,	 2.7907975218809639e-02,	 2.9997029636842126e+02,	 9.9998813388743019e+02,	 3.4759067162252029e+02,	 4.9944324750331726e+00 
3.6361599999999999e-01,	 3.0203999999999998e-01,	 1.1587426078442308e-02,	 1.7360181314389488e+03,	 2.8120080873545311e-02,	 2.9997030189514362e+02,	 9.9998888835391563e+02,	 3.4759067482456584e+02,	 4.9944324097385175e+00 
3.6811400000000000e-01,	 3.0203999999999998e-01,	 1.1587440794069072e-02,	 1.7360180974195748e+03,	 2.8442999765814755e-02,	 2.9997036311077761e+02,	 9.9999036237521500e+02,	 3.4759071029138090e+02,	 4.9944318022691068e+00 
3.7261200000000000e-01,	 3.0203999999999998e-01,	 1.1587458548969386e-02,	 1.7360180437551858e+03,	 2.8868197231387643e-02,	 2.9997045595365523e+02,	 9.9999220411858460e+02,	 3.4759076408222705e+02,	 4.9944308749945163e+00 
3.7711000000000000e-01,	 3.0203999999999998e-01,	 1.1587478285002596e-02,	 1.7360179757173837e+03,	 2.9339581399514519e-02,	 2.9997056984013602e+02,	 9.9999428698561474e+02,	 3.4759083006520024e+02,	 4.9944297311861554e+00 
3.8160800000000000e-01,	 3.0203999999999998e-01,	 1.1587500385364069e-02,	 1.7360178962310079e+03,	 2.9917797528695601e-02,	 2.9997070164714091e+02,	 9.9999663363521984e+02,	 3.4759090643086040e+02,	 4.9944284052612753e+00 
3.8610600000000000e-01,	 3.0203999999999998e-01,	 1.1587524650789169e-02,	 1.7360178019118289e+03,	 3.0593865482155234e-02,	 2.9997085538900677e+02,	 9.9999924025395694e+02,	 3.4759099550500559e+02,	 4.9944268540650585e+00 
3.9060400000000001e-01,	 3.0203999999999998e-01,	 1.1587550376178739e-02,	 1.7360176957953454e+03,	 3.1283240622379992e-02,	 2.9997102416107191e+02,	 1.0000020229749227e+03,	 3.4759109328724151e+02,	 4.9944251438071321e+00 
3.9510200000000001e-01,	 3.0203999999999998e-01,	 1.1587577943961454e-02,	 1.7360175824427452e+03,	 3.2012730370956283e-02,	 2.9997120489883707e+02,	 1.0000050045861315e+03,	 3.4759119800206872e+02,	 4.9944233131230664e+00 
3.9960000000000001e-01,	 3.0203999999999998e-01,	 1.1587606348100583e-02,	 1.7360174619340755e+03,	 3.2789102893293565e-02,	 2.9997139339538398e+02,	 1.0000080842428757e+03,	 3.4759130721210153e+02,	 4.9944213972658531e+00 
4.0409800000000001e-01,	 3.0203999999999998e-01,	 1.1587635357584770e-02,	 1.7360173344379020e+03,	 3.3608773963519259e-02,	 2.9997158758248975e+02,	 1.0000112351144288e+03,	 3.4759141971906138e+02,	 4.9944194139382247e+00 
4.0859600000000001e-01,	 3.0203999999999998e-01,	 1.1587665685984475e-02,	 1.7360172013086142e+03,	 3.4465576909921206e-02,	 2.9997178788723568e+02,	 1.0000145202058610e+03,	 3.4759153577038467e+02,	 4.9944173634813005e+00 
4.1309400000000002e-01,	 3.0203999999999998e-01,	 1.1587697093116944e-02,	 1.7360170575236284e+03,	 3.5345075339493340e-02,	 2.9997199816314662e+02,	 1.0000179316363080e+03,	 3.4759165759869813e+02,	 4.9944151993650747e+00 
4.1759200000000002e-01,	 3.0203999999999998e-01,	 1.1587729892806584e-02,	 1.7360169004518443e+03,	 3.6234853959953961e-02,	 2.9997222208691335e+02,	 1.0000215087463276e+03,	 3.4759178733417212e+02,	 4.9944128834120152e+00 
4.2209000000000002e-01,	 3.0203999999999998e-01,	 1.1587764742159053e-02,	 1.7360167322775251e+03,	 3.7136743908139543e-02,	 2.9997245948165937e+02,	 1.0000253076552050e+03,	 3.4759192487432028e+02,	 4.9944104233791808e+00 
4.2658800000000002e-01,	 3.0203999999999998e-01,	 1.1587800882451023e-02,	 1.7360165509238068e+03,	 3.8055537632804899e-02,	 2.9997270872841386e+02,	 1.0000292574885895e+03,	 3.4759206928114571e+02,	 4.9944078267699537e+00 
4.3108600000000002e-01,	 3.0203999999999998e-01,	 1.1587838072141176e-02,	 1.7360163562637297e+03,	 3.8994978288289656e-02,	 2.9997296759224093e+02,	 1.0000333299513464e+03,	 3.4759221925977926e+02,	 4.9944051118251469e+00 
4.3558400000000003e-01,	 3.0203999999999998e-01,	 1.1587876725183313e-02,	 1.7360161507871130e+03,	 3.9967870318325507e-02,	 2.9997323328391258e+02,	 1.0000375514697619e+03,	 3.4759237319421220e+02,	 4.9944023089287528e+00 
4.4008199999999997e-01,	 3.0203999999999998e-01,	 1.1587916163159002e-02,	 1.7360159308621533e+03,	 4.0977916047401905e-02,	 2.9997350498617664e+02,	 1.0000418607720854e+03,	 3.4759253061094626e+02,	 4.9943994144364288e+00 
4.4457999999999998e-01,	 3.0203999999999998e-01,	 1.1587956368110339e-02,	 1.7360156941817982e+03,	 4.2022017067182171e-02,	 2.9997378277578525e+02,	 1.0000462565648040e+03,	 3.4759269155444474e+02,	 4.9943964210722545e+00 
4.4907799999999998e-01,	 3.0203999999999998e-01,	 1.1587998045282552e-02,	 1.7360154408346864e+03,	 4.3101142948899870e-02,	 2.9997406684187968e+02,	 1.0000508003419336e+03,	 3.4759285613428574e+02,	 4.9943933275172379e+00 
4.5357599999999998e-01,	 3.0203999999999998e-01,	 1.1588040818476182e-02,	 1.7360151652817913e+03,	 4.4211383578857101e-02,	 2.9997435948304792e+02,	 1.0000554673008422e+03,	 3.4759302568219994e+02,	 4.9943900987011691e+00 
4.5807399999999998e-01,	 3.0203999999999998e-01,	 1.1588084797926976e-02,	 1.7360148643487682e+03,	 4.5345727548588302e-02,	 2.9997466206549393e+02,	 1.0000602715102226e+03,	 3.4759320098971887e+02,	 4.9943867141185674e+00 
4.6257199999999998e-01,	 3.0203999999999998e-01,	 1.1588130678723859e-02,	 1.7360145385237370e+03,	 4.6502958680530060e-02,	 2.9997497462807985e+02,	 1.0000652730870761e+03,	 3.4759338207934940e+02,	 4.9943831748507730e+00 
4.6706999999999999e-01,	 3.0203999999999998e-01,	 1.1588177864833946e-02,	 1.7360141839565213e+03,	 4.7681335781823875e-02,	 2.9997529705853731e+02,	 1.0000704202198391e+03,	 3.4759356888603753e+02,	 4.9943794707562628e+00 
4.7156799999999999e-01,	 3.0203999999999998e-01,	 1.1588226307993768e-02,	 1.7360137990492144e+03,	 4.8879656478625522e-02,	 2.9997562896867237e+02,	 1.0000757074499076e+03,	 3.4759376118486620e+02,	 4.9943756004701632e+00 
4.7606599999999999e-01,	 3.0203999999999998e-01,	 1.1588276552603863e-02,	 1.7360133860771452e+03,	 5.0101233979268398e-02,	 2.9997596871535029e+02,	 1.0000811762824117e+03,	 3.4759395802384375e+02,	 4.9943715842178698e+00 
4.8056399999999999e-01,	 3.0203999999999998e-01,	 1.1588327911398161e-02,	 1.7360129427779325e+03,	 5.1347894666756641e-02,	 2.9997631514231642e+02,	 1.0000867635515024e+03,	 3.4759415873306403e+02,	 4.9943674251168710e+00 
4.8506199999999999e-01,	 3.0203999999999998e-01,	 1.1588380306108693e-02,	 1.7360124692779705e+03,	 5.2615393277111538e-02,	 2.9997666742586995e+02,	 1.0000924597570436e+03,	 3.4759436283529357e+02,	 4.9943631303880291e+00 
4.8956000000000000e-01,	 3.0203999999999998e-01,	 1.1588434257837593e-02,	 1.7360119699364125e+03,	 5.3907623437348048e-02,	 2.9997702351927444e+02,	 1.0000983030478201e+03,	 3.4759456914471150e+02,	 4.9943587296113829e+00 
4.9405800000000000e-01,	 3.0203999999999998e-01,	 1.1588489091771546e-02,	 1.7360114446655216e+03,	 5.5228239741075054e-02,	 2.9997738224206529e+02,	 1.0001042312514834e+03,	 3.4759477697739015e+02,	 4.9943542323621832e+00 
4.9855600000000000e-01,	 3.0203999999999998e-01,	 1.1588544696224563e-02,	 1.7360108963088353e+03,	 5.6575023055581625e-02,	 2.9997774225801800e+02,	 1.0001102302748459e+03,	 3.4759498555916105e+02,	 4.9943496579447304e+00 
5.0305400000000000e-01,	 3.0203999999999998e-01,	 1.1588601507241038e-02,	 1.7360103322203863e+03,	 5.7954074913006463e-02,	 2.9997810046628103e+02,	 1.0001163274114646e+03,	 3.4759519309348997e+02,	 4.9943450533299512e+00 
5.0755200000000000e-01,	 3.0203999999999998e-01,	 1.1588658806490505e-02,	 1.7360097552210507e+03,	 5.9366881945527875e-02,	 2.9997845503092549e+02,	 1.0001224545474385e+03,	 3.4759539851670161e+02,	 4.9943404419167861e+00 
5.1205000000000001e-01,	 3.0203999999999998e-01,	 1.1588716468999507e-02,	 1.7360091709505582e+03,	 6.0814100791420911e-02,	 2.9997880429175279e+02,	 1.0001285953621883e+03,	 3.4759560086693551e+02,	 4.9943358537506803e+00 
5.1654800000000001e-01,	 3.0203999999999998e-01,	 1.1588774940943104e-02,	 1.7360085891799408e+03,	 6.2302776687435675e-02,	 2.9997914508641924e+02,	 1.0001347778180731e+03,	 3.4759579831204087e+02,	 4.9943313432675112e+00 
5.2104600000000001e-01,	 3.0203999999999998e-01,	 1.1599472462968261e-02,	 1.7359560994715071e+03,	 4.7430976267970132e-01,	 3.0006610706866559e+02,	 1.0013481957944057e+03,	 3.4764617752965853e+02,	 4.9934567858738532e+00 
5.2554400000000001e-01,	 3.0203999999999998e-01,	 1.1611418213652741e-02,	 1.7359033012554764e+03,	 9.3533759996881993e-01,	 3.0018985724357265e+02,	 1.0027928281749267e+03,	 3.4771785646902930e+02,	 4.9922761254537003e+00 
1.8369600000000000e-01,	 3.0570929999999996e-01,	 1.1598080251331589e-02,	 1.7359068745738068e+03,	 4.0663279805830710e-01,	 3.0012333853014434e+02,	 1.0014189740035538e+03,	 3.4767932914148088e+02,	 4.9928390234953675e+00 
1.8819400000000000e-01,	 3.0569399999999997e-01,	 1.1605677002157071e-02,	 1.7358739199137865e+03,	 6.7493595634723558e-01,	 3.0019925879742317e+02,	 1.0023283925770160e+03,	 3.4772330146072039e+02,	 4.9921131078496259e+00 
1.9269200000000000e-01,	 3.0567869999999997e-01,	 1.1615264836391673e-02,	 1.7358232040688169e+03,	 9.9113873562789312e-01,	 3.0029648620631627e+02,	 1.0034813478110278e+03,	 3.4777960656082342e+02,	 4.9911594995454855e+00 
1.9719000000000000e-01,	 3.0566329999999997e-01,	 1.1622470703682355e-02,	 1.7357853260087495e+03,	 1.2149512645170644e+00,	 3.0036873022554346e+02,	 1.0043454495791541e+03,	 3.4782143769572411e+02,	 4.9904507402032374e+00 
2.0168800000000001e-01,	 3.0564799999999998e-01,	 1.1627483959236901e-02,	 1.7357591385308140e+03,	 1.3600705767681189e+00,	 3.0041862770904322e+02,	 1.0049455801922343e+03,	 3.4785032667781195e+02,	 4.9899613088089874e+00 
2.0618600000000001e-01,	 3.0563269999999998e-01,	 1.1630546579015010e-02,	 1.7357435822783909e+03,	 1.4391695880605337e+00,	 3.0044783671335040e+02,	 1.0053080119727217e+03,	 3.4786723660582243e+02,	 4.9896742097607580e+00 
2.1068400000000001e-01,	 3.0561729999999998e-01,	 1.1631938133509922e-02,	 1.7357371898613515e+03,	 1.4643410178922742e+00,	 3.0046036903261358e+02,	 1.0054702321398438e+03,	 3.4787449167188828e+02,	 4.9895518329301902e+00 
2.1518200000000001e-01,	 3.0560199999999998e-01,	 1.1631950454717269e-02,	 1.7357385687888341e+03,	 1.4470657502114275e+00,	 3.0045681463695178e+02,	 1.0054594026343949e+03,	 3.4787243401742143e+02,	 4.9895852682108046e+00 
2.1967999999999999e-01,	 3.0558669999999999e-01,	 1.1630785198932767e-02,	 1.7357459468146087e+03,	 1.3978115648780634e+00,	 3.0044413442799294e+02,	 1.0053162493122521e+03,	 3.4786509329243046e+02,	 4.9897116529320256e+00 
2.2417799999999999e-01,	 3.0557129999999999e-01,	 1.1628863547392313e-02,	 1.7357577625262329e+03,	 1.3243802594940250e+00,	 3.0042538668338398e+02,	 1.0050874283479421e+03,	 3.4785423971447415e+02,	 4.9899011413540988e+00 
2.2867599999999999e-01,	 3.0555599999999999e-01,	 1.1626443463091921e-02,	 1.7357729640371258e+03,	 1.2362251072752262e+00,	 3.0039885230337757e+02,	 1.0047895059162112e+03,	 3.4783887766318236e+02,	 4.9901650325019551e+00 
2.3317399999999999e-01,	 3.0554070000000000e-01,	 1.1623556285587262e-02,	 1.7357903954628853e+03,	 1.1385227702392089e+00,	 3.0036829498553220e+02,	 1.0044378037205336e+03,	 3.4782118569568871e+02,	 4.9904687817547071e+00 
2.3767199999999999e-01,	 3.0552530000000000e-01,	 1.1620431785720600e-02,	 1.7358090768609084e+03,	 1.0350721773793587e+00,	 3.0033548233068831e+02,	 1.0040581065372735e+03,	 3.4780218693914139e+02,	 4.9907949134722775e+00 
2.4217000000000000e-01,	 3.0551000000000000e-01,	 1.1617222008524273e-02,	 1.7358282494920738e+03,	 9.3174403598950062e-01,	 3.0030179496094132e+02,	 1.0036681773299872e+03,	 3.4778268063681151e+02,	 4.9911297951373284e+00 
2.4666800000000000e-01,	 3.0549470000000001e-01,	 1.1614031497918436e-02,	 1.7358473085830478e+03,	 8.3099209255493744e-01,	 3.0026832451816233e+02,	 1.0032806995000386e+03,	 3.4776329886008813e+02,	 4.9914626217915208e+00 
2.5116600000000000e-01,	 3.0547930000000001e-01,	 1.1610941192991367e-02,	 1.7358657689521542e+03,	 7.3496079297853556e-01,	 3.0023590891235887e+02,	 1.0029054620077890e+03,	 3.4774452687958097e+02,	 4.9917850328768578e+00 
2.5566400000000000e-01,	 3.0546400000000001e-01,	 1.1608013980005938e-02,	 1.7358832638093811e+03,	 6.4500394405476358e-01,	 3.0020520728677809e+02,	 1.0025500917676841e+03,	 3.4772674653603315e+02,	 4.9920904875285119e+00 
2.6016200000000000e-01,	 3.0544869999999996e-01,	 1.1605286535212702e-02,	 1.7358995738521216e+03,	 5.6209866165802991e-01,	 3.0017660406633820e+02,	 1.0022190309464407e+03,	 3.4771018063133300e+02,	 4.9923751490576702e+00 
2.6466000000000001e-01,	 3.0543329999999996e-01,	 1.1602782042286590e-02,	 1.7359145615607883e+03,	 4.8674761885566697e-01,	 3.0015033687507298e+02,	 1.0019150648106479e+03,	 3.4769496697125726e+02,	 4.9926366347025937e+00 
2.6915800000000001e-01,	 3.0541799999999997e-01,	 1.1600511607656183e-02,	 1.7359281595734044e+03,	 4.1909759957101850e-01,	 3.0012651920052224e+02,	 1.0016395209864497e+03,	 3.4768117146807015e+02,	 4.9928737953624918e+00 
2.7365600000000001e-01,	 3.0540269999999997e-01,	 1.1598476636654552e-02,	 1.7359403517966377e+03,	 3.5899461301481383e-01,	 3.0010517057771688e+02,	 1.0013925763810554e+03,	 3.4766880560615738e+02,	 4.9930864113342190e+00 
2.7815400000000001e-01,	 3.0538729999999997e-01,	 1.1596672634459564e-02,	 1.7359511695681681e+03,	 3.0610326835261403e-01,	 3.0008623765434442e+02,	 1.0011736562699923e+03,	 3.4765783863304102e+02,	 4.9932750067757103e+00 
2.8265200000000001e-01,	 3.0537199999999998e-01,	 1.1595089322210761e-02,	 1.7359606777884335e+03,	 2.5998314346000051e-01,	 3.0006960822392591e+02,	 1.0009814914616485e+03,	 3.4764820568222905e+02,	 4.9934406934438966e+00 
2.8715000000000002e-01,	 3.0535669999999998e-01,	 1.1593711142037475e-02,	 1.7359689595793809e+03,	 2.2011073595268835e-01,	 3.0005512789461000e+02,	 1.0008142176603084e+03,	 3.4763981742647189e+02,	 4.9935849880053755e+00 
2.9164800000000002e-01,	 3.0534129999999998e-01,	 1.1592522281747479e-02,	 1.7359761152045517e+03,	 1.8592142017356159e-01,	 3.0004262331793944e+02,	 1.0006698866990429e+03,	 3.4763257353420346e+02,	 4.9937096156202250e+00 
2.9614600000000002e-01,	 3.0532599999999999e-01,	 1.1591505290456147e-02,	 1.7359822488870152e+03,	 1.5683811211838986e-01,	 3.0003191132748810e+02,	 1.0005463773714051e+03,	 3.4762636796580057e+02,	 4.9938163958339503e+00 
3.0064400000000002e-01,	 3.0531069999999999e-01,	 1.1590641549153621e-02,	 1.7359874644106137e+03,	 1.3228188354927373e-01,	 3.0002280412338217e+02,	 1.0004414531934765e+03,	 3.4762109197982869e+02,	 4.9939071865963571e+00 
3.0514200000000002e-01,	 3.0529529999999999e-01,	 1.1589914555433782e-02,	 1.7359918689255614e+03,	 1.1170621182793736e-01,	 3.0001511923034803e+02,	 1.0003530789665609e+03,	 3.4761663990488881e+02,	 4.9939838121516162e+00 
3.0964000000000003e-01,	 3.0528000000000000e-01,	 1.1589307430192205e-02,	 1.7359955605842256e+03,	 9.4597642405088084e-02,	 3.0000868318216237e+02,	 1.0002792176805469e+03,	 3.4761291127706301e+02,	 4.9940479966175966e+00 
3.1413799999999997e-01,	 3.0526470000000000e-01,	 1.1588803975221201e-02,	 1.7359986308248283e+03,	 8.0479732162916262e-02,	 3.0000333174943523e+02,	 1.0002179224190287e+03,	 3.4760981097445574e+02,	 4.9941013684964490e+00 
3.1863599999999997e-01,	 3.0524930000000000e-01,	 1.1588390450571287e-02,	 1.7360011672185744e+03,	 6.8924771144780989e-02,	 2.9999891496916882e+02,	 1.0001675064054489e+03,	 3.4760725213319967e+02,	 4.9941454268670498e+00 
3.2313399999999998e-01,	 3.0523400000000001e-01,	 1.1588053848732382e-02,	 1.7360032466872767e+03,	 5.9547141709169332e-02,	 2.9999529800614351e+02,	 1.0001263968133721e+03,	 3.4760515664834088e+02,	 4.9941815145878223e+00 
3.2763199999999998e-01,	 3.0521870000000001e-01,	 1.1587782168492270e-02,	 1.7360049378044948e+03,	 5.2006908600146590e-02,	 2.9999235827047460e+02,	 1.0000931487138902e+03,	 3.4760345350534516e+02,	 4.9942108488194483e+00 
3.3212999999999998e-01,	 3.0520330000000001e-01,	 1.1587577152160782e-02,	 1.7360062961203962e+03,	 4.5991392915725335e-02,	 2.9998998822825490e+02,	 1.0000675536713097e+03,	 3.4760208040955627e+02,	 4.9942344841095103e+00 
3.3662799999999998e-01,	 3.0518800000000001e-01,	 1.1587407716073467e-02,	 1.7360073893823187e+03,	 4.1231039978216096e-02,	 2.9998809875804704e+02,	 1.0000466316872247e+03,	 3.4760098573167522e+02,	 4.9942533569569028e+00 
3.4112599999999998e-01,	 3.0517269999999996e-01,	 1.1587262913755791e-02,	 1.7360082600422429e+03,	 3.7570015699250781e-02,	 2.9998659953278570e+02,	 1.0000291367941835e+03,	 3.4760011714250129e+02,	 4.9942683412189153e+00 
3.4562399999999999e-01,	 3.0515729999999996e-01,	 1.1587160498182078e-02,	 1.7360089351583254e+03,	 3.4790696705203510e-02,	 2.9998542681435038e+02,	 1.0000163885874287e+03,	 3.4759943771637938e+02,	 4.9942800451921894e+00 
3.5012199999999999e-01,	 3.0514199999999997e-01,	 1.1587085324646904e-02,	 1.7360094596179092e+03,	 3.2725829465961240e-02,	 2.9998452324091403e+02,	 1.0000068887354532e+03,	 3.4759891422119119e+02,	 4.9942890754304168e+00 
3.5461999999999999e-01,	 3.0512669999999997e-01,	 1.1587019984867112e-02,	 1.7360098628853823e+03,	 3.1226891543067452e-02,	 2.9998383855555278e+02,	 9.9999896727372266e+02,	 3.4759851754068688e+02,	 4.9942959350021701e+00 
3.5911799999999999e-01,	 3.0511129999999997e-01,	 1.1586977604254194e-02,	 1.7360101604718598e+03,	 3.0166857046863168e-02,	 2.9998332717452735e+02,	 9.9999360499640306e+02,	 3.4759822126578928e+02,	 4.9943010479519536e+00 
3.6361599999999999e-01,	 3.0509599999999998e-01,	 1.1586965329096281e-02,	 1.7360103630910148e+03,	 2.9513006259881996e-02,	 2.9998296698619436e+02,	 9.9999134492505789e+02,	 3.4759801258608928e+02,	 4.9943046291495303e+00 
3.6811400000000000e-01,	 3.0508069999999998e-01,	 1.1586958896981640e-02,	 1.7360105025742525e+03,	 2.9190549997897677e-02,	 2.9998272476692193e+02,	 9.9998998237746662e+02,	 3.4759787225319712e+02,	 4.9943070467218620e+00 
3.7261200000000000e-01,	 3.0506529999999998e-01,	 1.1586957080827551e-02,	 1.7360105911328774e+03,	 2.9113557195550435e-02,	 2.9998257326464773e+02,	 9.9998932060629113e+02,	 3.4759778447835134e+02,	 4.9943085626459744e+00 
3.7711000000000000e-01,	 3.0504999999999999e-01,	 1.1586961993836509e-02,	 1.7360106369357457e+03,	 2.9244590153616037e-02,	 2.9998249277864346e+02,	 9.9998947631425790e+02,	 3.4759773784771153e+02,	 4.9943093644143524e+00 
3.8160800000000000e-01,	 3.0503469999999999e-01,	 1.1586972058853272e-02,	 1.7360106465753099e+03,	 2.9509542128295860e-02,	 2.9998246843627294e+02,	 9.9999026381012152e+02,	 3.4759772374463336e+02,	 4.9943095947932576e+00 
3.8610600000000000e-01,	 3.0501929999999999e-01,	 1.1586987040227474e-02,	 1.7360106276860006e+03,	 2.9874054533239845e-02,	 2.9998249110563319e+02,	 9.9999163231573129e+02,	 3.4759773687843068e+02,	 4.9943093517613963e+00 
3.9060400000000001e-01,	 3.0500400000000000e-01,	 1.1587005956887275e-02,	 1.7360105864717061e+03,	 3.0347694089130996e-02,	 2.9998255155876512e+02,	 9.9999346640088618e+02,	 3.4759777190275946e+02,	 4.9943087299840734e+00 
3.9510200000000001e-01,	 3.0498870000000000e-01,	 1.1587027611407012e-02,	 1.7360105239306833e+03,	 3.0916329411397395e-02,	 2.9998263987543987e+02,	 9.9999562965573921e+02,	 3.4759782307019725e+02,	 4.9943078149122604e+00 
3.9960000000000001e-01,	 3.0497330000000000e-01,	 1.1587051400269159e-02,	 1.7360104502364193e+03,	 3.1584280267106912e-02,	 2.9998274642704752e+02,	 9.9999803789845737e+02,	 3.4759788480227547e+02,	 4.9943067159664452e+00 
4.0409800000000001e-01,	 3.0495800000000001e-01,	 1.1587077137951438e-02,	 1.7360103644396158e+03,	 3.2321999275375553e-02,	 2.9998286833742679e+02,	 1.0000006655307053e+03,	 3.4759795543264698e+02,	 4.9943054543567120e+00 
4.0859600000000001e-01,	 3.0494270000000001e-01,	 1.1587104707157760e-02,	 1.7360102603695520e+03,	 3.3097228799592301e-02,	 2.9998301078898299e+02,	 1.0000035197057324e+03,	 3.4759803796379964e+02,	 4.9943039691894029e+00 
4.1309400000000002e-01,	 3.0492730000000001e-01,	 1.1587135010140446e-02,	 1.7360101382245412e+03,	 3.3878541575264647e-02,	 2.9998317834752606e+02,	 1.0000066935118247e+03,	 3.4759813504098503e+02,	 4.9943022230266640e+00 
4.1759200000000002e-01,	 3.0491200000000002e-01,	 1.1587167999196374e-02,	 1.7360100017935056e+03,	 3.4672355984765049e-02,	 2.9998336714557672e+02,	 1.0000101699406569e+03,	 3.4759824442351828e+02,	 4.9943002589638334e+00 
4.2209000000000002e-01,	 3.0489669999999996e-01,	 1.1587202255389485e-02,	 1.7360098498474026e+03,	 3.5489136249973421e-02,	 2.9998357171550276e+02,	 1.0000138083077120e+03,	 3.4759836294364777e+02,	 4.9942981189804785e+00 
4.2658800000000002e-01,	 3.0488129999999997e-01,	 1.1587237980988957e-02,	 1.7360096867505831e+03,	 3.6339836427165435e-02,	 2.9998378707617809e+02,	 1.0000176094652477e+03,	 3.4759848771548832e+02,	 4.9942958570978284e+00 
4.3108600000000002e-01,	 3.0486599999999997e-01,	 1.1587274794090273e-02,	 1.7360095135461402e+03,	 3.7236405148313445e-02,	 2.9998400938963431e+02,	 1.0000215276600150e+03,	 3.4759861651546049e+02,	 4.9942935082662379e+00 