TITLE = "Final State"
VARIABLES = "X", "Y", "rho", "u", "v", "T", "p", "c", "M"
ZONE I=98, J=27, DATAPACKING=POINT, STRANDID=53000, SOLUTIONTIME=0.001279
1.3750690000000001e+00,	 2.6012380000000002e-01,	 4.6936771511504299e-02,	 1.4904780973811100e+03,	 -3.1278488438639950e+01,	 6.8791928713055961e+02,	 9.2892497029019487e+03,	 5.2637799987897756e+02,	 2.8321971275212086e+00 
1.3782630000000000e+00,	 2.6005629999999996e-01,	 4.6847951548617747e-02,	 1.4907896675767361e+03,	 -3.1225318167587083e+01,	 6.8740126393485707e+02,	 9.2646895190966188e+03,	 5.2617977359624172e+02,	 2.8338539816946451e+00 
1.3814830000000000e+00,	 2.5998830000000001e-01,	 4.6693585484669807e-02,	 1.4914102081023620e+03,	 -3.1181345918616543e+01,	 6.8650149527992755e+02,	 9.2220749729867584e+03,	 5.2583529132663523e+02,	 2.8368885767425658e+00 
1.3847300000000000e+00,	 2.5991969999999998e-01,	 4.6511621543990578e-02,	 1.4921359317025222e+03,	 -3.1151493280191112e+01,	 6.8544442345570928e+02,	 9.1719919659855641e+03,	 5.2543029599049464e+02,	 2.8404549267882158e+00 
1.3880049999999999e+00,	 2.5985049999999998e-01,	 4.6303154111292044e-02,	 1.4929655781044844e+03,	 -3.1127075778663858e+01,	 6.8423303088279977e+02,	 9.1147455381987147e+03,	 5.2496579164168782e+02,	 2.8445473082083526e+00 
1.3913059999999999e+00,	 2.5978069999999998e-01,	 4.6070520430305212e-02,	 1.4938899977238698e+03,	 -3.1098535522557597e+01,	 6.8287898785487391e+02,	 9.0510050126419901e+03,	 5.2444610152618554e+02,	 2.8491272025652341e+00 
1.3946350000000001e+00,	 2.5971040000000001e-01,	 4.5815306823689478e-02,	 1.4949096197678411e+03,	 -3.1069589203524696e+01,	 6.8138553862870367e+02,	 8.9811810000775931e+03,	 5.2387230855680025e+02,	 2.8541925757364131e+00 
1.3979919999999999e+00,	 2.5963939999999996e-01,	 4.5536347387777801e-02,	 1.4960149499625063e+03,	 -3.1059277685806411e+01,	 6.7975766724158052e+02,	 8.9051706011118949e+03,	 5.2324615298968229e+02,	 2.8597196994513365e+00 
1.4013760000000000e+00,	 2.5956789999999996e-01,	 4.5240353162893758e-02,	 1.4971986464638658e+03,	 -3.1031713912632380e+01,	 6.7801667618470208e+02,	 8.8246258224480644e+03,	 5.2257565602021612e+02,	 2.8656524358951732e+00 
1.4047890000000001e+00,	 2.5949580000000000e-01,	 4.4925077757653517e-02,	 1.4984602581907470e+03,	 -3.1015984154036865e+01,	 6.7615676665738636e+02,	 8.7390892267118979e+03,	 5.2185840898124604e+02,	 2.8720074090568661e+00 
1.4082300000000001e+00,	 2.5942309999999996e-01,	 4.4590999020876973e-02,	 1.4997974724789938e+03,	 -3.1021502588944369e+01,	 6.7418146949125708e+02,	 8.6487621010257808e+03,	 5.2109558337487351e+02,	 2.8787775356844945e+00 
1.4116990000000000e+00,	 2.5934970000000002e-01,	 4.4241981142652306e-02,	 1.5011949019652041e+03,	 -3.1024662274772915e+01,	 6.7211256646552795e+02,	 8.5547341785411027e+03,	 5.2029540964205614e+02,	 2.8858902611043713e+00 
1.4151980000000000e+00,	 2.5927580000000000e-01,	 4.3882577311386173e-02,	 1.5026506094389185e+03,	 -3.1002438458921770e+01,	 6.6996140531321907e+02,	 8.4580811765842518e+03,	 5.1946211450430417e+02,	 2.8933205175765728e+00 
1.4187250000000000e+00,	 2.5920129999999997e-01,	 4.3508002634480278e-02,	 1.5041663185328800e+03,	 -3.1006714379690148e+01,	 6.6771443798082373e+02,	 8.3577591310283824e+03,	 5.1859027717897879e+02,	 2.9011069725902412e+00 
1.4222830000000000e+00,	 2.5912609999999997e-01,	 4.3121928464396164e-02,	 1.5057331715052715e+03,	 -3.1023146780532230e+01,	 6.6538784064725587e+02,	 8.2547318973651163e+03,	 5.1768599568165996e+02,	 2.9092012156535332e+00 
1.4258690000000001e+00,	 2.5905030000000001e-01,	 4.2728304264575134e-02,	 1.5073407790590554e+03,	 -3.1031555452795590e+01,	 6.6299944497088836e+02,	 8.1500216018589663e+03,	 5.1675604892206320e+02,	 2.9175472081470919e+00 
1.4294860000000000e+00,	 2.5897389999999998e-01,	 4.2327397955875833e-02,	 1.5089873808595603e+03,	 -3.1046821289458805e+01,	 6.6055175401157817e+02,	 8.0437461977436387e+03,	 5.1580127535890313e+02,	 2.9261399830365629e+00 
1.4331320000000001e+00,	 2.5889679999999998e-01,	 4.1919877737190955e-02,	 1.5106641453585453e+03,	 -3.1073890813616643e+01,	 6.5805332926266317e+02,	 7.9361713382958123e+03,	 5.1482488589556829e+02,	 2.9349468976388526e+00 
1.4368090000000000e+00,	 2.5881909999999997e-01,	 4.1509843632687754e-02,	 1.5123652379781975e+03,	 -3.1093644075277599e+01,	 6.5551969184715404e+02,	 7.8282876844727862e+03,	 5.1383284050277541e+02,	 2.9439240188948501e+00 
1.4405170000000000e+00,	 2.5874069999999999e-01,	 4.1096753552109677e-02,	 1.5140835035132668e+03,	 -3.1118552088556825e+01,	 6.5295581265906344e+02,	 7.7200701356920617e+03,	 5.1282700037937343e+02,	 2.9530489897299543e+00 
1.4442560000000000e+00,	 2.5866169999999999e-01,	 4.0684019797792084e-02,	 1.5158153698475940e+03,	 -3.1133248893268522e+01,	 6.5037234904309958e+02,	 7.6122994336619322e+03,	 5.1181147761794131e+02,	 2.9622920244770112e+00 
1.4480249999999999e+00,	 2.5858209999999998e-01,	 4.0269164133378915e-02,	 1.5175625065478562e+03,	 -3.1167101654324863e+01,	 6.4776316130011037e+02,	 7.5044487892255320e+03,	 5.1078379378921221e+02,	 2.9716732208384919e+00 
1.4518260000000001e+00,	 2.5850170000000000e-01,	 3.9854955795747229e-02,	 1.5193130385505419e+03,	 -3.1201509567818814e+01,	 6.4514427585757608e+02,	 7.3972299185989132e+03,	 5.0975020688939088e+02,	 2.9811334464402397e+00 
1.4556590000000000e+00,	 2.5842080000000001e-01,	 3.9444375901884370e-02,	 1.5210700651424918e+03,	 -3.1220492879857979e+01,	 6.4252102812843293e+02,	 7.2912564233133880e+03,	 5.0871279308486436e+02,	 2.9906667530870212e+00 
1.4595240000000000e+00,	 2.5833909999999999e-01,	 3.9032163307684900e-02,	 1.5228311048819046e+03,	 -3.1274094452696989e+01,	 6.3988284642908388e+02,	 7.1854343810852843e+03,	 5.0766733527534171e+02,	 3.0002958635983998e+00 
1.4634210000000001e+00,	 2.5825670000000001e-01,	 3.8625522637370256e-02,	 1.5245837789340310e+03,	 -3.1309665621489017e+01,	 6.3725839129679707e+02,	 7.0814121080865798e+03,	 5.0662517646014038e+02,	 3.0099278754647401e+00 
1.4673510000000001e+00,	 2.5817370000000001e-01,	 3.8224610540222227e-02,	 1.5263273393739055e+03,	 -3.1335457428534326e+01,	 6.3464896373827571e+02,	 6.9792150745185290e+03,	 5.0558685525715134e+02,	 3.0195582571903254e+00 
1.4713130000000001e+00,	 2.5808999999999999e-01,	 3.7826903569738585e-02,	 1.5280609299492100e+03,	 -3.1388601648102249e+01,	 6.3204965064403882e+02,	 6.8783128534831112e+03,	 5.0455043435239696e+02,	 3.0291982242660680e+00 
1.4753080000000001e+00,	 2.5800550000000000e-01,	 3.7437183036689511e-02,	 1.5297689830822926e+03,	 -3.1442098620839676e+01,	 6.2948594360396123e+02,	 6.7798351935272576e+03,	 5.0352612095137613e+02,	 3.0387541138403056e+00 
1.4793369999999999e+00,	 2.5792039999999999e-01,	 3.7058637034307659e-02,	 1.5314445651007206e+03,	 -3.1485244529873839e+01,	 6.2697428986399723e+02,	 6.6845028411039057e+03,	 5.0252058037915282e+02,	 3.0481700573476198e+00 
1.4833989999999999e+00,	 2.5783449999999997e-01,	 3.6691335498787690e-02,	 1.5330734323798210e+03,	 -3.1540086598088809e+01,	 6.2452690098090216e+02,	 6.5924160346859662e+03,	 5.0153882894189502e+02,	 3.0573860853596457e+00 
1.4874959999999999e+00,	 2.5774799999999998e-01,	 3.6340778876094638e-02,	 1.5346458906116197e+03,	 -3.1590855402224172e+01,	 6.2216819526687482e+02,	 6.5047704500783530e+03,	 5.0059083007861619e+02,	 3.0663186670015463e+00 
1.4916259999999999e+00,	 2.5766069999999996e-01,	 3.6007053543823830e-02,	 1.5361443328565661e+03,	 -3.1668996143998932e+01,	 6.1991500891706698e+02,	 6.4216949775930116e+03,	 4.9968356136608361e+02,	 3.0748875075813915e+00 
1.4957910000000001e+00,	 2.5757269999999999e-01,	 3.5697586088484771e-02,	 1.5375479132852556e+03,	 -3.1750355462677184e+01,	 6.1780728714167105e+02,	 6.3448566379784161e+03,	 4.9883337170100276e+02,	 3.0829447024137555e+00 
1.4999910000000001e+00,	 2.5748389999999999e-01,	 3.5415967117868832e-02,	 1.5388298177415313e+03,	 -3.1845966182255093e+01,	 6.1588106912790283e+02,	 6.2751758155568587e+03,	 4.9805512582465116e+02,	 3.0903392568119918e+00 
1.5042249999999999e+00,	 2.5739439999999997e-01,	 3.5170413340209691e-02,	 1.5399601692824770e+03,	 -3.1937078868751520e+01,	 6.1418640079334546e+02,	 6.2145202285288842e+03,	 4.9736942552432936e+02,	 3.0968757317327187e+00 
1.5084960000000001e+00,	 2.5730419999999998e-01,	 3.4965641726995914e-02,	 1.5409141992609570e+03,	 -3.2043578794323274e+01,	 6.1276101046821566e+02,	 6.1639990686011570e+03,	 4.9679194825475503e+02,	 3.1023999977473244e+00 
1.5128010000000001e+00,	 2.5721319999999998e-01,	 3.4807108571851708e-02,	 1.5416580529062560e+03,	 -3.2181840893372652e+01,	 6.1165294392423380e+02,	 6.1249557539749876e+03,	 4.9634256618487132e+02,	 3.1067130174037993e+00 
1.5171429999999999e+00,	 2.5712140000000000e-01,	 3.4705430750922618e-02,	 1.5421527037991266e+03,	 -3.2320722991258634e+01,	 6.1092843468284514e+02,	 6.0998297771222287e+03,	 4.9604851763031223e+02,	 3.1095574397511458e+00 
1.5215209999999999e+00,	 2.5702890000000000e-01,	 3.4667645398412716e-02,	 1.5423739059393074e+03,	 -3.2463250147726981e+01,	 6.1062694585205622e+02,	 6.0901816748253459e+03,	 4.9592610432091004e+02,	 3.1107769710512065e+00 
1.5259360000000000e+00,	 2.5693559999999999e-01,	 3.4700619993162485e-02,	 1.5423114174093857e+03,	 -3.2617737797913790e+01,	 6.1076556712509864e+02,	 6.0973583082163059e+03,	 4.9598239237636136e+02,	 3.1103045439109489e+00 
1.5303869999999999e+00,	 2.5684160000000000e-01,	 3.4809985019936637e-02,	 1.5419572190091626e+03,	 -3.2781511364323052e+01,	 6.1136346290894176e+02,	 6.1225628806320865e+03,	 4.9622509862770079e+02,	 3.1080766492256222e+00 
1.5348759999999999e+00,	 2.5674669999999999e-01,	 3.4996825198048115e-02,	 1.5413048846264469e+03,	 -3.2956362735320916e+01,	 6.1242937643906521e+02,	 6.1661573093179113e+03,	 4.9665749500929115e+02,	 3.1040650715468581e+00 
1.5394019999999999e+00,	 2.5665099999999996e-01,	 3.5263030152249977e-02,	 1.5403586720283279e+03,	 -3.3098570497606971e+01,	 6.1396459381461591e+02,	 6.2286351585284183e+03,	 4.9727960753790614e+02,	 3.0982855754041991e+00 
1.5439659999999999e+00,	 2.5655459999999997e-01,	 3.5601395285580845e-02,	 1.5391527132100343e+03,	 -3.3212044178134114e+01,	 6.1591916923739973e+02,	 6.3084211255854871e+03,	 4.9807053112147980e+02,	 3.0909497797829304e+00 
1.5485690000000001e+00,	 2.5645730000000000e-01,	 3.6000055356439194e-02,	 1.5377312283121169e+03,	 -3.3303121686931554e+01,	 6.1822077371734940e+02,	 6.4028997237534277e+03,	 4.9900027358684792e+02,	 3.0823466347858686e+00 
1.5532090000000001e+00,	 2.5635930000000001e-01,	 3.6446652292891735e-02,	 1.5361553835566619e+03,	 -3.3349844933725059e+01,	 6.2078178943678427e+02,	 6.5091840186243035e+03,	 5.0003277430508939e+02,	 3.0728332850837421e+00 
1.5578890000000001e+00,	 2.5626040000000000e-01,	 3.6922342642943487e-02,	 1.5344937946949240e+03,	 -3.3368609212337155e+01,	 6.2349013507569998e+02,	 6.6229087615159233e+03,	 5.0112235821968807e+02,	 3.0628379240473387e+00 
1.5626070000000001e+00,	 2.5616069999999996e-01,	 3.7410594678246561e-02,	 1.5328177693420507e+03,	 -3.3348477888305183e+01,	 6.2623804311021536e+02,	 6.7400636238494944e+03,	 5.0222544241967626e+02,	 3.0527734500247643e+00 
1.5673649999999999e+00,	 2.5606010000000001e-01,	 3.7894051830586528e-02,	 1.5311873898999772e+03,	 -3.3292557597574827e+01,	 6.2892814557770339e+02,	 6.8564926190436399e+03,	 5.0330298004818297e+02,	 3.0429966587609596e+00 
1.5721630000000000e+00,	 2.5595869999999998e-01,	 3.8359058677089504e-02,	 1.5296573259731190e+03,	 -3.3197140182305276e+01,	 6.3147726891470359e+02,	 6.9687614873160046e+03,	 5.0432192314090344e+02,	 3.0338112248128475e+00 
1.5770010000000001e+00,	 2.5585649999999999e-01,	 3.8791003594550712e-02,	 1.5282734840808421e+03,	 -3.3087610287155400e+01,	 6.3381040318581734e+02,	 7.0732713074525900e+03,	 5.0525272934219316e+02,	 3.0254791949105124e+00 
1.5818800000000000e+00,	 2.5575339999999996e-01,	 3.9179269976745451e-02,	 1.5270624342746237e+03,	 -3.2980525595688114e+01,	 6.3588248787696193e+02,	 7.1674247457170923e+03,	 5.0607795418082748e+02,	 3.0181487384871875e+00 
1.5867990000000001e+00,	 2.5564939999999997e-01,	 3.9520189754719451e-02,	 1.5260374544265362e+03,	 -3.2862501528163570e+01,	 6.3767306246787007e+02,	 7.2501506347147570e+03,	 5.0678998299182729e+02,	 3.0118812603379586e+00 
1.5917600000000001e+00,	 2.5554460000000001e-01,	 3.9810954221916633e-02,	 1.5252068154198851e+03,	 -3.2737347798486041e+01,	 6.3917092693801101e+02,	 7.3206482061201623e+03,	 5.0738484696093093e+02,	 3.0067080730333289e+00 
1.5967620000000000e+00,	 2.5543889999999997e-01,	 4.0048032729945712e-02,	 1.5245718780007405e+03,	 -3.2629028355314375e+01,	 6.4036863833749931e+02,	 7.3780429510458716e+03,	 5.0786000639854990e+02,	 3.0026404590934073e+00 
1.6018060000000001e+00,	 2.5533230000000001e-01,	 4.0233164690856846e-02,	 1.5241275979959191e+03,	 -3.2528276965969198e+01,	 6.4127627630427378e+02,	 7.4226555272619344e+03,	 5.0821979119801557e+02,	 2.9996365702679215e+00 
1.6068920000000000e+00,	 2.5522479999999997e-01,	 4.0367449205634121e-02,	 1.5238638484676771e+03,	 -3.2434531831559681e+01,	 6.4190822436231156e+02,	 7.4547689044866247e+03,	 5.0847014306409852e+02,	 2.9976371375846487e+00 
1.6120200000000000e+00,	 2.5511639999999997e-01,	 4.0454517857804073e-02,	 1.5237702480813805e+03,	 -3.2337697187174939e+01,	 6.4228075484671467e+02,	 7.4751838097891878e+03,	 5.0861766660951270e+02,	 2.9965796460014906e+00 
1.6171920000000000e+00,	 2.5500719999999999e-01,	 4.0496071550622750e-02,	 1.5238417055238388e+03,	 -3.2250341417882765e+01,	 6.4240340606649295e+02,	 7.4842910414325352e+03,	 5.0866622761562144e+02,	 2.9964303802688512e+00 
1.6224069999999999e+00,	 2.5489699999999998e-01,	 4.0491132819050167e-02,	 1.5240711926841682e+03,	 -3.2197338414943033e+01,	 6.4228169089457833e+02,	 7.4819604245702640e+03,	 5.0861803723427704e+02,	 2.9971631787149584e+00 
1.6276649999999999e+00,	 2.5478580000000001e-01,	 4.0448505531022659e-02,	 1.5244323008519364e+03,	 -3.2101898000048429e+01,	 6.4195441523261240e+02,	 7.4702753136007659e+03,	 5.0848843715586770e+02,	 2.9986331194466893e+00 
1.6329680000000000e+00,	 2.5467380000000001e-01,	 4.0371938168698225e-02,	 1.5249275653436880e+03,	 -3.2033996947653506e+01,	 6.4143275218911913e+02,	 7.4500754075222749e+03,	 5.0828179200323973e+02,	 3.0008235976044224e+00 
1.6383150000000000e+00,	 2.5456079999999998e-01,	 4.0255295632672140e-02,	 1.5255653994543495e+03,	 -3.2032530253534134e+01,	 6.4068945255447045e+02,	 7.4199423723924847e+03,	 5.0798720524893525e+02,	 3.0038190777248208e+00 
1.6437059999999999e+00,	 2.5444679999999997e-01,	 4.0107533933890271e-02,	 1.5263237413628349e+03,	 -3.2005282537825714e+01,	 6.3976035069291891e+02,	 7.3819860160319558e+03,	 5.0761874039521348e+02,	 3.0074919231403654e+00 
1.6491430000000000e+00,	 2.5433190000000000e-01,	 3.9933546314222697e-02,	 1.5271929610615366e+03,	 -3.1962597855476179e+01,	 6.3866448029691651e+02,	 7.3373727141755198e+03,	 5.0718379411104928e+02,	 3.0117827393880066e+00 
1.6546250000000000e+00,	 2.5421610000000000e-01,	 3.9733374924511525e-02,	 1.5281696648673128e+03,	 -3.1929664151614546e+01,	 6.3740390651303903e+02,	 7.2861836509962795e+03,	 5.0668301599986762e+02,	 3.0166852851088648e+00 
1.6601539999999999e+00,	 2.5409929999999997e-01,	 3.9508559755259624e-02,	 1.5292462539428184e+03,	 -3.1913659791153364e+01,	 6.3598890727255639e+02,	 7.2288743584666317e+03,	 5.0612030025726978e+02,	 3.0221653194285745e+00 
1.6657280000000001e+00,	 2.5398149999999997e-01,	 3.9262351652129407e-02,	 1.5304111719699913e+03,	 -3.1905499119265968e+01,	 6.3443706318549357e+02,	 7.1662968177257289e+03,	 5.0550244396494367e+02,	 3.0281628342093869e+00 
1.6713499999999999e+00,	 2.5386270000000000e-01,	 3.8997561427319707e-02,	 1.5316559551223204e+03,	 -3.1898438844428952e+01,	 6.3276239054021380e+02,	 7.0991776878026267e+03,	 5.0483483598143982e+02,	 3.0346322602104903e+00 
1.6770179999999999e+00,	 2.5374289999999999e-01,	 3.8715676290487541e-02,	 1.5329720232331927e+03,	 -3.1896127927800428e+01,	 6.3097579065141281e+02,	 7.0279632839544038e+03,	 5.0412163349863630e+02,	 3.0415354399167902e+00 
1.6827340000000000e+00,	 2.5362209999999996e-01,	 3.8419345363798311e-02,	 1.5343517370471654e+03,	 -3.1893574308508740e+01,	 6.2908996840669192e+02,	 6.9533270657560925e+03,	 5.0336772565888623e+02,	 3.0488311000898638e+00 
1.6884980000000001e+00,	 2.5350030000000001e-01,	 3.8110122357497528e-02,	 1.5357889617002852e+03,	 -3.1894425427444880e+01,	 6.2711350553472266e+02,	 6.8756923236244702e+03,	 5.0257636803882167e+02,	 3.0564909269166165e+00 
1.6943100000000000e+00,	 2.5337749999999998e-01,	 3.7789140288183101e-02,	 1.5372786593444018e+03,	 -3.1905308658996397e+01,	 6.2505384449944449e+02,	 6.7953898931787262e+03,	 5.0175037059950193e+02,	 3.0644914317840684e+00 
1.7001710000000001e+00,	 2.5325359999999997e-01,	 3.7458244884613724e-02,	 1.5388116730799538e+03,	 -3.1922678292686804e+01,	 6.2292402612406522e+02,	 6.7129350291657947e+03,	 5.0089480507854631e+02,	 3.0727864217213265e+00 
1.7060800000000000e+00,	 2.5312869999999998e-01,	 3.7120838079708597e-02,	 1.5403802272709145e+03,	 -3.1931635595039211e+01,	 6.2073873214381433e+02,	 6.6291302940905089e+03,	 5.0001543292091287e+02,	 3.0813272092369148e+00 
1.7120400000000000e+00,	 2.5300279999999997e-01,	 3.6776956448958502e-02,	 1.5419833379280626e+03,	 -3.1944398068842947e+01,	 6.1849940047184168e+02,	 6.5440258459937704e+03,	 4.9911270847314682e+02,	 3.0901120393830941e+00 
1.7180489999999999e+00,	 2.5287579999999998e-01,	 3.6426770688905867e-02,	 1.5436154979105654e+03,	 -3.1972346349548658e+01,	 6.1621220647985137e+02,	 6.4577452142886505e+03,	 4.9818900109796516e+02,	 3.0991181555444065e+00 
1.7241089999999999e+00,	 2.5274769999999996e-01,	 3.6073804988829054e-02,	 1.5452685737054396e+03,	 -3.1995413787495302e+01,	 6.1389364815514261e+02,	 6.3711089302160062e+03,	 4.9725087554807374e+02,	 3.1082897049305287e+00 
1.7302190000000000e+00,	 2.5261859999999997e-01,	 3.5719094940625973e-02,	 1.5469396947815485e+03,	 -3.2015624719826562e+01,	 6.1154967564355684e+02,	 6.2843754551073998e+03,	 4.9630066447607066e+02,	 3.1176080739179075e+00 
1.7363810000000000e+00,	 2.5248840000000000e-01,	 3.5362639353300224e-02,	 1.5486263996125799e+03,	 -3.2044644208886098e+01,	 6.0918381571876910e+02,	 6.1975917694743075e+03,	 4.9533973217844965e+02,	 3.1270616956915940e+00 
1.7425940000000000e+00,	 2.5235710000000000e-01,	 3.5006350059691438e-02,	 1.5503234163071809e+03,	 -3.2077285271412052e+01,	 6.0680686941286910e+02,	 6.1112107005062653e+03,	 4.9437241601782711e+02,	 3.1366135758954754e+00 
1.7488600000000001e+00,	 2.5222469999999997e-01,	 3.4651920160102989e-02,	 1.5520271937530529e+03,	 -3.2110359955837723e+01,	 6.0442781272141406e+02,	 6.0256192077310043e+03,	 4.9340234207218680e+02,	 3.1462342115537525e+00 
1.7551779999999999e+00,	 2.5209120000000002e-01,	 3.4299622964892133e-02,	 1.5537345484741159e+03,	 -3.2153123512072213e+01,	 6.0205318634012633e+02,	 5.9409259995964831e+03,	 4.9243216893790247e+02,	 3.1559010574814508e+00 
1.7615490000000000e+00,	 2.5195649999999997e-01,	 3.3952159184954284e-02,	 1.5554368263297508e+03,	 -3.2194313890097739e+01,	 5.9969941726022216e+02,	 5.8577517535864290e+03,	 4.9146862723813013e+02,	 3.1655529614058597e+00 
1.7679730000000000e+00,	 2.5182080000000001e-01,	 3.3611674141975259e-02,	 1.5571322565623359e+03,	 -3.2231516238913898e+01,	 5.9737630301790034e+02,	 5.7765438281478910e+03,	 4.9051577853021905e+02,	 3.1751594415394573e+00 
1.7744510000000000e+00,	 2.5168390000000002e-01,	 3.3277703389240354e-02,	 1.5588154891428615e+03,	 -3.2287224730830033e+01,	 5.9509125393489774e+02,	 5.6972706529556635e+03,	 4.8957673346411667e+02,	 3.1846893938519876e+00 
1.7809839999999999e+00,	 2.5154579999999999e-01,	 3.2954403256507669e-02,	 1.5604761923316714e+03,	 -3.2343224325673717e+01,	 5.9286753176244429e+02,	 5.6208378406073607e+03,	 4.8866115826843799e+02,	 3.1940564765627650e+00 
1.7875710000000000e+00,	 2.5140659999999998e-01,	 3.2644242324653391e-02,	 1.5621055958406264e+03,	 -3.2399492392618384e+01,	 5.9072392941439318e+02,	 5.5478038090362661e+03,	 4.8777694408053537e+02,	 3.2031886216858534e+00 
1.7942140000000000e+00,	 2.5126620000000000e-01,	 3.2349821317887807e-02,	 1.5636928524587474e+03,	 -3.2461613794022377e+01,	 5.8868086979219777e+02,	 5.4787533166795774e+03,	 4.8693270831455720e+02,	 3.2120039058043730e+00 
1.8009120000000001e+00,	 2.5112469999999998e-01,	 3.2074195051555801e-02,	 1.5652274678826632e+03,	 -3.2534103370933899e+01,	 5.8676141701361405e+02,	 5.4143615402616351e+03,	 4.8613821378629279e+02,	 3.2204124392624136e+00 
1.8076669999999999e+00,	 2.5098189999999998e-01,	 3.1821010498915017e-02,	 1.5666910560720680e+03,	 -3.2617428349878239e+01,	 5.8499721137221900e+02,	 5.3554713482093748e+03,	 4.8540683183604199e+02,	 3.2282828602821043e+00 
1.8144780000000000e+00,	 2.5083800000000001e-01,	 3.1595969975156429e-02,	 1.5680676070799652e+03,	 -3.2699267717868977e+01,	 5.8342320836898148e+02,	 5.3032894483667233e+03,	 4.8475337023152593e+02,	 3.2354772734813992e+00 
1.8213459999999999e+00,	 2.5069290000000000e-01,	 3.1401414723784243e-02,	 1.5693415376318096e+03,	 -3.2800041302500084e+01,	 5.8206670145602379e+02,	 5.2583792718317081e+03,	 4.8418949656298605e+02,	 3.2418800493902196e+00 
1.8282719999999999e+00,	 2.5054650000000001e-01,	 3.1242573623565827e-02,	 1.5704920689751179e+03,	 -3.2912101842764145e+01,	 5.8096681607150185e+02,	 5.2218941741772514e+03,	 4.8373181296070726e+02,	 3.2473301344909058e+00 
1.8352560000000000e+00,	 2.5039889999999998e-01,	 3.1125007873901950e-02,	 1.5715043638186423e+03,	 -3.3023112498295909e+01,	 5.8015560210132321e+02,	 5.1949802124140133e+03,	 4.8339397345631130e+02,	 3.2516981605761415e+00 
1.8422980000000000e+00,	 2.5025009999999998e-01,	 3.1051926523079934e-02,	 1.5723745470317492e+03,	 -3.3142127173173748e+01,	 5.7964513010159999e+02,	 5.1782221583733008e+03,	 4.8318126035711953e+02,	 3.2549354002685615e+00 
1.8493999999999999e+00,	 2.5009999999999999e-01,	 3.1026001642591838e-02,	 1.5728451661836934e+03,	 -3.3227571817654052e+01,	 5.7945777134204729e+02,	 5.1722265629676767e+03,	 4.8310316467976111e+02,	 3.2564392476387192e+00 
1.3750690000000001e+00,	 2.6096219999999998e-01,	 4.8084963171511709e-02,	 1.5022854014862251e+03,	 -3.0845937497353155e+01,	 6.7172756159334961e+02,	 9.2924962259987533e+03,	 5.2014636841548986e+02,	 2.8888061787194022e+00 
1.3782630000000000e+00,	 2.6089599999999996e-01,	 4.7994161584593263e-02,	 1.5025779427890059e+03,	 -3.0707063865637256e+01,	 6.7123950376725850e+02,	 9.2682097641870296e+03,	 5.1995737242276698e+02,	 2.8904132500408322e+00 
1.3814839999999999e+00,	 2.6082929999999999e-01,	 4.7835675997973261e-02,	 1.5031632145526578e+03,	 -3.0519793829022344e+01,	 6.7038932106089192e+02,	 9.2259042011252332e+03,	 5.1962798266791674e+02,	 2.8933642246692091e+00 
1.3847309999999999e+00,	 2.6076210000000000e-01,	 4.7648221682146177e-02,	 1.5038488426576391e+03,	 -3.0345152483153942e+01,	 6.6938732627154138e+02,	 9.1760150996746015e+03,	 5.1923950748453910e+02,	 2.8968422991911078e+00 
1.3880049999999999e+00,	 2.6069429999999999e-01,	 4.7433033383061853e-02,	 1.5046313413878995e+03,	 -3.0181008651054071e+01,	 6.6823899485282811e+02,	 9.1189041678732119e+03,	 5.1879393960740776e+02,	 2.9008318959656001e+00 
1.3913070000000001e+00,	 2.6062589999999997e-01,	 4.7192032531282166e-02,	 1.5055017339014480e+03,	 -3.0023474721881172e+01,	 6.6695502342663042e+02,	 9.0551399730137673e+03,	 5.1829528801658932e+02,	 2.9052957080519621e+00 
1.3946360000000000e+00,	 2.6055689999999998e-01,	 4.6927773137340395e-02,	 1.5064591175801618e+03,	 -2.9871079464160225e+01,	 6.6554265189002945e+02,	 8.9853660946430009e+03,	 5.1774621541095769e+02,	 2.9102197090058928e+00 
1.3979919999999999e+00,	 2.6048739999999998e-01,	 4.6639876409484984e-02,	 1.5074985037073147e+03,	 -2.9742267720850265e+01,	 6.6400245076061537e+02,	 8.9095754648093862e+03,	 5.1714678335817769e+02,	 2.9155975140268229e+00 
1.4013770000000001e+00,	 2.6041729999999996e-01,	 4.6332598997553910e-02,	 1.5086102694449405e+03,	 -2.9612471044840014e+01,	 6.6235271802592092e+02,	 8.8288862739009637e+03,	 5.1650395097348587e+02,	 2.9213733405460882e+00 
1.4047890000000001e+00,	 2.6034669999999999e-01,	 4.6006233686052167e-02,	 1.5097934184701430e+03,	 -2.9493982903847410e+01,	 6.6059510194588802e+02,	 8.7434326245608881e+03,	 5.1581819950819056e+02,	 2.9275459387708032e+00 
1.4082300000000001e+00,	 2.6027539999999999e-01,	 4.5661147679935260e-02,	 1.5110468861096633e+03,	 -2.9399500218721943e+01,	 6.5873063485952889e+02,	 8.6533570120048353e+03,	 5.1508976115980659e+02,	 2.9341155210457179e+00 
1.4117000000000000e+00,	 2.6020349999999998e-01,	 4.5299605794515946e-02,	 1.5123596386220997e+03,	 -2.9317799916049946e+01,	 6.5677066587324498e+02,	 8.5592972178389336e+03,	 5.1432289836563189e+02,	 2.9410391533754998e+00 
1.4151980000000000e+00,	 2.6013110000000000e-01,	 4.4925926916242767e-02,	 1.5137247401552841e+03,	 -2.9222923258430576e+01,	 6.5473326260857789e+02,	 8.4623578950796946e+03,	 5.1352452448627162e+02,	 2.9482657993178458e+00 
1.4187259999999999e+00,	 2.6005800000000001e-01,	 4.4538613363413519e-02,	 1.5151447350295778e+03,	 -2.9147587195291955e+01,	 6.5261209428882626e+02,	 8.3622230446689427e+03,	 5.1269200559066451e+02,	 2.9558195872602924e+00 
1.4222830000000000e+00,	 2.5998440000000000e-01,	 4.4139265128145755e-02,	 1.5166137770442124e+03,	 -2.9094828527213807e+01,	 6.5041298646076893e+02,	 8.2593189925971692e+03,	 5.1182746720600710e+02,	 2.9636800039296731e+00 
1.4258700000000000e+00,	 2.5991009999999998e-01,	 4.3731008868216556e-02,	 1.5181200133470500e+03,	 -2.9048750662100659e+01,	 6.4815425710175771e+02,	 8.1545089154071720e+03,	 5.1093796684625295e+02,	 2.9717852377554932e+00 
1.4294860000000000e+00,	 2.5983519999999999e-01,	 4.3315747125740232e-02,	 1.5196623840176985e+03,	 -2.9013803946699472e+01,	 6.4584119055338692e+02,	 8.0482505362893671e+03,	 5.1002546045314887e+02,	 2.9801244179371071e+00 
1.4331330000000000e+00,	 2.5975969999999998e-01,	 4.2893961784762992e-02,	 1.5212338371476317e+03,	 -2.8998082608130893e+01,	 6.4347947448671096e+02,	 7.9407367109363040e+03,	 5.0909207423677799e+02,	 2.9886739017333825e+00 
1.4368099999999999e+00,	 2.5968350000000001e-01,	 4.2468799693733739e-02,	 1.5228274390728136e+03,	 -2.8987218268221870e+01,	 6.4108345683253469e+02,	 7.8327541273404331e+03,	 5.0814337948384923e+02,	 2.9973888538456119e+00 
1.4405180000000000e+00,	 2.5960669999999997e-01,	 4.2041012581730652e-02,	 1.5244387433304432e+03,	 -2.8986882741146097e+01,	 6.3865765608056677e+02,	 7.7245151261155243e+03,	 5.0718108444009329e+02,	 3.0062523129250747e+00 
1.4442560000000000e+00,	 2.5952929999999996e-01,	 4.1612798336829099e-02,	 1.5260616132976647e+03,	 -2.8984491219427401e+01,	 6.3621326922657204e+02,	 7.6165725289032780e+03,	 5.0620956606457543e+02,	 3.0152271747737736e+00 
1.4480260000000000e+00,	 2.5945119999999999e-01,	 4.1183774996810106e-02,	 1.5276992412799450e+03,	 -2.8999821071060310e+01,	 6.3374714300152789e+02,	 7.5088271034929749e+03,	 5.0522751424775328e+02,	 3.0243294763552235e+00 
1.4518270000000000e+00,	 2.5937250000000001e-01,	 4.0754716782019591e-02,	 1.5293420642815975e+03,	 -2.9024665703495980e+01,	 6.3126689349797482e+02,	 7.4015185248480284e+03,	 5.0423790921202726e+02,	 3.0335233315437367e+00 
1.4556600000000000e+00,	 2.5929310000000000e-01,	 4.0328709057524309e-02,	 1.5309890305796907e+03,	 -2.9040721952271845e+01,	 6.2878367979351492e+02,	 7.2953396918198760e+03,	 5.0324517198529719e+02,	 3.0427801835027659e+00 
1.4595250000000000e+00,	 2.5921309999999997e-01,	 3.9903281264890039e-02,	 1.5326422876373031e+03,	 -2.9085220188804346e+01,	 6.2628783810909999e+02,	 7.1897290677489991e+03,	 5.0224540912284061e+02,	 3.0521299201554255e+00 
1.4634220000000000e+00,	 2.5913239999999998e-01,	 3.9481785011784627e-02,	 1.5342883939113767e+03,	 -2.9130942391749208e+01,	 6.2379901078820842e+02,	 7.0855146208281558e+03,	 5.0124647033590810e+02,	 3.0614977038180142e+00 
1.4673510000000001e+00,	 2.5905099999999998e-01,	 3.9066266831358366e-02,	 1.5359248750122583e+03,	 -2.9172037237282883e+01,	 6.2132613081304385e+02,	 6.9831515684094929e+03,	 5.0025195670639152e+02,	 3.0708563229824564e+00 
1.4713130000000001e+00,	 2.5896900000000000e-01,	 3.8655834745907655e-02,	 1.5375528323917224e+03,	 -2.9238873038621911e+01,	 6.1886547729827157e+02,	 6.8824212405144353e+03,	 4.9926039379678718e+02,	 3.0802179321256968e+00 
1.4753090000000000e+00,	 2.5888620000000001e-01,	 3.8252811877059048e-02,	 1.5391578269855215e+03,	 -2.9324027388473539e+01,	 6.1643409686485006e+02,	 6.7839080843858801e+03,	 4.9827868886993872e+02,	 3.0895103014458765e+00 
1.4793369999999999e+00,	 2.5880280000000000e-01,	 3.7861166380623444e-02,	 1.5407321707933027e+03,	 -2.9415066493115056e+01,	 6.1405111968510482e+02,	 6.6884957297265100e+03,	 4.9731464704628615e+02,	 3.0986679055941297e+00 
1.4834000000000001e+00,	 2.5871859999999997e-01,	 3.7481878569180796e-02,	 1.5422632744276609e+03,	 -2.9530396930556762e+01,	 6.1172933435850268e+02,	 6.5964548406262684e+03,	 4.9637355977427825e+02,	 3.1076312062344149e+00 
1.4874959999999999e+00,	 2.5863379999999997e-01,	 3.7119632698064078e-02,	 1.5437403701379540e+03,	 -2.9662891171030800e+01,	 6.0949132959274129e+02,	 6.5088031866891652e+03,	 4.9546473929268893e+02,	 3.1163172812252493e+00 
1.4916259999999999e+00,	 2.5854830000000001e-01,	 3.6776045294917736e-02,	 1.5451483273247318e+03,	 -2.9840190214246125e+01,	 6.0735485997408352e+02,	 6.4259519547136269e+03,	 4.9459559269544735e+02,	 3.1246466060824836e+00 
1.4957910000000001e+00,	 2.5846199999999997e-01,	 3.6456976994591862e-02,	 1.5464664432953077e+03,	 -3.0053971582844625e+01,	 6.0535435149034345e+02,	 6.3492183139945500e+03,	 4.9378037012386864e+02,	 3.1324826647605608e+00 