TITLE = "Final State"
VARIABLES = "X", "Y", "rho", "u", "v", "T", "p", "c", "M"
ZONE I=102, J=27, DATAPACKING=POINT, STRANDID=68000, SOLUTIONTIME=0.001641
1.0567150000000001e+00,	 2.6685149999999996e-01,	 4.8001622575190570e-02,	 1.4679277472565930e+03,	 -3.1227077598205810e+01,	 7.1939137378761654e+02,	 9.9346159113749782e+03,	 5.3828415929362541e+02,	 2.7276668457734834e+00 
1.0574060000000001e+00,	 2.6683689999999999e-01,	 4.8034938337426461e-02,	 1.4678558478750749e+03,	 -3.1227895112972178e+01,	 7.1951880641271123e+02,	 9.9432721146682634e+03,	 5.3833183287473480e+02,	 2.7272917920167985e+00 
1.0581020000000001e+00,	 2.6682220000000001e-01,	 4.8073339888008090e-02,	 1.4677575299730897e+03,	 -3.1238579116882278e+01,	 7.1966409909593415e+02,	 9.9532307210968538e+03,	 5.3838618289841349e+02,	 2.7268343197778560e+00 
1.0588010000000001e+00,	 2.6680739999999997e-01,	 4.8109628286031519e-02,	 1.4676597767253093e+03,	 -3.1261385068379909e+01,	 7.1980684805879991e+02,	 9.9627197296982849e+03,	 5.3843957604294269e+02,	 2.7263833130157953e+00 
1.0595049999999999e+00,	 2.6679249999999999e-01,	 4.8147873256301862e-02,	 1.4675647361480892e+03,	 -3.1273294200681157e+01,	 7.1994969465695988e+02,	 9.9726183258747242e+03,	 5.3849300040699598e+02,	 2.7259368436201652e+00 
1.0602130000000001e+00,	 2.6677750000000000e-01,	 4.8188247696388103e-02,	 1.4674573235283592e+03,	 -3.1256206145868354e+01,	 7.2011444073044913e+02,	 9.9832648211005962e+03,	 5.3855460855372962e+02,	 2.7254249324121251e+00 
1.0609249999999999e+00,	 2.6676250000000001e-01,	 4.8234011448277311e-02,	 1.4673447630277401e+03,	 -3.1203828876259436e+01,	 7.2029364757136295e+02,	 9.9952325808944515e+03,	 5.3862161642139586e+02,	 2.7248748720537526e+00 
1.0616410000000001e+00,	 2.6674739999999997e-01,	 4.8272601475183766e-02,	 1.4672403981936313e+03,	 -3.1222084328575345e+01,	 7.2044700891398202e+02,	 1.0005359188727401e+04,	 5.3867895368801646e+02,	 2.7243918573510126e+00 
1.0623620000000000e+00,	 2.6673209999999997e-01,	 4.8308535956169282e-02,	 1.4671396732027101e+03,	 -3.1245457238851845e+01,	 7.2059019989752346e+02,	 1.0014797327177961e+04,	 5.3873248304962590e+02,	 2.7239351563235208e+00 
1.0630869999999999e+00,	 2.6671679999999998e-01,	 4.8353303478208758e-02,	 1.4670263533435195e+03,	 -3.1214106834353124e+01,	 7.2076671023692086e+02,	 1.0026533462765119e+04,	 5.3879846093199808e+02,	 2.7233900900464363e+00 
1.0638170000000000e+00,	 2.6670139999999998e-01,	 4.8395587696799490e-02,	 1.4669154748368030e+03,	 -3.1204362561804572e+01,	 7.2093488016627884e+02,	 1.0037642957199630e+04,	 5.3886131373385399e+02,	 2.7228663312013683e+00 
1.0645500000000001e+00,	 2.6668589999999998e-01,	 4.8436165313823373e-02,	 1.4668066355803580e+03,	 -3.1208742275120358e+01,	 7.2109553160648989e+02,	 1.0048297729012695e+04,	 5.3892134968602136e+02,	 2.7223612642692054e+00 
1.0652889999999999e+00,	 2.6667029999999997e-01,	 4.8479242325490210e-02,	 1.4666930957851480e+03,	 -3.1204276353348497e+01,	 7.2126662160241017e+02,	 1.0059620465930238e+04,	 5.3898527920641891e+02,	 2.7218275792829085e+00 
1.0660320000000001e+00,	 2.6665459999999996e-01,	 4.8521494545058164e-02,	 1.4665790426664880e+03,	 -3.1206267103053534e+01,	 7.2143664773610271e+02,	 1.0070761404706291e+04,	 5.3904880369258171e+02,	 2.7212953683573722e+00 
1.0667800000000001e+00,	 2.6663880000000001e-01,	 4.8564542076855947e-02,	 1.4664644823562016e+03,	 -3.1209848579010618e+01,	 7.2160795589846043e+02,	 1.0082089497178740e+04,	 5.3911279959512331e+02,	 2.7207600259664466e+00 
1.0675319999999999e+00,	 2.6662290000000000e-01,	 4.8607338113274091e-02,	 1.4663480181301522e+03,	 -3.1217808693443004e+01,	 7.2178101393757265e+02,	 1.0093394079772583e+04,	 5.3917744148974987e+02,	 2.7202181940742425e+00 
1.0682890000000000e+00,	 2.6660689999999998e-01,	 4.8651809476638545e-02,	 1.4662271789899630e+03,	 -3.1216536412799137e+01,	 7.2196247088286373e+02,	 1.0105168449472969e+04,	 5.3924521228259380e+02,	 2.7196522359886788e+00 
1.0690510000000000e+00,	 2.6659080000000002e-01,	 4.8697903774819140e-02,	 1.4661084020666381e+03,	 -3.1210209468808607e+01,	 7.2214231237422791e+02,	 1.0117262004263101e+04,	 5.3931237133066293e+02,	 2.7190931278507144e+00 
1.0698179999999999e+00,	 2.6657459999999999e-01,	 4.8744745902795358e-02,	 1.4659852470121618e+03,	 -3.1204521873029428e+01,	 7.2232840741360974e+02,	 1.0129603430234640e+04,	 5.3938185686711597e+02,	 2.7185143433675729e+00 
1.0705899999999999e+00,	 2.6655829999999997e-01,	 4.8788545620034693e-02,	 1.4658682418234951e+03,	 -3.1239091594809672e+01,	 7.2249995130999491e+02,	 1.0141113226342068e+04,	 5.3944590126266405e+02,	 2.7179761093088013e+00 
1.0713660000000000e+00,	 2.6654180000000000e-01,	 4.8830562906477595e-02,	 1.4657496504169767e+03,	 -3.1265766247061023e+01,	 7.2267056298670002e+02,	 1.0152243668289659e+04,	 5.3950959008148811e+02,	 2.7174365442023913e+00 
1.0721480000000001e+00,	 2.6652529999999997e-01,	 4.8884677726326611e-02,	 1.4656104590946682e+03,	 -3.1217217047132891e+01,	 7.2289023347516104e+02,	 1.0166583950879658e+04,	 5.3959158133476944e+02,	 2.7167638125259743e+00 
1.0729350000000000e+00,	 2.6650869999999999e-01,	 4.8935900751222436e-02,	 1.4654729391235060e+03,	 -3.1190134360261553e+01,	 7.2310005717161357e+02,	 1.0180190853343969e+04,	 5.3966988567509020e+02,	 2.7161137860555078e+00 
1.0737260000000000e+00,	 2.6649200000000001e-01,	 4.8983285286947911e-02,	 1.4653439020145352e+03,	 -3.1215061108114185e+01,	 7.2328862703717186e+02,	 1.0192705670414540e+04,	 5.3974024858202745e+02,	 2.7155216662522368e+00 
1.0745229999999999e+00,	 2.6647509999999996e-01,	 4.9031546530919040e-02,	 1.4652110148835050e+03,	 -3.1210035303594267e+01,	 7.2348348061568879e+02,	 1.0205496744860980e+04,	 5.3981294655675106e+02,	 2.7149096450833734e+00 
1.0753260000000000e+00,	 2.6645819999999998e-01,	 4.9086402734280249e-02,	 1.4650715634179162e+03,	 -3.1195340273018761e+01,	 7.2369866823932580e+02,	 1.0219953438262353e+04,	 5.3989321959134725e+02,	 2.7142471682083569e+00 
1.0761330000000000e+00,	 2.6644109999999999e-01,	 4.9132957057419928e-02,	 1.4649410971731686e+03,	 -3.1229659029979430e+01,	 7.2388630300721024e+02,	 1.0232298464610150e+04,	 5.3996320464037194e+02,	 2.7136551605404424e+00 
1.0769460000000000e+00,	 2.6642389999999999e-01,	 4.9185334154511928e-02,	 1.4648058711976673e+03,	 -3.1234793113545585e+01,	 7.2408958773384279e+02,	 1.0246082918330156e+04,	 5.4003901666141655e+02,	 2.7130240700364405e+00 
1.0777639999999999e+00,	 2.6640659999999999e-01,	 4.9239194506954818e-02,	 1.4646585595377692e+03,	 -3.1221944887314372e+01,	 7.2431231889580874e+02,	 1.0260458044921412e+04,	 5.4012206872520471e+02,	 2.7123337181232068e+00 
1.0785880000000001e+00,	 2.6638919999999999e-01,	 4.9295510686614016e-02,	 1.4645102004502767e+03,	 -3.1198740001102198e+01,	 7.2453807440536536e+02,	 1.0275394867727626e+04,	 5.4020623547886407e+02,	 2.7116356363601337e+00 
1.0794170000000001e+00,	 2.6637169999999999e-01,	 4.9352291159826381e-02,	 1.4643574741569271e+03,	 -3.1173831734206026e+01,	 7.2476841595548558e+02,	 1.0290500929689411e+04,	 5.4029209849830738e+02,	 2.7109211131990611e+00 
1.0802520000000000e+00,	 2.6635409999999998e-01,	 4.9407520879729001e-02,	 1.4642099434363008e+03,	 -3.1182946588248782e+01,	 7.2498766089266906e+02,	 1.0305133335337532e+04,	 5.4037381242760057e+02,	 2.7102385796241397e+00 
1.0810919999999999e+00,	 2.6633629999999997e-01,	 4.9458183814376305e-02,	 1.4640683744798198e+03,	 -3.1223041660858019e+01,	 7.2519072983616115e+02,	 1.0318589741805530e+04,	 5.4044948644394310e+02,	 2.7095987840950153e+00 
1.0819380000000001e+00,	 2.6631840000000001e-01,	 4.9515327063778466e-02,	 1.4639184508727560e+03,	 -3.1221340880839101e+01,	 7.2541685356390281e+02,	 1.0333732872231561e+04,	 5.4053373940144058e+02,	 2.7088990729182472e+00 
1.0827899999999999e+00,	 2.6630039999999999e-01,	 4.9575013440073812e-02,	 1.4637556885774916e+03,	 -3.1193687601543655e+01,	 7.2566481126034182e+02,	 1.0349725752472868e+04,	 5.4062611253068030e+02,	 2.7081341372249965e+00 
1.0836479999999999e+00,	 2.6628229999999997e-01,	 4.9636137314743506e-02,	 1.4635953409181832e+03,	 -3.1163300701718747e+01,	 7.2590874126069093e+02,	 1.0365969840440050e+04,	 5.4071696980065974e+02,	 2.7073814105128773e+00 
1.0845110000000000e+00,	 2.6626410000000000e-01,	 4.9694229220995395e-02,	 1.4634392193588640e+03,	 -3.1172795466467669e+01,	 7.2614026181540737e+02,	 1.0381411686685593e+04,	 5.4080319077136164e+02,	 2.7066615237483584e+00 
1.0853800000000000e+00,	 2.6624569999999997e-01,	 4.9750100771929096e-02,	 1.4632873698906567e+03,	 -3.1191551225250034e+01,	 7.2636161505853420e+02,	 1.0396251756167574e+04,	 5.4088561246384018e+02,	 2.7059691350927224e+00 
1.0862560000000001e+00,	 2.6622720000000000e-01,	 4.9811106698557310e-02,	 1.4631229972655553e+03,	 -3.1176912648401796e+01,	 7.2661016509103888e+02,	 1.0412561935259166e+04,	 5.4097814601403570e+02,	 2.7052019319217355e+00 
1.0871370000000000e+00,	 2.6620859999999996e-01,	 4.9870732924370220e-02,	 1.4629665859344286e+03,	 -3.1181695785089637e+01,	 7.2684467116798737e+02,	 1.0428390830906113e+04,	 5.4106543658232965e+02,	 2.7044766730147232e+00 
1.0880250000000000e+00,	 2.6618979999999998e-01,	 4.9928254787793142e-02,	 1.4628103150388629e+03,	 -3.1196493524830412e+01,	 7.2707485320700198e+02,	 1.0443725479513287e+04,	 5.4115110391375049e+02,	 2.7037604123096330e+00 
1.0889190000000000e+00,	 2.6617089999999999e-01,	 4.9990038887255200e-02,	 1.4626468195849916e+03,	 -3.1181312413784262e+01,	 7.2732216397410957e+02,	 1.0460205922573448e+04,	 5.4124313096940125e+02,	 2.7029980912546332e+00 
1.0898190000000001e+00,	 2.6615190000000000e-01,	 5.0053952197698232e-02,	 1.4624807892219860e+03,	 -3.1148780012391704e+01,	 7.2757541250728104e+02,	 1.0477226342406930e+04,	 5.4133735132060974e+02,	 2.7022197167890467e+00 
1.0907249999999999e+00,	 2.6613280000000000e-01,	 5.0116215246925305e-02,	 1.4623172270111077e+03,	 -3.1134464630231335e+01,	 7.2782159416984132e+02,	 1.0493808633831757e+04,	 5.4142892674751477e+02,	 2.7014600846060963e+00 
1.0916380000000001e+00,	 2.6611350000000000e-01,	 5.0172317538027290e-02,	 1.4621662925894639e+03,	 -3.1176778276585296e+01,	 7.2804040698525364e+02,	 1.0508714261806361e+04,	 5.4151030842521459e+02,	 2.7007770908398330e+00 
1.0925570000000000e+00,	 2.6609400000000000e-01,	 5.0230396501597809e-02,	 1.4620122986542272e+03,	 -3.1182038004698857e+01,	 7.2826745050912541e+02,	 1.0524160038071304e+04,	 5.4159473837138864e+02,	 2.7000720004291470e+00 
1.0934820000000001e+00,	 2.6607449999999999e-01,	 5.0296270952452884e-02,	 1.4618468467478733e+03,	 -3.1143326705264123e+01,	 7.2852470742589310e+02,	 1.0541684388825572e+04,	 5.4169038777208959e+02,	 2.6992883432029204e+00 
1.0944140000000000e+00,	 2.6605479999999998e-01,	 5.0354283422389387e-02,	 1.4616926735757565e+03,	 -3.1156410324948602e+01,	 7.2875210686116475e+02,	 1.0557137568822982e+04,	 5.4177492195209300e+02,	 2.6985831766377872e+00 
1.0953530000000000e+00,	 2.6603489999999996e-01,	 5.0413775481557087e-02,	 1.4615302211181165e+03,	 -3.1148377491135850e+01,	 7.2899282981085821e+02,	 1.0573101883055599e+04,	 5.4186439468765923e+02,	 2.6978375355422188e+00 
1.0962980000000000e+00,	 2.6601500000000000e-01,	 5.0478380632952111e-02,	 1.4613718923990384e+03,	 -3.1123386399522083e+01,	 7.2923703683204189e+02,	 1.0590197738945581e+04,	 5.4195514730141372e+02,	 2.6970927120679962e+00 
1.0972510000000000e+00,	 2.6599479999999998e-01,	 5.0535634138815504e-02,	 1.4612119779943469e+03,	 -3.1128151386558176e+01,	 7.2947017782778698e+02,	 1.0605598918853015e+04,	 5.4204177336336181e+02,	 2.6963669097252136e+00 
1.0982099999999999e+00,	 2.6597460000000001e-01,	 5.0601385352936012e-02,	 1.4610494682552717e+03,	 -3.1089094308592543e+01,	 7.2972120853144713e+02,	 1.0623052142948818e+04,	 5.4213503106439589e+02,	 2.6956018581387293e+00 
1.0991759999999999e+00,	 2.6595419999999997e-01,	 5.0658725781273173e-02,	 1.4609003395955283e+03,	 -3.1111391838476528e+01,	 7.2993983154838531e+02,	 1.0638276214497004e+04,	 5.4221623626899657e+02,	 2.6949240524755527e+00 
1.1001479999999999e+00,	 2.6593359999999999e-01,	 5.0715121519372353e-02,	 1.4607498711732283e+03,	 -3.1130028544096611e+01,	 7.3015901752350510e+02,	 1.0653317269528196e+04,	 5.4229763837154405e+02,	 2.6942428585881157e+00 
1.1011280000000001e+00,	 2.6591290000000001e-01,	 5.0776497474815219e-02,	 1.4605938681642392e+03,	 -3.1123959772190563e+01,	 7.3039581934062119e+02,	 1.0669669238567392e+04,	 5.4238556898178263e+02,	 2.6935182756773779e+00 
1.1021150000000000e+00,	 2.6589199999999996e-01,	 5.0835703283652979e-02,	 1.4604390244972392e+03,	 -3.1124453883187613e+01,	 7.3062609008171944e+02,	 1.0685477891705263e+04,	 5.4247106076669627e+02,	 2.6928084282684974e+00 
1.1031089999999999e+00,	 2.6587099999999997e-01,	 5.0900750158875602e-02,	 1.4602717425051869e+03,	 -3.1081063780449696e+01,	 7.3088172434279409e+02,	 1.0702893965529773e+04,	 5.4256595339564353e+02,	 2.6920275173963351e+00 
1.1041110000000001e+00,	 2.6584989999999997e-01,	 5.0965741953540908e-02,	 1.4601078322839167e+03,	 -3.1048711441816895e+01,	 7.3113135882509437e+02,	 1.0720220049365666e+04,	 5.4265860286484974e+02,	 2.6912646506792117e+00 
1.1051190000000000e+00,	 2.6582859999999997e-01,	 5.1023474564388785e-02,	 1.4599554415494160e+03,	 -3.1074508442022225e+01,	 7.3135202770850537e+02,	 1.0735602848640774e+04,	 5.4274048885726324e+02,	 2.6905789004048009e+00 
1.1061350000000001e+00,	 2.6580709999999996e-01,	 5.1083556096808286e-02,	 1.4597960628649530e+03,	 -3.1074836746956933e+01,	 7.3158698487745073e+02,	 1.0751697338994141e+04,	 5.4282766338032854e+02,	 2.6898532823811303e+00 
1.1071590000000000e+00,	 2.6578550000000001e-01,	 5.1147385541076430e-02,	 1.4596327802731143e+03,	 -3.1062114440679643e+01,	 7.3183462895863136e+02,	 1.0768775723513048e+04,	 5.4291952988874084e+02,	 2.6890969570944496e+00 
1.1081900000000000e+00,	 2.6576369999999999e-01,	 5.1206718077197663e-02,	 1.4594792324245186e+03,	 -3.1085470396005462e+01,	 7.3206041338541809e+02,	 1.0784594052851327e+04,	 5.4300327375429174e+02,	 2.6884004395575394e+00 
1.1092290000000000e+00,	 2.6574169999999997e-01,	 5.1267962495896158e-02,	 1.4593228281756521e+03,	 -3.1093123785814790e+01,	 7.3229259639965881e+02,	 1.0800917249769331e+04,	 5.4308937740054023e+02,	 2.6876865849560181e+00 
1.1102749999999999e+00,	 2.6571960000000000e-01,	 5.1332277371548996e-02,	 1.4591578829001533e+03,	 -3.1082315463395716e+01,	 7.3254192734104663e+02,	 1.0818148944487526e+04,	 5.4318182505216305e+02,	 2.6869251302096493e+00 
1.1113290000000000e+00,	 2.6569729999999997e-01,	 5.1396510902917067e-02,	 1.4589909477269630e+03,	 -3.1068511585124668e+01,	 7.3279145764460191e+02,	 1.0835375664847152e+04,	 5.4327433087340853e+02,	 2.6861598677159035e+00 
1.1123909999999999e+00,	 2.6567489999999999e-01,	 5.1463626553372811e-02,	 1.4588220902795283e+03,	 -3.1046671908675517e+01,	 7.3304760685614406e+02,	 1.0853317418693447e+04,	 5.4336927407402993e+02,	 2.6853789685057881e+00 
1.1134599999999999e+00,	 2.6565230000000001e-01,	 5.1525842354221078e-02,	 1.4586566760720775e+03,	 -3.1056196868501665e+01,	 7.3328997211866931e+02,	 1.0870031031037186e+04,	 5.4345909290158306e+02,	 2.6846312183380330e+00 
1.1145380000000000e+00,	 2.6562949999999996e-01,	 5.1591360947266310e-02,	 1.4584863649667311e+03,	 -3.1046029075910585e+01,	 7.3354346449876766e+02,	 1.0887615470067027e+04,	 5.4355301947931900e+02,	 2.6838536545254121e+00 
1.1156239999999999e+00,	 2.6560659999999997e-01,	 5.1659726750053411e-02,	 1.4583125247282592e+03,	 -3.1025596366668211e+01,	 7.3380677346829020e+02,	 1.0905956431497520e+04,	 5.4365056621721044e+02,	 2.6830516011310599e+00 
1.1167170000000000e+00,	 2.6558349999999997e-01,	 5.1723862464275336e-02,	 1.4581473731228966e+03,	 -3.1037444710533123e+01,	 7.3404955086009625e+02,	 1.0923108887857217e+04,	 5.4374049121948326e+02,	 2.6823046720855253e+00 
1.1178189999999999e+00,	 2.6556019999999997e-01,	 5.1789184355366072e-02,	 1.4579813248508015e+03,	 -3.1049588158309604e+01,	 7.3429531082078017e+02,	 1.0940565323042991e+04,	 5.4383150582377732e+02,	 2.6815509808093263e+00 
1.1189300000000000e+00,	 2.6553670000000001e-01,	 5.1856779709273187e-02,	 1.4578067536195881e+03,	 -3.1044013302904183e+01,	 7.3455592593447261e+02,	 1.0958733051229661e+04,	 5.4392800523902895e+02,	 2.6807541502528314e+00 
1.1200479999999999e+00,	 2.6551310000000000e-01,	 5.1927299498778355e-02,	 1.4576252374785677e+03,	 -3.1020179858257521e+01,	 7.3482980983899483e+02,	 1.0977727371210243e+04,	 5.4402939931726428e+02,	 2.6799200135744403e+00 
1.1211750000000000e+00,	 2.6548929999999998e-01,	 5.1996371916245711e-02,	 1.4574478932084455e+03,	 -3.1015675202985591e+01,	 7.3509343730007731e+02,	 1.0996273281311722e+04,	 5.4412697852965437e+02,	 2.6791133921988024e+00 
1.1223110000000001e+00,	 2.6546530000000002e-01,	 5.2064841328383800e-02,	 1.4572730539713020e+03,	 -3.1025948703012197e+01,	 7.3535199500389649e+02,	 1.1014626160182299e+04,	 5.4422266422481039e+02,	 2.6783215585061266e+00 
1.1234550000000001e+00,	 2.6544109999999999e-01,	 5.2132297641101506e-02,	 1.4570982458203066e+03,	 -3.1050951276465682e+01,	 7.3560888215925524e+02,	 1.1032749767656020e+04,	 5.4431771503411278e+02,	 2.6775337599683584e+00 
1.1246069999999999e+00,	 2.6541670000000001e-01,	 5.2203675142551767e-02,	 1.4569127773327023e+03,	 -3.1037745554657764e+01,	 7.3588483890624309e+02,	 1.1051999875749569e+04,	 5.4441980329389332e+02,	 2.6766905642010630e+00 
1.1257690000000000e+00,	 2.6539219999999997e-01,	 5.2278568240716021e-02,	 1.4567224718781251e+03,	 -3.1030426625548252e+01,	 7.3617358336921075e+02,	 1.1072198210488423e+04,	 5.4452660178884514e+02,	 2.6758158875772371e+00 
1.1269389999999999e+00,	 2.6536739999999998e-01,	 5.2348046596998141e-02,	 1.4565377116322768e+03,	 -3.1044379892862352e+01,	 7.3644194624937018e+02,	 1.1090954787023727e+04,	 5.4462584292936867e+02,	 2.6749896834958826e+00 
1.1281180000000000e+00,	 2.6534249999999998e-01,	 5.2426292889585460e-02,	 1.4563418876871992e+03,	 -3.1013183548373014e+01,	 7.3673862461164458e+02,	 1.1112007501075461e+04,	 5.4473553415084780e+02,	 2.6740904088062254e+00 
1.1293070000000001e+00,	 2.6531739999999998e-01,	 5.2502723560709869e-02,	 1.4561459264895198e+03,	 -3.0999881239742141e+01,	 7.3703117675152748e+02,	 1.1132626262085414e+04,	 5.4484367815440146e+02,	 2.6731995352855700e+00 
1.1305040000000000e+00,	 2.6529209999999998e-01,	 5.2577244414590087e-02,	 1.4559522795964263e+03,	 -3.1008420972464158e+01,	 7.3731603643832182e+02,	 1.1152736415168738e+04,	 5.4494895796539708e+02,	 2.6723281598213280e+00 
1.1317100000000000e+00,	 2.6526659999999996e-01,	 5.2653411076637666e-02,	 1.4557561987005181e+03,	 -3.1011756474844624e+01,	 7.3760647571758273e+02,	 1.1173292547760633e+04,	 5.4505627897238787e+02,	 2.6714424488100179e+00 
1.1329260000000001e+00,	 2.6524090000000000e-01,	 5.2731048127891707e-02,	 1.4555546742014462e+03,	 -3.1006902169026382e+01,	 7.3790637753477040e+02,	 1.1194317105314907e+04,	 5.4516707433667557e+02,	 2.6705297641721035e+00 
1.1341509999999999e+00,	 2.6521499999999998e-01,	 5.2811026666809827e-02,	 1.4553447434495156e+03,	 -3.0983310989997907e+01,	 7.3821924334256892e+02,	 1.1216049305131590e+04,	 5.4528263510881300e+02,	 2.6695779753303333e+00 
1.1353850000000001e+00,	 2.6518900000000001e-01,	 5.2893652692520651e-02,	 1.4551399661175169e+03,	 -3.0960858703798799e+01,	 7.3852897660613212e+02,	 1.1238310747902518e+04,	 5.4539701471888975e+02,	 2.6686418609235991e+00 
1.1366289999999999e+00,	 2.6516269999999997e-01,	 5.2969659048502128e-02,	 1.4549403542204573e+03,	 -3.0975541922869198e+01,	 7.3882015964584843e+02,	 1.1258897158069658e+04,	 5.4550452215258554e+02,	 2.6677506618920077e+00 
1.1378830000000000e+00,	 2.6513619999999999e-01,	 5.3048579709191385e-02,	 1.4547423542929862e+03,	 -3.0980532419713541e+01,	 7.3911470014991210e+02,	 1.1280167233659646e+04,	 5.4561324764172639e+02,	 2.6668564363293443e+00 
1.1391460000000000e+00,	 2.6510950000000000e-01,	 5.3127516479773124e-02,	 1.4545408061735438e+03,	 -3.0978600637237122e+01,	 7.3941516228366390e+02,	 1.1301544620032213e+04,	 5.4572413669809873e+02,	 2.6659452273142312e+00 
1.1404190000000001e+00,	 2.6508260000000000e-01,	 5.3206528205222502e-02,	 1.4543391857007591e+03,	 -3.0969963859069857e+01,	 7.3971670761265796e+02,	 1.1322968185044891e+04,	 5.4583540287070821e+02,	 2.6650321531954977e+00 
1.1417010000000001e+00,	 2.6505550000000000e-01,	 5.3285364356998419e-02,	 1.4541445684852702e+03,	 -3.0958478604309082e+01,	 7.4000847129940576e+02,	 1.1344218128553755e+04,	 5.4594303816363401e+02,	 2.6641498832705022e+00 
1.1429940000000001e+00,	 2.6502819999999999e-01,	 5.3361857858863868e-02,	 1.4539575662215127e+03,	 -3.0953789618520975e+01,	 7.4028973001862676e+02,	 1.1364821099661578e+04,	 5.4604677795727252e+02,	 2.6633011683236041e+00 
1.1442969999999999e+00,	 2.6500059999999998e-01,	 5.3434448608060792e-02,	 1.4537746230847106e+03,	 -3.0955093647404340e+01,	 7.4056095928800551e+02,	 1.1384450759434332e+04,	 5.4614679981320387e+02,	 2.6624785648519596e+00 
1.1456100000000000e+00,	 2.6497290000000001e-01,	 5.3509174817494308e-02,	 1.4535993814117380e+03,	 -3.0919896440529897e+01,	 7.4083132049669871e+02,	 1.1404533520800118e+04,	 5.4624648332542654e+02,	 2.6616705850679452e+00 
1.1469330000000000e+00,	 2.6494489999999998e-01,	 5.3576088710350037e-02,	 1.4534373002781342e+03,	 -3.0905045283065569e+01,	 7.4107421708102697e+02,	 1.1422538916419679e+04,	 5.4633602498460061e+02,	 2.6609371707465943e+00 
1.1482660000000000e+00,	 2.6491680000000001e-01,	 5.3642878606987063e-02,	 1.4532920622019769e+03,	 -3.0858848884339650e+01,	 7.4130288504759915e+02,	 1.1440307632923395e+04,	 5.4642030798173607e+02,	 2.6602591973242973e+00 
1.1496100000000000e+00,	 2.6488839999999997e-01,	 5.3694846795864948e-02,	 1.4531825385453863e+03,	 -3.0871710223986156e+01,	 7.4146886533676775e+02,	 1.1453954789029716e+04,	 5.4648147725976833e+02,	 2.6597615555782737e+00 
1.1509640000000001e+00,	 2.6485969999999998e-01,	 5.3740412497123760e-02,	 1.4530894987527481e+03,	 -3.0866848243588329e+01,	 7.4161283171377181e+02,	 1.1465900499390355e+04,	 5.4653452813180979e+02,	 2.6593329921020490e+00 
1.1523289999999999e+00,	 2.6483089999999998e-01,	 5.3783483436614377e-02,	 1.4530246235110690e+03,	 -3.0811179068701016e+01,	 7.4172937997617919e+02,	 1.1476893360967668e+04,	 5.4657747179760759e+02,	 2.6590032248084481e+00 
1.1537040000000001e+00,	 2.6480179999999998e-01,	 5.3809453182677873e-02,	 1.4530000342541111e+03,	 -3.0789265263812872e+01,	 7.4178102621658149e+02,	 1.1483234578508780e+04,	 5.4659650042239923e+02,	 2.6588648314552086e+00 
1.1550910000000001e+00,	 2.6477249999999997e-01,	 5.3827361233321200e-02,	 1.4530026942250267e+03,	 -3.0739287881941646e+01,	 7.4178999308152720e+02,	 1.1487195114328168e+04,	 5.4659980412120922e+02,	 2.6588516908659483e+00 
1.1564880000000000e+00,	 2.6474300000000001e-01,	 5.3831561654744682e-02,	 1.4530260311664924e+03,	 -3.0666215391305936e+01,	 7.4176287893156677e+02,	 1.1487671601829858e+04,	 5.4658981428269044e+02,	 2.6589401475584737e+00 
1.0567150000000001e+00,	 2.6755519999999999e-01,	 4.9690414641660505e-02,	 1.4854462828043550e+03,	 -3.2323707130305337e+01,	 6.9563486204550077e+02,	 9.9445216349910515e+03,	 5.2932164796606105e+02,	 2.8069850026615510e+00 
1.0574060000000001e+00,	 2.6754089999999997e-01,	 4.9725761092171278e-02,	 1.4853715550842664e+03,	 -3.2305953779643893e+01,	 6.9576936838925235e+02,	 9.9535197225893462e+03,	 5.2937281969574724e+02,	 2.8065718071920931e+00 
1.0581020000000001e+00,	 2.6752650000000000e-01,	 4.9767084005234469e-02,	 1.4852689916017048e+03,	 -3.2290698784877279e+01,	 6.9592745637718326e+02,	 9.9640547092500492e+03,	 5.2943295652739539e+02,	 2.8060587125357150e+00 
1.0588010000000001e+00,	 2.6751199999999997e-01,	 4.9806900633458918e-02,	 1.4851706175436520e+03,	 -3.2291266507734896e+01,	 6.9607709966921539e+02,	 9.9741708022232215e+03,	 5.2948987469560177e+02,	 2.8055713487357696e+00 
1.0595049999999999e+00,	 2.6749750000000000e-01,	 4.9846622363306087e-02,	 1.4850744501595721e+03,	 -3.2299798257623138e+01,	 6.9622211466984993e+02,	 9.9842049431639389e+03,	 5.2954502661471531e+02,	 2.8050979389265662e+00 
1.0602130000000001e+00,	 2.6748279999999997e-01,	 4.9885588222897681e-02,	 1.4849705735828932e+03,	 -3.2308441867910688e+01,	 6.9637322395375259e+02,	 9.9941784309076756e+03,	 5.2960249019327409e+02,	 2.8045978374426426e+00 
1.0609249999999999e+00,	 2.6746809999999999e-01,	 4.9928047196793626e-02,	 1.4848596339385688e+03,	 -3.2288510107931685e+01,	 6.9653865194116895e+02,	 1.0005060949386287e+04,	 5.2966539171543400e+02,	 2.8040545504499996e+00 
1.0616420000000000e+00,	 2.6745320000000000e-01,	 4.9971616563580887e-02,	 1.4847524242199113e+03,	 -3.2271501615464906e+01,	 6.9670712950290363e+02,	 1.0016213915571803e+04,	 5.2972944511579351e+02,	 2.8035124561708158e+00 
1.0623620000000000e+00,	 2.6743829999999996e-01,	 5.0011736386812160e-02,	 1.4846513818542098e+03,	 -3.2279376427790446e+01,	 6.9685996918248497e+02,	 1.0026454519746816e+04,	 5.2978754645807658e+02,	 2.8030146430559615e+00 
1.0630869999999999e+00,	 2.6742329999999997e-01,	 5.0053791309084023e-02,	 1.4845424561159596e+03,	 -3.2280035146573063e+01,	 6.9702137950173471e+02,	 1.0037210108280799e+04,	 5.2984889897480286e+02,	 2.8024845717779816e+00 
1.0638170000000000e+00,	 2.6740819999999998e-01,	 5.0097616389318436e-02,	 1.4844316846539436e+03,	 -3.2271678538320415e+01,	 6.9719008137449191e+02,	 1.0048429743236024e+04,	 5.2991301543966847e+02,	 2.8019361566008243e+00 
1.0645510000000000e+00,	 2.6739299999999999e-01,	 5.0140549922446896e-02,	 1.4843206053794893e+03,	 -3.2270155207358776e+01,	 6.9735820049871745e+02,	 1.0059466358914151e+04,	 5.2997690270975374e+02,	 2.8013887852083186e+00 
1.0652889999999999e+00,	 2.6737770000000000e-01,	 5.0184451208907500e-02,	 1.4842085184679693e+03,	 -3.2270879438608340e+01,	 6.9752762974616849e+02,	 1.0070720245595816e+04,	 5.3004128005152540e+02,	 2.8008371477021980e+00 
1.0660320000000001e+00,	 2.6736230000000000e-01,	 5.0228583712279964e-02,	 1.4840955867766561e+03,	 -3.2273369818031519e+01,	 6.9769825295650878e+02,	 1.0082042075898276e+04,	 5.3010610315754559e+02,	 2.8002817686472583e+00 
1.0667800000000001e+00,	 2.6734680000000000e-01,	 5.0273147851766078e-02,	 1.4839806971429487e+03,	 -3.2277468869271104e+01,	 6.9787202893065091e+02,	 1.0093500498674650e+04,	 5.3017211591358034e+02,	 2.7997166169653638e+00 
1.0675319999999999e+00,	 2.6733119999999999e-01,	 5.0317919746982007e-02,	 1.4838664952195224e+03,	 -3.2286965178280880e+01,	 6.9804411687763161e+02,	 1.0104980663408091e+04,	 5.3023747933510322e+02,	 2.7991565520166306e+00 
1.0682900000000000e+00,	 2.6731549999999998e-01,	 5.0363523050059221e-02,	 1.4837515174467806e+03,	 -3.2296555138338938e+01,	 6.9821688818947746e+02,	 1.0116642169510054e+04,	 5.3030309421161769e+02,	 2.7985938394566285e+00 
1.0690519999999999e+00,	 2.6729979999999998e-01,	 5.0410003641165192e-02,	 1.4836330096017880e+03,	 -3.2302457547937308e+01,	 6.9839489554986210e+02,	 1.0128560412073846e+04,	 5.3037068913791302e+02,	 2.7980140147021992e+00 
1.0698179999999999e+00,	 2.6728389999999996e-01,	 5.0457183951096107e-02,	 1.4835084361400391e+03,	 -3.2302902340983344e+01,	 6.9858216350536907e+02,	 1.0140758469848355e+04,	 5.3044179130240207e+02,	 2.7974041850878870e+00 
1.0705899999999999e+00,	 2.6726790000000000e-01,	 5.0505583660012510e-02,	 1.4833896048403046e+03,	 -3.2311016520799875e+01,	 6.9876687704890514e+02,	 1.0153169632899686e+04,	 5.3051191426869480e+02,	 2.7968108171930575e+00 
1.0713670000000000e+00,	 2.6725179999999998e-01,	 5.0550667584745697e-02,	 1.4832736893439812e+03,	 -3.2342206636679890e+01,	 6.9893783333519821e+02,	 1.0164719116452567e+04,	 5.3057680629718482e+02,	 2.7962516160924040e+00 
1.0721480000000001e+00,	 2.6723559999999996e-01,	 5.0599565951147521e-02,	 1.4831430963493058e+03,	 -3.2351740343550709e+01,	 6.9912876722758756e+02,	 1.0177331046836440e+04,	 5.3064927209628047e+02,	 2.7956241080462649e+00 
1.0729350000000000e+00,	 2.6721929999999999e-01,	 5.0651443847831844e-02,	 1.4830090668892385e+03,	 -3.2337993206630614e+01,	 6.9933167380638906e+02,	 1.0190722267014486e+04,	 5.3072627108570668e+02,	 2.7949654680078457e+00 
1.0737270000000001e+00,	 2.6720289999999997e-01,	 5.0703671461140881e-02,	 1.4828796439714508e+03,	 -3.2336437896372175e+01,	 6.9953241090103154e+02,	 1.0204158278410207e+04,	 5.3080243580818683e+02,	 2.7943205880837985e+00 
1.0745240000000000e+00,	 2.6718639999999999e-01,	 5.0753389146487096e-02,	 1.4827476424566134e+03,	 -3.2343587455915603e+01,	 6.9972802194359338e+02,	 1.0217020204401524e+04,	 5.3087664506473971e+02,	 2.7936816850658794e+00 
1.0753260000000000e+00,	 2.6716980000000001e-01,	 5.0807447940641265e-02,	 1.4826106153950957e+03,	 -3.2341380229583152e+01,	 6.9993642147056710e+02,	 1.0230948795645096e+04,	 5.3095569449675088e+02,	 2.7930076522559499e+00 
1.0761330000000000e+00,	 2.6715309999999998e-01,	 5.0859643851226613e-02,	 1.4824794409940018e+03,	 -3.2352893315188972e+01,	 7.0013592450311012e+02,	 1.0244378460558873e+04,	 5.3103135831485361e+02,	 2.7923632050560774e+00 
1.0769460000000000e+00,	 2.6713629999999999e-01,	 5.0912067762655819e-02,	 1.4823440500741908e+03,	 -3.2370472178241656e+01,	 7.0033792164454246e+02,	 1.0257896586538705e+04,	 5.3110795707005946e+02,	 2.7917063394449984e+00 
1.0777639999999999e+00,	 2.6711930000000000e-01,	 5.0965820573108972e-02,	 1.4822028688280361e+03,	 -3.2381178837090125e+01,	 7.0054749028306674e+02,	 1.0271799650158984e+04,	 5.3118741531634134e+02,	 2.7910234582968996e+00 
1.0785880000000001e+00,	 2.6710230000000001e-01,	 5.1021930672714523e-02,	 1.4820590755989208e+03,	 -3.2379593496699869e+01,	 7.0076308912258128e+02,	 1.0286272947844711e+04,	 5.3126914752000266e+02,	 2.7903234175518348e+00 