TITLE = "Final State"
VARIABLES = "X", "Y", "rho", "u", "v", "T", "p", "c", "M"
ZONE I=80, J=27, DATAPACKING=POINT, STRANDID=78000, SOLUTIONTIME=0.001882
9.5440280000000000e-01,	 2.5583319999999998e-01,	 2.7825628832154933e-02,	 1.5848851943430416e+03,	 4.2433302320572272e+02,	 4.6007607366090997e+02,	 3.6830242087517727e+03,	 4.3047091230292568e+02,	 3.8114237081735625e+00 
9.5517879999999999e-01,	 2.5604109999999997e-01,	 2.7826725963441726e-02,	 1.5848801437827997e+03,	 4.2427330176337534e+02,	 4.6008872161168506e+02,	 3.6832706800004175e+03,	 4.3047682929992021e+02,	 3.8113241079588271e+00 
9.5593890000000004e-01,	 2.5624479999999999e-01,	 2.7828000794317045e-02,	 1.5848807671686500e+03,	 4.2421918690070891e+02,	 4.6010772329458723e+02,	 3.6835915485501787e+03,	 4.3048571856341255e+02,	 3.8112143001936194e+00 
9.5669899999999997e-01,	 2.5644839999999997e-01,	 2.7829885305780483e-02,	 1.5848751007794403e+03,	 4.2417799721944232e+02,	 4.6012765024503085e+02,	 3.6840005459018284e+03,	 4.3049504048333313e+02,	 3.8110943191192210e+00 
9.5744370000000001e-01,	 2.5664799999999999e-01,	 2.7835396544653390e-02,	 1.5848586619596749e+03,	 4.2417444445596800e+02,	 4.6016061675312176e+02,	 3.6849940977990959e+03,	 4.3051046192566179e+02,	 3.8109187809688132e+00 
9.5818840000000005e-01,	 2.5684750000000001e-01,	 2.7836525639267307e-02,	 1.5848609513177948e+03,	 4.2412506520947591e+02,	 4.6017475976140599e+02,	 3.6852568358588082e+03,	 4.3051707773112673e+02,	 3.8108357025560191e+00 
9.5891830000000000e-01,	 2.5704299999999997e-01,	 2.7839842055166146e-02,	 1.5848525846325770e+03,	 4.2409887519544583e+02,	 4.6019938920580086e+02,	 3.6858931592649087e+03,	 4.3052859863087986e+02,	 3.8106992264922011e+00 
9.5964819999999995e-01,	 2.5723859999999998e-01,	 2.7846622479013781e-02,	 1.5848271670703973e+03,	 4.2411056057982751e+02,	 4.6024049501700949e+02,	 3.6871201731404699e+03,	 4.3054782598378512e+02,	 3.8104790359897418e+00 
9.6036370000000004e-01,	 2.5743030000000000e-01,	 2.7850535208157511e-02,	 1.5848132413656149e+03,	 4.2409328422163640e+02,	 4.6026974365455209e+02,	 3.6878726026729069e+03,	 4.3056150658922610e+02,	 3.8103163459332188e+00 
9.6107929999999997e-01,	 2.5762199999999996e-01,	 2.7854483917447888e-02,	 1.5847986951930816e+03,	 4.2407585879213730e+02,	 4.6029937848706493e+02,	 3.6886329575179006e+03,	 4.3057536738817311e+02,	 3.8101505903902204e+00 
9.6178100000000000e-01,	 2.5780999999999998e-01,	 2.7861524019333242e-02,	 1.5847676085252133e+03,	 4.2410144558941857e+02,	 4.6034457048203382e+02,	 3.6899274836777458e+03,	 4.3059650372156972e+02,	 3.8099091849509557e+00 
9.6248270000000002e-01,	 2.5799810000000001e-01,	 2.7868359413232003e-02,	 1.5847390178509399e+03,	 4.2410130591770121e+02,	 4.6038735607178853e+02,	 3.6911757856417266e+03,	 4.3061651362119881e+02,	 3.8096679243589135e+00 
9.6317120000000001e-01,	 2.5818249999999998e-01,	 2.7870784086725976e-02,	 1.5847277705302304e+03,	 4.2408439294842481e+02,	 4.6041226303327562e+02,	 3.6916966446820884e+03,	 4.3062816164293810e+02,	 3.8095294932370765e+00 
9.6385960000000004e-01,	 2.5836700000000001e-01,	 2.7877872145735758e-02,	 1.5846995763650659e+03,	 4.2409275117130710e+02,	 4.6045367697236321e+02,	 3.6929676632431133e+03,	 4.3064752864167457e+02,	 3.8092999454408787e+00 
9.6453520000000004e-01,	 2.5854800000000000e-01,	 2.7881790102065540e-02,	 1.5846823042788669e+03,	 4.2408337431026348e+02,	 4.6048407562780034e+02,	 3.6937305129511310e+03,	 4.3066174384988625e+02,	 3.8091298373951608e+00 
9.6521069999999998e-01,	 2.5872899999999999e-01,	 2.7886601214586651e-02,	 1.5846637697485567e+03,	 4.2407704805803172e+02,	 4.6051545280868328e+02,	 3.6946196132664186e+03,	 4.3067641615015407e+02,	 3.8089546975040616e+00 
9.6587400000000001e-01,	 2.5890669999999999e-01,	 2.7890589138542130e-02,	 1.5846476861639903e+03,	 4.2406853808564119e+02,	 4.6054407073990211e+02,	 3.6953775909550886e+03,	 4.3068979776037560e+02,	 3.8087951702469458e+00 
9.6653719999999999e-01,	 2.5908439999999999e-01,	 2.7895118742733319e-02,	 1.5846304198636531e+03,	 4.2406258598543934e+02,	 4.6057358128245062e+02,	 3.6962145723867670e+03,	 4.3070359631605282e+02,	 3.8086308485435789e+00 
9.6718859999999995e-01,	 2.5925890000000001e-01,	 2.7898483412802801e-02,	 1.5846166050320508e+03,	 4.2405281566987117e+02,	 4.6059922812064497e+02,	 3.6968662515164337e+03,	 4.3071558791969892e+02,	 3.8084879640697520e+00 
9.6783989999999998e-01,	 2.5943339999999998e-01,	 2.7903670840818490e-02,	 1.5845944659221022e+03,	 4.2406508707329090e+02,	 4.6063259308486909e+02,	 3.6978214887201302e+03,	 4.3073118776123687e+02,	 3.8083077449152518e+00 
9.6847989999999995e-01,	 2.5960489999999997e-01,	 2.7907969141916275e-02,	 1.5845774337599678e+03,	 4.2405991258395136e+02,	 4.6066030642859448e+02,	 3.6986136124981813e+03,	 4.3074414474919303e+02,	 3.8081518865559651e+00 
9.6911979999999998e-01,	 2.5977630000000002e-01,	 2.7909572961722022e-02,	 1.5845713874907406e+03,	 4.2403764068401665e+02,	 4.6067674175121454e+02,	 3.6989581308297202e+03,	 4.3075182867131912e+02,	 3.8080570294368554e+00 
9.6974879999999997e-01,	 2.5994479999999998e-01,	 2.7914647638071832e-02,	 1.5845471423322579e+03,	 4.2405874787734689e+02,	 4.6071039248180705e+02,	 3.6999009406366699e+03,	 4.3076756079726692e+02,	 3.8078762514684650e+00 
9.7037779999999996e-01,	 2.6011339999999999e-01,	 2.7921720536947730e-02,	 1.5845131765549854e+03,	 4.2409712111775383e+02,	 4.6075274529120236e+02,	 3.7011786220441859e+03,	 4.3078736043432565e+02,	 3.8076481002829459e+00 
9.7099619999999998e-01,	 2.6027909999999999e-01,	 2.7924215944527292e-02,	 1.5845006072696774e+03,	 4.2408916873212615e+02,	 4.6077326143186428e+02,	 3.7016742208739165e+03,	 4.3079695125694161e+02,	 3.8075303732043300e+00 
9.7161470000000005e-01,	 2.6044479999999998e-01,	 2.7926186968879281e-02,	 1.5844932387208082e+03,	 4.2407504363869504e+02,	 4.6078814729324108e+02,	 3.7020550983919757e+03,	 4.3080390992017396e+02,	 3.8074438714342449e+00 
9.7222310000000001e-01,	 2.6060780000000000e-01,	 2.7928798310924478e-02,	 1.5844828075046687e+03,	 4.2407026894781870e+02,	 4.6080570736456622e+02,	 3.7025423668048866e+03,	 4.3081211854637064e+02,	 3.8073450699106868e+00 
9.7283149999999996e-01,	 2.6077079999999997e-01,	 2.7931347448810595e-02,	 1.5844724814659971e+03,	 4.2406813509570804e+02,	 4.6082296278823526e+02,	 3.7030189667881768e+03,	 4.3082018460969999e+02,	 3.8072493526415596e+00 
9.7343020000000002e-01,	 2.6093119999999997e-01,	 2.7933159382354657e-02,	 1.5844650531262137e+03,	 4.2406195938824544e+02,	 4.6083673737554597e+02,	 3.7033698803627271e+03,	 4.3082662344454712e+02,	 3.8071720902532213e+00 
9.7402900000000003e-01,	 2.6109159999999998e-01,	 2.7936132057516851e-02,	 1.5844511555232066e+03,	 4.2407412763107067e+02,	 4.6085576914456908e+02,	 3.7039169558608246e+03,	 4.3083551955402356e+02,	 3.8070696193718447e+00 
9.7461850000000005e-01,	 2.6124959999999997e-01,	 2.7939731824156652e-02,	 1.5844341569595899e+03,	 4.2409198122282595e+02,	 4.6087805280191640e+02,	 3.7045733493076309e+03,	 4.3084593547553584e+02,	 3.8069501831897692e+00 
9.7520799999999996e-01,	 2.6140750000000001e-01,	 2.7939722698181568e-02,	 1.5844324510797296e+03,	 4.2407935856976678e+02,	 4.6088377665374924e+02,	 3.7046181480277733e+03,	 4.3084861090195898e+02,	 3.8069151436094226e+00 
9.7578869999999995e-01,	 2.6156309999999999e-01,	 2.7942103736551933e-02,	 1.5844209218975398e+03,	 4.2409019963651662e+02,	 4.6089842924519166e+02,	 3.7050516462613155e+03,	 4.3085545969856776e+02,	 3.8068352864315109e+00 
9.7636950000000000e-01,	 2.6171869999999997e-01,	 2.7944413040386619e-02,	 1.5844060619877530e+03,	 4.2411263069820444e+02,	 4.6091581455848439e+02,	 3.7054976219598129e+03,	 4.3086358566086216e+02,	 3.8067436360574485e+00 
9.7694179999999997e-01,	 2.6187210000000000e-01,	 2.7946328612089913e-02,	 1.5843945796131843e+03,	 4.2412695869258914e+02,	 4.6093003317100590e+02,	 3.7058659487494365e+03,	 4.3087023138111573e+02,	 3.8066677768700106e+00 
9.7751410000000005e-01,	 2.6202539999999996e-01,	 2.7944916538583279e-02,	 1.5844011048369523e+03,	 4.2410465544401609e+02,	 4.6092328359772239e+02,	 3.7056244349086414e+03,	 4.3086707667146396e+02,	 3.8066968927781621e+00 
9.7807849999999996e-01,	 2.6217659999999998e-01,	 2.7945416959929519e-02,	 1.5843990624331686e+03,	 4.2410582563391608e+02,	 4.6092518977649519e+02,	 3.7057061182100451e+03,	 4.3086796761021185e+02,	 3.8066851446308929e+00 
9.7864280000000003e-01,	 2.6232780000000000e-01,	 2.7946939416931899e-02,	 1.5843892498560201e+03,	 4.2412720921034617e+02,	 4.6093435333001116e+02,	 3.7059816801958805e+03,	 4.3087225058513224e+02,	 3.8066381389877795e+00 
9.7919959999999995e-01,	 2.6247700000000002e-01,	 2.7948047132942518e-02,	 1.5843808604885608e+03,	 4.2414669305675540e+02,	 4.6094090958418496e+02,	 3.7061812873215263e+03,	 4.3087531490212842e+02,	 3.8066039518842327e+00 
9.7975639999999997e-01,	 2.6262619999999998e-01,	 2.7946286278568572e-02,	 1.5843874752077845e+03,	 4.2414118142628035e+02,	 4.6093313302554725e+02,	 3.7058852577629359e+03,	 4.3087168022660398e+02,	 3.8066475848317562e+00 
9.8030600000000001e-01,	 2.6277339999999999e-01,	 2.7945319718545601e-02,	 1.5843898085992018e+03,	 4.2413691796777772e+02,	 4.6092819758944029e+02,	 3.7057174053699500e+03,	 4.3086937344370187e+02,	 3.8066706373665924e+00 
9.8085560000000005e-01,	 2.6292070000000001e-01,	 2.7946704149065520e-02,	 1.5843816991708920e+03,	 4.2416431655964425e+02,	 4.6093350800378983e+02,	 3.7059436853526631e+03,	 4.3087185548789569e+02,	 3.8066469722850309e+00 
9.8139829999999995e-01,	 2.6306609999999997e-01,	 2.7944434898231625e-02,	 1.5843901314312081e+03,	 4.2415557242435852e+02,	 4.6092128022651559e+02,	 3.7055444612202505e+03,	 4.3086614030345646e+02,	 3.8067111217347636e+00 
9.8194110000000001e-01,	 2.6321149999999999e-01,	 2.7941654036327056e-02,	 1.5844026713780638e+03,	 4.2414352862148382e+02,	 4.6090442786093138e+02,	 3.7050402378125914e+03,	 4.3085826349195116e+02,	 3.8068016007703149e+00 
9.8247750000000000e-01,	 2.6335520000000001e-01,	 2.7939931587131005e-02,	 1.5844090617786228e+03,	 4.2414718936319514e+02,	 4.6089303002800386e+02,	 3.7047202251568510e+03,	 4.3085293605250092e+02,	 3.8068651959960911e+00 
9.8301390000000000e-01,	 2.6349889999999998e-01,	 2.7938732285632383e-02,	 1.5844103653536388e+03,	 4.2416341383629288e+02,	 4.6088573524750336e+02,	 3.7045025687908615e+03,	 4.3084952637842451e+02,	 3.8069079836561568e+00 
9.8354419999999998e-01,	 2.6364100000000001e-01,	 2.7937973424180577e-02,	 1.5844102611653038e+03,	 4.2418571976978433e+02,	 4.6087986115248327e+02,	 3.7043547350129161e+03,	 4.3084678073137161e+02,	 3.8069453991070508e+00 
9.8407460000000002e-01,	 2.6378309999999999e-01,	 2.7935817646395224e-02,	 1.5844141611960042e+03,	 4.2419744052383828e+02,	 4.6086855727097816e+02,	 3.7039780471535623e+03,	 4.3084149706503041e+02,	 3.8070078656897990e+00 
9.8459929999999996e-01,	 2.6392369999999998e-01,	 2.7934510860375437e-02,	 1.5844140960053169e+03,	 4.2422121502310472e+02,	 4.6086137716340613e+02,	 3.7037470784188949e+03,	 4.3083814090165640e+02,	 3.8070516472249643e+00 
9.8512400000000000e-01,	 2.6406429999999997e-01,	 2.7932464890842251e-02,	 1.5844162511279533e+03,	 4.2424443061818027e+02,	 4.6085254820032264e+02,	 3.7034048604612422e+03,	 4.3083401398579002e+02,	 3.8071068836187347e+00 
9.8564339999999995e-01,	 2.6420349999999998e-01,	 2.7928739979252722e-02,	 1.5844300201478516e+03,	 4.2423697427782815e+02,	 4.6083099232486234e+02,	 3.7027377962337614e+03,	 4.3082393797233874e+02,	 3.8072223191673413e+00 
9.8616280000000001e-01,	 2.6434259999999998e-01,	 2.7924498849182931e-02,	 1.5844479209544841e+03,	 4.2422864568827288e+02,	 4.6080249866012679e+02,	 3.7019466060885647e+03,	 4.3081061861793916e+02,	 3.8073751644217908e+00 
9.8667729999999998e-01,	 2.6448050000000001e-01,	 2.7922900650296206e-02,	 1.5844536468122355e+03,	 4.2424542633171131e+02,	 4.6078746511851557e+02,	 3.7016139651311360e+03,	 4.3080359102780494e+02,	 3.8074601865584370e+00 
9.8719179999999995e-01,	 2.6461829999999997e-01,	 2.7918571195943126e-02,	 1.5844675529105061e+03,	 4.2424967000004881e+02,	 4.6076375984669608e+02,	 3.7008496282531860e+03,	 4.3079250951154631e+02,	 3.8075918577031973e+00 
9.8770179999999996e-01,	 2.6475499999999996e-01,	 2.7917723271879618e-02,	 1.5844692133761819e+03,	 4.2427677587966161e+02,	 4.6075180047636263e+02,	 3.7006411739196637e+03,	 4.3078691875003432e+02,	 3.8076612708762476e+00 
9.8821170000000003e-01,	 2.6489160000000000e-01,	 2.7912474645389460e-02,	 1.5844904831997874e+03,	 4.2426454879323160e+02,	 4.6071943727897684e+02,	 3.6996855567556468e+03,	 4.3077178925201383e+02,	 3.8078353570760028e+00 
9.8871750000000003e-01,	 2.6502710000000002e-01,	 2.7907735320192147e-02,	 1.5845106949897602e+03,	 4.2425828633412493e+02,	 4.6068790027586499e+02,	 3.6988041718195973e+03,	 4.3075704548102215e+02,	 3.8080072547155561e+00 
9.8922330000000003e-01,	 2.6516259999999997e-01,	 2.7904265182935577e-02,	 1.5845221297705189e+03,	 4.2427406211373466e+02,	 4.6066501870164421e+02,	 3.6981605602673494e+03,	 4.3074634786806985e+02,	 3.8081369426723217e+00 
9.8972519999999997e-01,	 2.6529710000000001e-01,	 2.7902014501194214e-02,	 1.5845284152637312e+03,	 4.2429977524439073e+02,	 4.6064698785697942e+02,	 3.6977175390795724e+03,	 4.3073791788513904e+02,	 3.8082410082666334e+00 
9.9022719999999997e-01,	 2.6543159999999999e-01,	 2.7896688318096975e-02,	 1.5845488120490404e+03,	 4.2429544680590789e+02,	 4.6061479388032967e+02,	 3.6967533070794861e+03,	 4.3072286578544686e+02,	 3.8084172354381383e+00 
9.9072559999999998e-01,	 2.6556510000000000e-01,	 2.7891837847779034e-02,	 1.5845669107878730e+03,	 4.2430064686917137e+02,	 4.6058478343321974e+02,	 3.6958697301103830e+03,	 4.3070883410810359e+02,	 3.8085850201086862e+00 
9.9122410000000005e-01,	 2.6569870000000001e-01,	 2.7889170476870326e-02,	 1.5845764535118474e+03,	 4.2431841944440998e+02,	 4.6056265855111701e+02,	 3.6953387645449834e+03,	 4.3069848911087365e+02,	 3.8087085749057517e+00 
9.9171949999999998e-01,	 2.6583140000000000e-01,	 2.7882896738389718e-02,	 1.5846004441625128e+03,	 4.2430788867623721e+02,	 4.6052669464022057e+02,	 3.6942189962283255e+03,	 4.3068167282736300e+02,	 3.8089047722751519e+00 
9.9221479999999995e-01,	 2.6596409999999998e-01,	 2.7879325582879741e-02,	 1.5846124864238136e+03,	 4.2432491158235996e+02,	 4.6050197955346124e+02,	 3.6935476197770299e+03,	 4.3067011597533940e+02,	 3.8090442167164107e+00 
9.9270740000000002e-01,	 2.6609610000000000e-01,	 2.7876451063019905e-02,	 1.5846203651418482e+03,	 4.2435198174290747e+02,	 4.6048121966504425e+02,	 3.6930003019940277e+03,	 4.3066040834680035e+02,	 3.8091640086674934e+00 
9.9319999999999997e-01,	 2.6622809999999997e-01,	 2.7871170084181506e-02,	 1.5846396331977642e+03,	 4.2435464697114946e+02,	 4.6044919945640788e+02,	 3.6920439422283398e+03,	 4.3064543479818423e+02,	 3.8093412737018997e+00 
9.9369019999999997e-01,	 2.6635939999999997e-01,	 2.7865817176208545e-02,	 1.5846591787324687e+03,	 4.2436403756729680e+02,	 4.6041669600282228e+02,	 3.6910742780144301e+03,	 4.3063023473816685e+02,	 3.8095252172100844e+00 
9.9418039999999996e-01,	 2.6649079999999997e-01,	 2.7862077386851987e-02,	 1.5846741999643252e+03,	 4.2436280720681737e+02,	 4.6038921016859291e+02,	 3.6903585905884552e+03,	 4.3061738072135637e+02,	 3.8096718889339711e+00 
9.9466849999999996e-01,	 2.6662150000000001e-01,	 2.7854263044518254e-02,	 1.5847065127454011e+03,	 4.2434443703380157e+02,	 4.6034319747785935e+02,	 3.6889548513693730e+03,	 4.3059586158166422e+02,	 3.8099237308836105e+00 
9.9515659999999995e-01,	 2.6675230000000000e-01,	 2.7851186773850605e-02,	 1.5847175138375439e+03,	 4.2436636421686558e+02,	 4.6031879334037404e+02,	 3.6883518964491063e+03,	 4.3058444785823235e+02,	 3.8100625746028789e+00 
9.9564299999999994e-01,	 2.6688259999999997e-01,	 2.7847209608985596e-02,	 1.5847263957542220e+03,	 4.2439976542720319e+02,	 4.6029719348916319e+02,	 3.6876521514345923e+03,	 4.3057434543655341e+02,	 3.8101919616263089e+00 
9.9612940000000005e-01,	 2.6701300000000000e-01,	 2.7844586005860456e-02,	 1.5847335805514699e+03,	 4.2442070783534530e+02,	 4.6027721750514979e+02,	 3.6871447004628017e+03,	 4.3056500229946408e+02,	 3.8103033433575417e+00 
9.9661440000000001e-01,	 2.6714290000000002e-01,	 2.7837576716920519e-02,	 1.5847628644751799e+03,	 4.2440160739944713e+02,	 4.6023331643437518e+02,	 3.6858649493569583e+03,	 4.3054446824448115e+02,	 3.8105392932111757e+00 
9.9709950000000003e-01,	 2.6727289999999998e-01,	 2.7832398119895733e-02,	 1.5847874592482312e+03,	 4.2438807880848879e+02,	 4.6019473098695084e+02,	 3.6848703102088093e+03,	 4.3052641968241136e+02,	 3.8107460931106547e+00 
9.9758349999999996e-01,	 2.6740249999999999e-01,	 2.7824613702133863e-02,	 1.5848188681821605e+03,	 4.2437451453721417e+02,	 4.6014923392433548e+02,	 3.6834754901350798e+03,	 4.3050513720098331e+02,	 3.8109968066327178e+00 
9.9806750000000000e-01,	 2.6753220000000000e-01,	 2.7822674474209490e-02,	 1.5848224445596393e+03,	 4.2441132985565196e+02,	 4.6012970363344908e+02,	 3.6830624431689912e+03,	 4.3049600105649529e+02,	 3.8111078310490893e+00 
9.9855079999999996e-01,	 2.6766170000000000e-01,	 2.7818506666476051e-02,	 1.5848293117071075e+03,	 4.2443838327222693e+02,	 4.6010381272952623e+02,	 3.6823035141205055e+03,	 4.3048388915922948e+02,	 3.8112467249169533e+00 
9.9903410000000004e-01,	 2.6779120000000001e-01,	 2.7815181612141745e-02,	 1.5848298160482013e+03,	 4.2446489877149486e+02,	 4.6007595393240518e+02,	 3.6816404476119492e+03,	 4.3047085629083881e+02,	 3.8113791806119162e+00 
9.9951699999999999e-01,	 2.6792060000000001e-01,	 2.7800403951258344e-02,	 1.5848484368372337e+03,	 4.2454320054754191e+02,	 4.6004676474639490e+02,	 3.6794510092745604e+03,	 4.3045720061823624e+02,	 3.8115889410431198e+00 
1.0000000000000000e+00,	 2.6805000000000001e-01,	 2.7779073051247317e-02,	 1.5849729628708042e+03,	 4.2376811134007369e+02,	 4.6013119593324865e+02,	 3.6773025747758415e+03,	 4.3049669915158688e+02,	 3.8110531922483957e+00 
9.5438000000000001e-01,	 2.5675739999999997e-01,	 2.7828571179308516e-02,	 1.5852544853264726e+03,	 4.2308071884486958e+02,	 4.5999110176082723e+02,	 3.6827333670843732e+03,	 4.3043115842035894e+02,	 3.8118532390161559e+00 
9.5515620000000001e-01,	 2.5696110000000000e-01,	 2.7832556002073440e-02,	 1.5852383354727335e+03,	 4.2307488314618024e+02,	 4.6001647626623497e+02,	 3.6834638840871721e+03,	 4.3044303020124448e+02,	 3.8117083604218216e+00 
9.5591640000000000e-01,	 2.5716069999999996e-01,	 2.7837378705222841e-02,	 1.5852277300229589e+03,	 4.2306679048503685e+02,	 4.6004349150218167e+02,	 3.6843184935943500e+03,	 4.3045566925864932e+02,	 3.8115677885532384e+00 
9.5667670000000005e-01,	 2.5736029999999999e-01,	 2.7840337227068336e-02,	 1.5852190333334868e+03,	 4.2303540167730353e+02,	 4.6006532744626594e+02,	 3.6848849529636846e+03,	 4.3046588491713095e+02,	 3.8114390122232811e+00 
9.5742159999999998e-01,	 2.5755580000000000e-01,	 2.7844566580508330e-02,	 1.5852038773226884e+03,	 4.2301927619943177e+02,	 4.6009407787267321e+02,	 3.6856750517584896e+03,	 4.3047933505525401e+02,	 3.8112762502321424e+00 
9.5816650000000003e-01,	 2.5775130000000002e-01,	 2.7848452617261509e-02,	 1.5851944215200660e+03,	 4.2299586629409299e+02,	 4.6011960349608677e+02,	 3.6863939376768431e+03,	 4.3049127620112165e+02,	 3.8111352884640648e+00 
9.5889659999999999e-01,	 2.5794299999999998e-01,	 2.7851100722647227e-02,	 1.5851878168557512e+03,	 4.2296193300931930e+02,	 4.6014096279663727e+02,	 3.6869156194243124e+03,	 4.3050126804430192e+02,	 3.8110116882552467e+00 
9.5962670000000005e-01,	 2.5813459999999999e-01,	 2.7855274674008033e-02,	 1.5851721698914389e+03,	 4.2294543009329709e+02,	 4.6016991823914890e+02,	 3.6877002076715567e+03,	 4.3051481297903842e+02,	 3.8108467870530944e+00 
9.6034240000000004e-01,	 2.5832250000000001e-01,	 2.7859799404637047e-02,	 1.5851559659295954e+03,	 4.2293462731264111e+02,	 4.6020049887686008e+02,	 3.6885443333694193e+03,	 4.3052911769375703e+02,	 3.8106773345652942e+00 
9.6105819999999997e-01,	 2.5851039999999997e-01,	 2.7863848230198773e-02,	 1.5851424489935919e+03,	 4.2291875044243778e+02,	 4.6022848532706837e+02,	 3.6893047306106432e+03,	 4.3054220850804887e+02,	 3.8105216289963395e+00 
9.6176010000000001e-01,	 2.5869460000000000e-01,	 2.7867888911846082e-02,	 1.5851229954206301e+03,	 4.2291260511066895e+02,	 4.6025965890735222e+02,	 3.6900896672155764e+03,	 4.3055678965117784e+02,	 3.8103452480316813e+00 
9.6246209999999999e-01,	 2.5887889999999997e-01,	 2.7874108371268233e-02,	 1.5850964543094576e+03,	 4.2291843688491628e+02,	 4.6029872185885370e+02,	 3.6912264622441912e+03,	 4.3057506027496879e+02,	 3.8101274971717718e+00 
9.6315070000000003e-01,	 2.5905970000000000e-01,	 2.7878211705125482e-02,	 1.5850782523793364e+03,	 4.2291973665996420e+02,	 4.6032976408511684e+02,	 3.6920188162815239e+03,	 4.3058957887177195e+02,	 3.8099589623458416e+00 
9.6383940000000001e-01,	 2.5924039999999998e-01,	 2.7883393733681251e-02,	 1.5850548069129532e+03,	 4.2292300044253807e+02,	 4.6036463340430527e+02,	 3.6929848093698365e+03,	 4.3060588683436515e+02,	 3.8097640178240169e+00 
9.6451520000000002e-01,	 2.5941779999999998e-01,	 2.7888030921908800e-02,	 1.5850335566733745e+03,	 4.2292795245228632e+02,	 4.6039716562815141e+02,	 3.6938599892044354e+03,	 4.3062110120859069e+02,	 3.8095846990255882e+00 
9.6519100000000002e-01,	 2.5959519999999997e-01,	 2.7892737975712855e-02,	 1.5850124572711147e+03,	 4.2293310827026448e+02,	 4.6042917414606279e+02,	 3.6947403079081741e+03,	 4.3063607013617934e+02,	 3.8094080247082274e+00 
9.6585449999999995e-01,	 2.5976929999999998e-01,	 2.7896854638161928e-02,	 1.5849932486872920e+03,	 4.2293614035985411e+02,	 4.6045860897529303e+02,	 3.6955218474226463e+03,	 4.3064983500743045e+02,	 3.8092449838484304e+00 
9.6651799999999999e-01,	 2.5994349999999999e-01,	 2.7901217262137946e-02,	 1.5849735527517309e+03,	 4.2294122221671051e+02,	 4.6048805216332261e+02,	 3.6963361085859474e+03,	 4.3066360334744110e+02,	 3.8090820565662269e+00 
9.6716959999999996e-01,	 2.6011449999999997e-01,	 2.7904909363069681e-02,	 1.5849567507813222e+03,	 4.2294340762761419e+02,	 4.6051401365407264e+02,	 3.6970336562259790e+03,	 4.3067574319723747e+02,	 3.8089383007223376e+00 
9.6782120000000005e-01,	 2.6028550000000000e-01,	 2.7908574263787546e-02,	 1.5849374336971641e+03,	 4.2295018126490743e+02,	 4.6054094259028614e+02,	 3.6977354228735931e+03,	 4.3068833507254737e+02,	 3.8087876599875359e+00 
9.6846140000000003e-01,	 2.6045360000000001e-01,	 2.7912973143525713e-02,	 1.5849160676638360e+03,	 4.2296251973972397e+02,	 4.6056981978102266e+02,	 3.6985501454732303e+03,	 4.3070183753573383e+02,	 3.8086277110889100e+00 
9.6910160000000001e-01,	 2.6062160000000001e-01,	 2.7916267800120687e-02,	 1.5849017880400700e+03,	 4.2296729216444066e+02,	 4.6059218387458708e+02,	 3.6991663103988931e+03,	 4.3071229429913075e+02,	 3.8085060704018856e+00 
9.6973080000000000e-01,	 2.6078669999999998e-01,	 2.7918816404678269e-02,	 1.5848864206672210e+03,	 4.2296897646819173e+02,	 4.6061296572478824e+02,	 3.6996709453811372e+03,	 4.3072201102656192e+02,	 3.8083866902932040e+00 
9.7036000000000000e-01,	 2.6095190000000001e-01,	 2.7923198398121137e-02,	 1.5848608018750228e+03,	 4.2299055585918012e+02,	 4.6064244114795122e+02,	 3.7004884121772861e+03,	 4.3073579213064130e+02,	 3.8082202965655148e+00 
9.7097880000000003e-01,	 2.6111429999999997e-01,	 2.7927424839042522e-02,	 1.5848377582731703e+03,	 4.2301534718342373e+02,	 4.6067067531456320e+02,	 3.7012753646393444e+03,	 4.3074899247725170e+02,	 3.8080667478986956e+00 
9.7159750000000000e-01,	 2.6127669999999997e-01,	 2.7930588793458423e-02,	 1.5848205684574816e+03,	 4.2303226379162948e+02,	 4.6069327167179813e+02,	 3.7018762614333500e+03,	 4.3075955668209406e+02,	 3.8079449284509224e+00 
9.7220620000000002e-01,	 2.6143640000000001e-01,	 2.7933212497071556e-02,	 1.5848058046041124e+03,	 4.2304441632960317e+02,	 4.6071242000461422e+02,	 3.7023778828418126e+03,	 4.3076850867049427e+02,	 3.8078399557950240e+00 
9.7281479999999998e-01,	 2.6159620000000000e-01,	 2.7935579179114878e-02,	 1.5847916178621160e+03,	 4.2305668740062993e+02,	 4.6073002511839394e+02,	 3.7028330624214668e+03,	 4.3077673902833908e+02,	 3.8077427318454906e+00 
9.7341390000000005e-01,	 2.6175339999999997e-01,	 2.7937846000698000e-02,	 1.5847795068531575e+03,	 4.2306852191064934e+02,	 4.6074505564749603e+02,	 3.7032543357517025e+03,	 4.3078376564821730e+02,	 3.8076605457304331e+00 
9.7401289999999996e-01,	 2.6191059999999999e-01,	 2.7939152726838244e-02,	 1.5847678463978295e+03,	 4.2307895001295662e+02,	 4.6075749313757564e+02,	 3.7035275180771591e+03,	 4.3078957996199949e+02,	 3.8075892460993961e+00 
9.7460270000000004e-01,	 2.6206540000000000e-01,	 2.7941493085942719e-02,	 1.5847511373181953e+03,	 4.2310230941114264e+02,	 4.6077482426405703e+02,	 3.7039770665422711e+03,	 4.3079768183619763e+02,	 3.8074941505709119e+00 
9.7519250000000002e-01,	 2.6222020000000001e-01,	 2.7942809060980917e-02,	 1.5847400175147493e+03,	 4.2311941754854502e+02,	 4.6078636874038409e+02,	 3.7042443202892132e+03,	 4.3080307850961287e+02,	 3.8074317597298246e+00 
9.7577349999999996e-01,	 2.6237270000000001e-01,	 2.7944146186884233e-02,	 1.5847289971593057e+03,	 4.2313691244879431e+02,	 4.6079658042580593e+02,	 3.7045036719479176e+03,	 4.3080785208956434e+02,	 3.8073753323488386e+00 
9.7635450000000001e-01,	 2.6252510000000001e-01,	 2.7945334955825556e-02,	 1.5847162167933338e+03,	 4.2315770337301853e+02,	 4.6080598832139128e+02,	 3.7047369013993566e+03,	 4.3081224988110091e+02,	 3.8073202545394187e+00 
9.7692710000000005e-01,	 2.6267540000000000e-01,	 2.7947081581816066e-02,	 1.5847003972023881e+03,	 4.2318923585177765e+02,	 4.6081926375403197e+02,	 3.7050751901198305e+03,	 4.3081845550554823e+02,	 3.8072488193388652e+00 
9.7749980000000003e-01,	 2.6282570000000000e-01,	 2.7947717594970993e-02,	 1.5846925030693396e+03,	 4.2321281366929446e+02,	 4.6082541445930076e+02,	 3.7052089633300911e+03,	 4.3082133063329417e+02,	 3.8072198286759797e+00 
9.7806439999999994e-01,	 2.6297389999999998e-01,	 2.7947579882877407e-02,	 1.5846877824709779e+03,	 4.2322754394401591e+02,	 4.6082647484740357e+02,	 3.7051992318262610e+03,	 4.3082182630642365e+02,	 3.8072136843435858e+00 
9.7862910000000003e-01,	 2.6312209999999997e-01,	 2.7947675032769716e-02,	 1.5846807847749621e+03,	 4.2324679483381038e+02,	 4.6082777402728198e+02,	 3.7052222923664790e+03,	 4.3082243360080014e+02,	 3.8072041550969309e+00 
9.7918609999999995e-01,	 2.6326820000000001e-01,	 2.7947978565623352e-02,	 1.5846707324802637e+03,	 4.2327444890474851e+02,	 4.6083093872532817e+02,	 3.7052879794737519e+03,	 4.3082391291764031e+02,	 3.8071851037640281e+00 
9.7974320000000004e-01,	 2.6341439999999999e-01,	 2.7948049944728305e-02,	 1.5846650385561441e+03,	 4.2330398235982875e+02,	 4.6083164554668929e+02,	 3.7053031259510785e+03,	 4.3082424331584298e+02,	 3.8071871061610829e+00 
9.8029310000000003e-01,	 2.6355869999999998e-01,	 2.7947186609020170e-02,	 1.5846632096497324e+03,	 4.2331947168488284e+02,	 4.6082662506444422e+02,	 3.7051483006358585e+03,	 4.3082189652458391e+02,	 3.8072130222561289e+00 
9.8084300000000002e-01,	 2.6370299999999997e-01,	 2.7946684626352303e-02,	 1.5846574175026776e+03,	 4.2334522083382916e+02,	 4.6082368531963050e+02,	 3.7050581136089891e+03,	 4.3082052235435708e+02,	 3.8072276026354803e+00 
9.8138610000000004e-01,	 2.6384560000000001e-01,	 2.7945939850604888e-02,	 1.5846541376891573e+03,	 4.2337253305979402e+02,	 4.6081942145166880e+02,	 3.7049250933457624e+03,	 4.3081852922105003e+02,	 3.8072542244249887e+00 
9.8192919999999995e-01,	 2.6398810000000000e-01,	 2.7944114530094689e-02,	 1.5846563431477864e+03,	 4.2339142372919707e+02,	 4.6080942440833167e+02,	 3.7046027323832327e+03,	 4.3081385609458727e+02,	 3.8073117866414381e+00 
9.8246590000000000e-01,	 2.6412890000000000e-01,	 2.7942042700677926e-02,	 1.5846600553418257e+03,	 4.2340637771119782e+02,	 4.6079666615419382e+02,	 3.7042255058282667e+03,	 4.3080789216414661e+02,	 3.8073817784427590e+00 
9.8300259999999995e-01,	 2.6426980000000000e-01,	 2.7939730041046371e-02,	 1.5846634627876138e+03,	 4.2342185834745834e+02,	 4.6078303893465772e+02,	 3.7038093841347522e+03,	 4.3080152193888222e+02,	 3.8074549954572210e+00 
9.8353330000000005e-01,	 2.6440900000000001e-01,	 2.7938045183376253e-02,	 1.5846637277430941e+03,	 4.2344587173175512e+02,	 4.6077186922372744e+02,	 3.7034962546614252e+03,	 4.3079630043849784e+02,	 3.8075161279834879e+00 
9.8406389999999999e-01,	 2.6454830000000001e-01,	 2.7935985822476358e-02,	 1.5846651126923559e+03,	 4.2346913699784204e+02,	 4.6075906975276337e+02,	 3.7031203943027772e+03,	 4.3079031699701636e+02,	 3.8075860606087546e+00 
9.8458889999999999e-01,	 2.6468599999999998e-01,	 2.7934171970811439e-02,	 1.5846654652744633e+03,	 4.2349562236853586e+02,	 4.6074649787334999e+02,	 3.7027789212958105e+03,	 4.3078443986814705e+02,	 3.8076546708743018e+00 
9.8511389999999999e-01,	 2.6482380000000000e-01,	 2.7932490275545809e-02,	 1.5846638339666038e+03,	 4.2352740784323123e+02,	 4.6073489218122961e+02,	 3.7024627430315791e+03,	 4.3077901434338878e+02,	 3.8077180197367060e+00 
9.8563369999999995e-01,	 2.6496019999999998e-01,	 2.7930774824210150e-02,	 1.5846657394896063e+03,	 4.2356004013623522e+02,	 4.6072303745386893e+02,	 3.7021401006067063e+03,	 4.3077347232703164e+02,	 3.8077908408658061e+00 
9.8615339999999996e-01,	 2.6509660000000002e-01,	 2.7926849468616323e-02,	 1.5846756037909372e+03,	 4.2357707161954102e+02,	 4.6070203659266565e+02,	 3.7014510778323647e+03,	 4.3076365437105716e+02,	 3.8079099605778581e+00 
9.8666820000000000e-01,	 2.6523170000000001e-01,	 2.7924071502943782e-02,	 1.5846816753855205e+03,	 4.2359802089801218e+02,	 4.6068386964431977e+02,	 3.7009369381474430e+03,	 4.3075516109602700e+02,	 3.8080112179426027e+00 