TITLE = "Final State"
VARIABLES = "X", "Y", "rho", "u", "v", "T", "p", "c", "M"
ZONE I=80, J=25, DATAPACKING=POINT, STRANDID=69000, SOLUTIONTIME=0.001665
9.5381020000000005e-01,	 2.7986069999999996e-01,	 4.6814770942456563e-02,	 1.5492624308317475e+03,	 1.4192459582229819e+02,	 5.8681879028153014e+02,	 7.9034525819651326e+03,	 4.8616198039347574e+02,	 3.2000642077433623e+00 
9.5459059999999996e-01,	 2.7996050000000000e-01,	 4.8560894732338912e-02,	 1.5457212435227430e+03,	 1.2558634103483709e+02,	 5.9595154272528430e+02,	 8.3258305133532231e+03,	 4.8993048195652989e+02,	 3.1653769490380399e+00 
9.5535530000000002e-01,	 2.8005829999999998e-01,	 5.0359954057267953e-02,	 1.5415681039193694e+03,	 1.0786976289706105e+02,	 6.0543727535683092e+02,	 8.7717131010597204e+03,	 4.9381418897330673e+02,	 3.1293907141485331e+00 
9.5611999999999997e-01,	 2.8015600000000002e-01,	 5.1868185630549402e-02,	 1.5381565472043410e+03,	 9.3133237394895048e+01,	 6.1307329264246346e+02,	 9.1483630532288553e+03,	 4.9691852248694255e+02,	 3.1010587086602017e+00 
9.5686959999999999e-01,	 2.8025180000000000e-01,	 5.3105455523396357e-02,	 1.5353922515778440e+03,	 8.1212299512095598e+01,	 6.1913532073402052e+02,	 9.4592054110702848e+03,	 4.9936922799617309e+02,	 3.0789613524380757e+00 
9.5761920000000000e-01,	 2.8034759999999997e-01,	 5.4116695862845135e-02,	 1.5331622741384413e+03,	 7.1581971505201608e+01,	 6.2396309008903290e+02,	 9.7144923408525374e+03,	 5.0131238801248628e+02,	 3.0616287372641948e+00 
9.5835420000000004e-01,	 2.8044150000000001e-01,	 5.4928972597220974e-02,	 1.5313794873676511e+03,	 6.3918367725953132e+01,	 6.2776250314666868e+02,	 9.9203452025105671e+03,	 5.0283635806866624e+02,	 3.0481345057089850e+00 
9.5908919999999998e-01,	 2.8053529999999999e-01,	 5.5584125856621369e-02,	 1.5299519467510227e+03,	 5.7784114693173436e+01,	 6.3077532052586366e+02,	 1.0086846469459189e+04,	 5.0404154377325114e+02,	 3.0375328954902048e+00 
9.5981019999999995e-01,	 2.8062739999999997e-01,	 5.6109428175471751e-02,	 1.5288166728722056e+03,	 5.2925085750321031e+01,	 6.3314304259544122e+02,	 1.0220393547594198e+04,	 5.0498666036998668e+02,	 3.0292532610438836e+00 
9.6053109999999997e-01,	 2.8071940000000001e-01,	 5.6531020478015434e-02,	 1.5279030799075394e+03,	 4.9033222035956683e+01,	 6.3502845451445455e+02,	 1.0327850636203362e+04,	 5.0573799146470509e+02,	 3.0226909712321168e+00 
9.6123840000000005e-01,	 2.8080959999999999e-01,	 5.6870236046252597e-02,	 1.5271696974321237e+03,	 4.5936145318250823e+01,	 6.3652383624159268e+02,	 1.0414289348579439e+04,	 5.0633310389415550e+02,	 3.0175005194782383e+00 
9.6194579999999996e-01,	 2.8089989999999998e-01,	 5.7148840754949720e-02,	 1.5265752340346555e+03,	 4.3440778783842873e+01,	 6.3772772980564832e+02,	 1.0485102110413620e+04,	 5.0681170593031925e+02,	 3.0133344876837631e+00 
9.6264000000000005e-01,	 2.8098839999999997e-01,	 5.7373876565322002e-02,	 1.5260868353198018e+03,	 4.1434054558640341e+01,	 6.3869970926994029e+02,	 1.0542433025150045e+04,	 5.0719778214260850e+02,	 3.0099682284903579e+00 
9.6333429999999998e-01,	 2.8107689999999996e-01,	 5.7562690892390987e-02,	 1.5256820461939560e+03,	 3.9796231221400674e+01,	 6.3949797820501749e+02,	 1.0590347261524717e+04,	 5.0751463981314129e+02,	 3.0072058323136428e+00 
9.6401590000000004e-01,	 2.8116379999999996e-01,	 5.7721156918929276e-02,	 1.5253432482889079e+03,	 3.8459714300661375e+01,	 6.4015567471730890e+02,	 1.0630423446855000e+04,	 5.0777555137318734e+02,	 3.0049261432226393e+00 
9.6469760000000004e-01,	 2.8125069999999996e-01,	 5.7856638381607962e-02,	 1.5250534743989795e+03,	 3.7348409146787816e+01,	 6.4070996527954162e+02,	 1.0664601027583123e+04,	 5.0799533720618518e+02,	 3.0030014520719583e+00 
9.6536699999999998e-01,	 2.8133599999999997e-01,	 5.7973487263967227e-02,	 1.5248026697730047e+03,	 3.6422328263278729e+01,	 6.4118014752372073e+02,	 1.0693981531011825e+04,	 5.0818169811584841e+02,	 3.0013627328811561e+00 
9.6603649999999996e-01,	 2.8142129999999999e-01,	 5.8077537199494385e-02,	 1.5245818543637652e+03,	 3.5634960808736523e+01,	 6.4158754860013289e+02,	 1.0719981998169995e+04,	 5.0834311990591851e+02,	 2.9999388137197012e+00 
9.6669430000000001e-01,	 2.8150510000000001e-01,	 5.8170246182379190e-02,	 1.5243905584326485e+03,	 3.4963158089327763e+01,	 6.4194679011330857e+02,	 1.0743106248044705e+04,	 5.0848541724010761e+02,	 2.9986926045274713e+00 
9.6735210000000005e-01,	 2.8158879999999997e-01,	 5.8253544745983585e-02,	 1.5242311487305199e+03,	 3.4376242152325361e+01,	 6.4228523894074442e+02,	 1.0764162267902691e+04,	 5.0861944206786518e+02,	 2.9975628533666825e+00 
9.6799869999999999e-01,	 2.8167110000000001e-01,	 5.8331863294198864e-02,	 1.5240782847468172e+03,	 3.3865583778944455e+01,	 6.4259737806111150e+02,	 1.0783872289474593e+04,	 5.0874301702465840e+02,	 2.9965118737862251e+00 
9.6864519999999998e-01,	 2.8175339999999999e-01,	 5.8405395841788776e-02,	 1.5239120603660290e+03,	 3.3409734621943365e+01,	 6.4285044683881540e+02,	 1.0801718604400852e+04,	 5.0884318417794685e+02,	 2.9955756422586184e+00 
9.6928099999999995e-01,	 2.8183429999999998e-01,	 5.8473850936841210e-02,	 1.5237538522180873e+03,	 3.2995339001281664e+01,	 6.4306965128293336e+02,	 1.0818066529114441e+04,	 5.0892993155518241e+02,	 2.9947365169454003e+00 
9.6991680000000002e-01,	 2.8191519999999998e-01,	 5.8540193789455436e-02,	 1.5236120437910654e+03,	 3.2614549478447167e+01,	 6.4329120363202787e+02,	 1.0834071717778073e+04,	 5.0901759306406041e+02,	 2.9939261418049399e+00 
9.7054220000000002e-01,	 2.8199479999999999e-01,	 5.8604093352590439e-02,	 1.5234804375298777e+03,	 3.2265095122847221e+01,	 6.4350457143599806e+02,	 1.0849495035278944e+04,	 5.0910200192981245e+02,	 2.9931566901995410e+00 
9.7116760000000002e-01,	 2.8207430000000000e-01,	 5.8664111826516416e-02,	 1.5233525313980854e+03,	 3.1936985743072210e+01,	 6.4371228651275146e+02,	 1.0864112042830819e+04,	 5.0918416112023391e+02,	 2.9924090130215366e+00 
9.7178310000000001e-01,	 2.8215249999999997e-01,	 5.8723394186663322e-02,	 1.5232306769666284e+03,	 3.1629732429876178e+01,	 6.4391114613017112e+02,	 1.0878450250271157e+04,	 5.0926280522151472e+02,	 2.9916950935088407e+00 
9.7239860000000000e-01,	 2.8223080000000000e-01,	 5.8783262713720127e-02,	 1.5231142618684853e+03,	 3.1339386990698259e+01,	 6.4410260388126005e+02,	 1.0892778684148299e+04,	 5.0933851059277242e+02,	 2.9910101307856274e+00 
9.7300460000000000e-01,	 2.8230780000000000e-01,	 5.8838842380384046e-02,	 1.5229988091169896e+03,	 3.1062363525740885e+01,	 6.4428887216714884e+02,	 1.0906230888772350e+04,	 5.0941215317129246e+02,	 2.9903400092392873e+00 
9.7361059999999999e-01,	 2.8238479999999999e-01,	 5.8895012575295676e-02,	 1.5228868281601124e+03,	 3.0797294911161536e+01,	 6.4447044022998330e+02,	 1.0919718901601085e+04,	 5.0948392723596368e+02,	 2.9896884303684712e+00 
9.7420750000000000e-01,	 2.8246060000000001e-01,	 5.8949144468563086e-02,	 1.5227768632012344e+03,	 3.0543104362637472e+01,	 6.4464730463890362e+02,	 1.0932754984251289e+04,	 5.0955383222042269e+02,	 2.9890524716407896e+00 
9.7480440000000002e-01,	 2.8253639999999997e-01,	 5.9003250570243138e-02,	 1.5226695718363630e+03,	 3.0297213559788595e+01,	 6.4482056934362106e+02,	 1.0945730686588617e+04,	 5.0962230513737336e+02,	 2.9884307359046192e+00 
9.7539260000000005e-01,	 2.8261110000000000e-01,	 5.9056354090430724e-02,	 1.5225645678974397e+03,	 3.0060653110662756e+01,	 6.4498951963094748e+02,	 1.0958452440993677e+04,	 5.0968906417071105e+02,	 2.9878241388662476e+00 
9.7598090000000004e-01,	 2.8268579999999999e-01,	 5.9108639111349476e-02,	 1.5224608678743848e+03,	 2.9830126135239716e+01,	 6.4515613680477838e+02,	 1.0970987762812079e+04,	 5.0975489273465638e+02,	 2.9872260134388693e+00 
9.7656080000000001e-01,	 2.8275939999999999e-01,	 5.9159652056074867e-02,	 1.5223584583275424e+03,	 2.9606885061542890e+01,	 6.4531970884494285e+02,	 1.0983240102013340e+04,	 5.0981950993240389e+02,	 2.9866380147436478e+00 
9.7714080000000003e-01,	 2.8283300000000000e-01,	 5.9210839335158125e-02,	 1.5222581957051741e+03,	 2.9388617280550115e+01,	 6.4548079787279653e+02,	 1.0995487319481383e+04,	 5.0988313824215396e+02,	 2.9860604174671690e+00 
9.7771290000000000e-01,	 2.8290559999999998e-01,	 5.9260710420196205e-02,	 1.5221585489332688e+03,	 2.9177468141254284e+01,	 6.4563949843361627e+02,	 1.1007454081648157e+04,	 5.0994581537144740e+02,	 2.9854900682383962e+00 
9.7828499999999996e-01,	 2.8297810000000001e-01,	 5.9308984754199913e-02,	 1.5220594159849488e+03,	 2.8968336154606209e+01,	 6.4579726507327598e+02,	 1.1019112799037021e+04,	 5.1000811602352394e+02,	 2.9849232015227356e+00 
9.7884959999999999e-01,	 2.8304979999999996e-01,	 5.9360602811348348e-02,	 1.5219654392199127e+03,	 2.8768031559711183e+01,	 6.4594962415436373e+02,	 1.1031304937728346e+04,	 5.1006827405574700e+02,	 2.9843794988412187e+00 
9.7941429999999996e-01,	 2.8312139999999997e-01,	 5.9407092943446621e-02,	 1.5218680112247821e+03,	 2.8569052410087487e+01,	 6.4610324406761720e+02,	 1.1042569975376276e+04,	 5.1012892273711338e+02,	 2.9838263897861954e+00 
9.7997179999999995e-01,	 2.8319200000000000e-01,	 5.9453723588712107e-02,	 1.5217720172173165e+03,	 2.8374235351797090e+01,	 6.4625494661268908e+02,	 1.1053832451557595e+04,	 5.1018880737207331e+02,	 2.9832808922269094e+00 
9.8052940000000000e-01,	 2.8326269999999998e-01,	 5.9502607695661867e-02,	 1.5216793200180955e+03,	 2.8184627640513341e+01,	 6.4640397361708392e+02,	 1.1065472266132188e+04,	 5.1024762899292483e+02,	 2.9827484338278905e+00 
9.8108019999999996e-01,	 2.8333249999999999e-01,	 5.9548536236603264e-02,	 1.5215855770963465e+03,	 2.7997985118518876e+01,	 6.4655227330066248e+02,	 1.1076554050153331e+04,	 5.1030615680636299e+02,	 2.9822159186564963e+00 
9.8163109999999998e-01,	 2.8340230000000000e-01,	 5.9594691308577127e-02,	 1.5214924482005895e+03,	 2.7813852336199950e+01,	 6.4669993098239024e+02,	 1.1087670892559345e+04,	 5.1036442457959669e+02,	 2.9816863816439954e+00 
9.8217560000000004e-01,	 2.8347129999999998e-01,	 5.9640784459653887e-02,	 1.5214006178303148e+03,	 2.7633261014210326e+01,	 6.4684564835751644e+02,	 1.1098746840930407e+04,	 5.1042192015979413e+02,	 2.9811641880105593e+00 
9.8272009999999999e-01,	 2.8354029999999997e-01,	 5.9686384099434206e-02,	 1.5213086881573672e+03,	 2.7454758178775670e+01,	 6.4699119365571210e+02,	 1.1109731839325552e+04,	 5.1047934137945037e+02,	 2.9806424667135785e+00 
9.8325870000000004e-01,	 2.8360849999999999e-01,	 5.9730642808782916e-02,	 1.5212160471953489e+03,	 2.7278531344986746e+01,	 6.4713661012206978e+02,	 1.1120468792209631e+04,	 5.1053670532203824e+02,	 2.9801199242920515e+00 
9.8379729999999999e-01,	 2.8367670000000000e-01,	 5.9775587336851649e-02,	 1.5211240370232745e+03,	 2.7103709328248847e+01,	 6.4728175635313153e+02,	 1.1131332513331554e+04,	 5.1059395623536392e+02,	 2.9795994823083674e+00 
9.8433029999999999e-01,	 2.8374420000000000e-01,	 5.9820267060496132e-02,	 1.5210327368704316e+03,	 2.6929733561260804e+01,	 6.4742559745361473e+02,	 1.1142128204247880e+04,	 5.1065068602577827e+02,	 2.9790836553264337e+00 
9.8486330000000000e-01,	 2.8381170000000000e-01,	 5.9864620286865969e-02,	 1.5209409888471459e+03,	 2.6755521008910364e+01,	 6.4756985093729622e+02,	 1.1152873868461675e+04,	 5.1070757212814476e+02,	 2.9785661845387286e+00 
9.8539109999999996e-01,	 2.8387849999999998e-01,	 5.9908311165094819e-02,	 1.5208487651238636e+03,	 2.6581611634370748e+01,	 6.4771432501434992e+02,	 1.1163503592040332e+04,	 5.1076453887091503e+02,	 2.9780474763338316e+00 
9.8591890000000004e-01,	 2.8394530000000001e-01,	 5.9952345258752364e-02,	 1.5207556272518818e+03,	 2.6408035721178777e+01,	 6.4786017546941946e+02,	 1.1174224657310388e+04,	 5.1082204188139883e+02,	 2.9775240182069531e+00 
9.8644180000000004e-01,	 2.8401139999999997e-01,	 5.9994933955204000e-02,	 1.5206608346800313e+03,	 2.6232649582667150e+01,	 6.4800766121787592e+02,	 1.1184708182175680e+04,	 5.1088018304115457e+02,	 2.9769936977810847e+00 
9.8696479999999998e-01,	 2.8407759999999999e-01,	 6.0040547905974156e-02,	 1.5205674328621399e+03,	 2.6057325229426223e+01,	 6.4815521377768846e+02,	 1.1195760594322137e+04,	 5.1093834391843080e+02,	 2.9764661456555355e+00 
9.8748320000000001e-01,	 2.8414319999999998e-01,	 6.0084460038173672e-02,	 1.5204718378084112e+03,	 2.5879441589903834e+01,	 6.4830449246372086e+02,	 1.1206529306396074e+04,	 5.1099717844747931e+02,	 2.9759304525531580e+00 
9.8800169999999998e-01,	 2.8420879999999998e-01,	 6.0128469354135662e-02,	 1.5203736401881270e+03,	 2.5699276816472235e+01,	 6.4845688200467816e+02,	 1.1217373733744604e+04,	 5.1105723205720835e+02,	 2.9753826579917426e+00 
9.8851599999999995e-01,	 2.8427379999999997e-01,	 6.0172285168626001e-02,	 1.5202740530414819e+03,	 2.5515224174368939e+01,	 6.4861126781424218e+02,	 1.1228220470210963e+04,	 5.1111806516044896e+02,	 2.9748276504215805e+00 
9.8903030000000003e-01,	 2.8433890000000001e-01,	 6.0218906290861150e-02,	 1.5201743028866099e+03,	 2.5330595251857225e+01,	 6.4876695096645176e+02,	 1.1239617173210143e+04,	 5.1117940212852523e+02,	 2.9742695483951009e+00 
9.8954089999999995e-01,	 2.8440339999999997e-01,	 6.0261851784308630e-02,	 1.5200701950613445e+03,	 2.5139217928450137e+01,	 6.4892697951388777e+02,	 1.1250407182299083e+04,	 5.1124244345113374e+02,	 2.9736929689086034e+00 
9.9005149999999997e-01,	 2.8446800000000000e-01,	 6.0309400585267195e-02,	 1.5199698179491270e+03,	 2.4946435888539391e+01,	 6.4908883879791802e+02,	 1.1262092522884994e+04,	 5.1130619806387045e+02,	 2.9731196806270774e+00 
9.9055859999999996e-01,	 2.8453210000000001e-01,	 6.0354135790892001e-02,	 1.5198687343768365e+03,	 2.4749005284428467e+01,	 6.4925397755331119e+02,	 1.1273313696986357e+04,	 5.1137123623299829e+02,	 2.9725375917622716e+00 
9.9106570000000005e-01,	 2.8459619999999997e-01,	 6.0400361557170851e-02,	 1.5197672045036397e+03,	 2.4549286388708957e+01,	 6.4942118174183065e+02,	 1.1284853499186986e+04,	 5.1143707942477533e+02,	 2.9719500774631542e+00 
9.9156979999999995e-01,	 2.8465989999999997e-01,	 6.0446645435985297e-02,	 1.5196624274366079e+03,	 2.4347028188451496e+01,	 6.4958979899266842e+02,	 1.1296433182137462e+04,	 5.1150347048173347e+02,	 2.9713531552337513e+00 
9.9207380000000001e-01,	 2.8472359999999997e-01,	 6.0493258126843349e-02,	 1.5195561677263333e+03,	 2.4142858202362802e+01,	 6.4976056363369946e+02,	 1.1308116192927133e+04,	 5.1157069826684591e+02,	 2.9707486234623723e+00 
9.9257519999999999e-01,	 2.8478690000000001e-01,	 6.0538850630157806e-02,	 1.5194455777514979e+03,	 2.3935586594561357e+01,	 6.4993477403869497e+02,	 1.1319673041617696e+04,	 5.1163927350106076e+02,	 2.9701279231737074e+00 
9.9307650000000003e-01,	 2.8485030000000000e-01,	 6.0587377125530764e-02,	 1.5193357941390832e+03,	 2.3730746032013574e+01,	 6.5010925090019487e+02,	 1.1331787855560477e+04,	 5.1170794441073184e+02,	 2.9695085381658033e+00 
9.9357540000000000e-01,	 2.8491329999999998e-01,	 6.0632363676707018e-02,	 1.5192229145454380e+03,	 2.3523021421069458e+01,	 6.5028309509339033e+02,	 1.1343234244099449e+04,	 5.1177635714939339e+02,	 2.9688847341034674e+00 
9.9407440000000002e-01,	 2.8497639999999996e-01,	 6.0680225398868970e-02,	 1.5191122112706173e+03,	 2.3319266784707644e+01,	 6.5045381235517721e+02,	 1.1355168581781352e+04,	 5.1184353045095560e+02,	 2.9682727094867047e+00 
9.9457130000000005e-01,	 2.8503909999999999e-01,	 6.0723399828144009e-02,	 1.5189993648674315e+03,	 2.3113887948543073e+01,	 6.5062637845796121e+02,	 1.1366262550230686e+04,	 5.1191142227054570e+02,	 2.9676524982552230e+00 
9.9506819999999996e-01,	 2.8510189999999996e-01,	 6.0771129425864295e-02,	 1.5188873970127036e+03,	 2.2914524585075633e+01,	 6.5079680517110705e+02,	 1.1378176268465482e+04,	 5.1197846356457262e+02,	 2.9670393268240156e+00 
9.9556339999999999e-01,	 2.8516449999999999e-01,	 6.0815832695319816e-02,	 1.5187782388035898e+03,	 2.2719619740143191e+01,	 6.5096638148073248e+02,	 1.1389513020488519e+04,	 5.1204516162065750e+02,	 2.9664339713752526e+00 
9.9605860000000002e-01,	 2.8522700000000001e-01,	 6.0857917140356058e-02,	 1.5186687130022331e+03,	 2.2527640026929443e+01,	 6.5113586797182177e+02,	 1.1400361983796074e+04,	 5.1211181566922141e+02,	 2.9658284434813487e+00 
9.9655249999999995e-01,	 2.8528939999999997e-01,	 6.0902549327243594e-02,	 1.5185615248518893e+03,	 2.2344576232627034e+01,	 6.5130077339512832e+02,	 1.1411612171458926e+04,	 5.1217665979289939e+02,	 2.9652384179607010e+00 
9.9704640000000000e-01,	 2.8535179999999999e-01,	 6.0944189703911134e-02,	 1.5184578400008834e+03,	 2.2168470595128554e+01,	 6.5146327813086953e+02,	 1.1422263769952602e+04,	 5.1224055188783620e+02,	 2.9646611308236310e+00 
9.9753919999999996e-01,	 2.8541400000000000e-01,	 6.0984309801827882e-02,	 1.5183546702483820e+03,	 2.1999114721869539e+01,	 6.5162236342874212e+02,	 1.1432574264341305e+04,	 5.1230309184152577e+02,	 2.9640930462689603e+00 
9.9803200000000003e-01,	 2.8547630000000002e-01,	 6.1025761733546735e-02,	 1.5182571609388590e+03,	 2.1841996898429677e+01,	 6.5177479120786984e+02,	 1.1443021283486260e+04,	 5.1236300741592902e+02,	 2.9635517061730132e+00 
9.9852419999999997e-01,	 2.8553839999999997e-01,	 6.1061834116249075e-02,	 1.5181600510238457e+03,	 2.1690167509752584e+01,	 6.5192604551649981e+02,	 1.1452442361454079e+04,	 5.1242245480321958e+02,	 2.9630141578148548e+00 
9.9901640000000003e-01,	 2.8560059999999998e-01,	 6.1101414660511437e-02,	 1.5180668350756146e+03,	 2.1537106821344523e+01,	 6.5207268028726889e+02,	 1.1462443499687568e+04,	 5.1248007999324159e+02,	 2.9624948601942380e+00 
9.9950819999999996e-01,	 2.8566269999999999e-01,	 6.1145020365331620e-02,	 1.5179298651674192e+03,	 2.1617630001281377e+01,	 6.5226552085830599e+02,	 1.1474016062516384e+04,	 5.1255585348344982e+02,	 2.9617919315742087e+00 
1.0000000000000000e+00,	 2.8572480000000000e-01,	 6.1209654503605604e-02,	 1.5177194457728110e+03,	 2.1342641353752757e+01,	 6.5261145110959933e+02,	 1.1492236518890455e+04,	 5.1269175294982938e+02,	 2.9605888782902667e+00 
9.5378750000000001e-01,	 2.8078490000000000e-01,	 5.0581585746830901e-02,	 1.5433058360983532e+03,	 9.3766405299717348e+01,	 6.0823910118455422e+02,	 8.8510891210172667e+03,	 4.9495549986824426e+02,	 3.1238195928198302e+00 
9.5456799999999997e-01,	 2.8088049999999998e-01,	 5.1850702981291769e-02,	 1.5405849906595890e+03,	 8.3331871173111111e+01,	 6.1429316042247740e+02,	 9.1634764106990733e+03,	 4.9741265073095127e+02,	 3.1017246883061391e+00 
9.5533279999999998e-01,	 2.8097420000000001e-01,	 5.3109081423108509e-02,	 1.5373730929677026e+03,	 7.3631554379168193e+01,	 6.2009956960044826e+02,	 9.4745841477583126e+03,	 4.9975793855907915e+02,	 3.0797616877567626e+00 
9.5609770000000005e-01,	 2.8106789999999998e-01,	 5.4141333978129966e-02,	 1.5347591619794071e+03,	 6.5784000609038287e+01,	 6.2474374222617507e+02,	 9.7310746511813486e+03,	 5.0162589073665112e+02,	 3.0623785275678728e+00 
9.5684749999999996e-01,	 2.8115970000000001e-01,	 5.4969419096007908e-02,	 1.5326575284153578e+03,	 5.9509884611207077e+01,	 6.2839318105795542e+02,	 9.9376237226199737e+03,	 5.0308888045753156e+02,	 3.0487901343606860e+00 
9.5759729999999998e-01,	 2.8125139999999998e-01,	 5.5636149619845858e-02,	 1.5309700300130044e+03,	 5.4438554527523920e+01,	 6.3128334178932937e+02,	 1.0104418684050348e+04,	 5.0424447838118755e+02,	 3.0380850137887796e+00 
9.5833250000000003e-01,	 2.8134139999999996e-01,	 5.6166531317000723e-02,	 1.5296274116882610e+03,	 5.0382456072310262e+01,	 6.3354634860863985e+02,	 1.0237311864846344e+04,	 5.0514747058214442e+02,	 3.0297230369009562e+00 
9.5906769999999997e-01,	 2.8143140000000000e-01,	 5.6591222669750238e-02,	 1.5285542576865300e+03,	 4.7093732317484957e+01,	 6.3533935716941448e+02,	 1.0343910968102999e+04,	 5.0586177807828443e+02,	 3.0231174108252752e+00 
9.5978889999999994e-01,	 2.8151949999999998e-01,	 5.6930277334261543e-02,	 1.5277028527163509e+03,	 4.4447631951745706e+01,	 6.3674846295377199e+02,	 1.0428963373851024e+04,	 5.0642243747559490e+02,	 3.0179336299707984e+00 
9.6050999999999997e-01,	 2.8160770000000002e-01,	 5.7205435099846491e-02,	 1.5270251021129602e+03,	 4.2278821765861494e+01,	 6.3787343933149828e+02,	 1.0497883512239576e+04,	 5.0686960138648044e+02,	 3.0138131656673122e+00 
9.6121760000000001e-01,	 2.8169420000000001e-01,	 5.7426917809599562e-02,	 1.5264806888170115e+03,	 4.0507974957609115e+01,	 6.3876984016127005e+02,	 1.0553337995031014e+04,	 5.0722562719690666e+02,	 3.0105302042923268e+00 
9.6192509999999998e-01,	 2.8178070000000000e-01,	 5.7610954997659419e-02,	 1.5260382998581736e+03,	 3.9035544296875230e+01,	 6.3949750411550372e+02,	 1.0599219003218373e+04,	 5.0751445169103482e+02,	 3.0078699653762699e+00 
9.6261960000000002e-01,	 2.8186559999999999e-01,	 5.7763371825288214e-02,	 1.5256762186947251e+03,	 3.7812126542122449e+01,	 6.4008956873649049e+02,	 1.0637099547573800e+04,	 5.0774933285415540e+02,	 3.0057050063893427e+00 
9.6331409999999995e-01,	 2.8195039999999999e-01,	 5.7892714660561381e-02,	 1.5253736775731059e+03,	 3.6774613257672655e+01,	 6.4058343691091920e+02,	 1.0669143522849457e+04,	 5.0794517488750535e+02,	 3.0039007765153061e+00 
9.6399599999999996e-01,	 2.8203370000000000e-01,	 5.8003723062216836e-02,	 1.5251182866290781e+03,	 3.5895115505083723e+01,	 6.4099800508335682e+02,	 1.0696519462845688e+04,	 5.0810951245203455e+02,	 3.0023855166549258e+00 
9.6467780000000003e-01,	 2.8211690000000000e-01,	 5.8101728102744388e-02,	 1.5248984656935754e+03,	 3.5132943134706508e+01,	 6.4135568467667588e+02,	 1.0720571449684487e+04,	 5.0825125630804285e+02,	 3.0010808951427053e+00 
9.6534750000000003e-01,	 2.8219869999999997e-01,	 5.8188764976355362e-02,	 1.5247069081189775e+03,	 3.4471293611497309e+01,	 6.4166720646783767e+02,	 1.0741845993562074e+04,	 5.0837467621671914e+02,	 2.9999459086494964e+00 
9.6601729999999997e-01,	 2.8228039999999999e-01,	 5.8267860170440854e-02,	 1.5245413729113156e+03,	 3.3884792869543759e+01,	 6.4195022906219890e+02,	 1.0761191625298017e+04,	 5.0848677923229019e+02,	 2.9989332154505286e+00 
9.6667530000000002e-01,	 2.8236069999999996e-01,	 5.8341240025620224e-02,	 1.5243929726007480e+03,	 3.3364932324162467e+01,	 6.4221074717125259e+02,	 1.0779116411469193e+04,	 5.0858994655827013e+02,	 2.9980106258144490e+00 
9.6733340000000001e-01,	 2.8244100000000000e-01,	 5.8409953333813748e-02,	 1.5242374070622059e+03,	 3.2893546527507766e+01,	 6.4244367247738126e+02,	 1.0795725983233440e+04,	 5.0868216918923611e+02,	 2.9971412109373547e+00 
9.6798019999999996e-01,	 2.8251979999999999e-01,	 5.8474673720848670e-02,	 1.5240864786657974e+03,	 3.2467506948785015e+01,	 6.4264098953327868e+02,	 1.0811007467878664e+04,	 5.0876028028798078e+02,	 2.9963665109308462e+00 
9.6862700000000002e-01,	 2.8259869999999998e-01,	 5.8537191410615599e-02,	 1.5239584137013067e+03,	 3.2074568174860246e+01,	 6.4283855320884982e+02,	 1.0825893086115306e+04,	 5.0883847700183321e+02,	 2.9956380659093766e+00 
9.6926299999999999e-01,	 2.8267619999999999e-01,	 5.8597205746570923e-02,	 1.5238401367899517e+03,	 3.1710711252522010e+01,	 6.4304388677069539e+02,	 1.0840453682462596e+04,	 5.0891973634323119e+02,	 2.9949124351060190e+00 
9.6989899999999996e-01,	 2.8275370000000000e-01,	 5.8655376735874287e-02,	 1.5237224114124706e+03,	 3.1368118351621600e+01,	 6.4323811719398532e+02,	 1.0854492879311014e+04,	 5.0899658975461739e+02,	 2.9942150651746484e+00 
9.7052470000000002e-01,	 2.8282999999999997e-01,	 5.8712661424913104e-02,	 1.5236076164582460e+03,	 3.1047743369359971e+01,	 6.4342391023721643e+02,	 1.0868231995188054e+04,	 5.0907009379231408e+02,	 2.9935443945253111e+00 
9.7115039999999997e-01,	 2.8290620000000000e-01,	 5.8769155109702181e-02,	 1.5234957832776861e+03,	 3.0742632552999307e+01,	 6.4360535083353943e+02,	 1.0881757181818242e+04,	 5.0914186565936177e+02,	 2.9928906507005903e+00 
9.7176620000000002e-01,	 2.8298119999999999e-01,	 5.8823095974772817e-02,	 1.5233843548249340e+03,	 3.0453281617131569e+01,	 6.4378304894531334e+02,	 1.0894752116193944e+04,	 5.0921214731877262e+02,	 2.9922473791587394e+00 
9.7238190000000002e-01,	 2.8305619999999998e-01,	 5.8877588913194029e-02,	 1.5232753040368834e+03,	 3.0177290293702995e+01,	 6.4395771474254889e+02,	 1.0907803481226025e+04,	 5.0928122021055844e+02,	 2.9916166790820449e+00 
9.7298819999999997e-01,	 2.8312999999999999e-01,	 5.8930638297817209e-02,	 1.5231682628248861e+03,	 2.9913828651463913e+01,	 6.4412904786186675e+02,	 1.0920536311960268e+04,	 5.0934896606941106e+02,	 2.9909984667595473e+00 
9.7359450000000003e-01,	 2.8320370000000000e-01,	 5.8983344086689336e-02,	 1.5230625217471986e+03,	 2.9659690398950527e+01,	 6.4429852029751282e+02,	 1.0933179109041152e+04,	 5.0941596734275760e+02,	 2.9903877857344385e+00 
9.7419169999999999e-01,	 2.8327639999999998e-01,	 5.9035032392265041e-02,	 1.5229581902343027e+03,	 2.9415621853768556e+01,	 6.4446517765421379e+02,	 1.0945590583536818e+04,	 5.0948184707597761e+02,	 2.9897870764327834e+00 
9.7478889999999996e-01,	 2.8334909999999996e-01,	 5.9086172628012266e-02,	 1.5228544718008766e+03,	 2.9178864423178101e+01,	 6.4463064453462994e+02,	 1.0957885134972616e+04,	 5.0954724778675967e+02,	 2.9891908858395451e+00 
9.7537739999999995e-01,	 2.8342059999999997e-01,	 5.9136572869712960e-02,	 1.5227518505776911e+03,	 2.8950786648441102e+01,	 6.4479364901586894e+02,	 1.0970005390481940e+04,	 5.0961166702862766e+02,	 2.9886031513815130e+00 
9.7596590000000005e-01,	 2.8349219999999997e-01,	 5.9186782627252563e-02,	 1.5226503079229569e+03,	 2.8728550434164603e+01,	 6.4495547875981515e+02,	 1.0982075025752643e+04,	 5.0967561396093686e+02,	 2.9880207322918206e+00 
9.7654620000000003e-01,	 2.8356270000000000e-01,	 5.9236136148370741e-02,	 1.5225498743478620e+03,	 2.8513352633581402e+01,	 6.4511508758733521e+02,	 1.0993952573710361e+04,	 5.0973867544158594e+02,	 2.9874461451353191e+00 
9.7712639999999995e-01,	 2.8363329999999998e-01,	 5.9284707736480854e-02,	 1.5224494381071033e+03,	 2.8302923617892095e+01,	 6.4527403870528519e+02,	 1.1005678277311434e+04,	 5.0980146930861241e+02,	 2.9868734952678415e+00 
9.7769879999999998e-01,	 2.8370279999999998e-01,	 5.9333812844365362e-02,	 1.5223516002627475e+03,	 2.8099452143389634e+01,	 6.4543017522926300e+02,	 1.1017459445813543e+04,	 5.0986314373686940e+02,	 2.9863129462812172e+00 
9.7827120000000001e-01,	 2.8377239999999998e-01,	 5.9380513519355901e-02,	 1.5222523107839329e+03,	 2.7898639330581535e+01,	 6.4558671883798763e+02,	 1.1028805402673775e+04,	 5.0992497147630888e+02,	 2.9857489368234966e+00 
9.7883620000000005e-01,	 2.8384100000000001e-01,	 5.9427794102853433e-02,	 1.5221539580942749e+03,	 2.7704928353125311e+01,	 6.4574095334610172e+02,	 1.1040223820485842e+04,	 5.0998587989344838e+02,	 2.9851925862981590e+00 
9.7940110000000002e-01,	 2.8390959999999998e-01,	 5.9475460204085485e-02,	 1.5220580747515196e+03,	 2.7514347420077055e+01,	 6.4589399901151808e+02,	 1.1051697729088613e+04,	 5.1004631163763503e+02,	 2.9846441569510667e+00 
9.7995900000000002e-01,	 2.8397739999999999e-01,	 5.9520922011646063e-02,	 1.5219613228247449e+03,	 2.7326878329702666e+01,	 6.4604634868111850e+02,	 1.1062754219403547e+04,	 5.1010646144979154e+02,	 2.9840959597787089e+00 
9.8051679999999997e-01,	 2.8404509999999999e-01,	 5.9566763438337465e-02,	 1.5218646169453102e+03,	 2.7143096120014178e+01,	 6.4619823269231836e+02,	 1.1073877288826319e+04,	 5.1016642035407932e+02,	 2.9835492718542254e+00 
9.8106800000000005e-01,	 2.8411199999999998e-01,	 5.9612208519644730e-02,	 1.5217689533531802e+03,	 2.6962968137231478e+01,	 6.4634883022971746e+02,	 1.1084908600654802e+04,	 5.1022586444327391e+02,	 2.9830079342594331e+00 
9.8161909999999997e-01,	 2.8417890000000001e-01,	 5.9657164594553905e-02,	 1.5216731315380953e+03,	 2.6784580299534429e+01,	 6.4649957204235329e+02,	 1.1095855374497942e+04,	 5.1028535854630297e+02,	 2.9824662214472744e+00 
9.8216400000000004e-01,	 2.8424499999999997e-01,	 5.9701508860014733e-02,	 1.5215771639335821e+03,	 2.6609229710000655e+01,	 6.4664966621957842e+02,	 1.1106681104766578e+04,	 5.1034459015251849e+02,	 2.9819260273139445e+00 
9.8270880000000005e-01,	 2.8431109999999998e-01,	 5.9746166442479959e-02,	 1.5214815484483697e+03,	 2.6435360670499758e+01,	 6.4679974469521744e+02,	 1.1117568696856606e+04,	 5.1040380868976160e+02,	 2.9813868139211741e+00 
9.8324769999999995e-01,	 2.8437649999999998e-01,	 5.9790195331906937e-02,	 1.5213859132708349e+03,	 2.6262893374627417e+01,	 6.4694961479431322e+02,	 1.1128339546567857e+04,	 5.1046293814938355e+02,	 2.9808482927941031e+00 
9.8378659999999996e-01,	 2.8444179999999997e-01,	 5.9834025199438402e-02,	 1.5212894806689744e+03,	 2.6090563195228938e+01,	 6.4710092713654581e+02,	 1.1139101968436620e+04,	 5.1052262968119635e+02,	 2.9803050955765604e+00 
9.8431990000000003e-01,	 2.8450650000000000e-01,	 5.9877520326498498e-02,	 1.5211926627523324e+03,	 2.5919131774607923e+01,	 6.4725267468886580e+02,	 1.1149813371265654e+04,	 5.1058248589137861e+02,	 2.9797603772308343e+00 
9.8485319999999998e-01,	 2.8457119999999997e-01,	 5.9921408728925069e-02,	 1.5210958567053581e+03,	 2.5747090406046038e+01,	 6.4740520770139301e+02,	 1.1160615361461862e+04,	 5.1064264485241387e+02,	 2.9792140603810537e+00 
9.8538139999999996e-01,	 2.8463519999999998e-01,	 5.9964631500520865e-02,	 1.5209981556384853e+03,	 2.5574329938764873e+01,	 6.4755842189636382e+02,	 1.1171308949154412e+04,	 5.1070306533749340e+02,	 2.9786646083179655e+00 
9.8590949999999999e-01,	 2.8469919999999999e-01,	 6.0008995528867112e-02,	 1.5209003134155805e+03,	 2.5399642731380137e+01,	 6.4771276976990316e+02,	 1.1182238583800103e+04,	 5.1076392566524794e+02,	 2.9781124200141820e+00 
9.8643270000000005e-01,	 2.8476259999999998e-01,	 6.0052159197323735e-02,	 1.5208000632083176e+03,	 2.5222217958028704e+01,	 6.4786916706431316e+02,	 1.1192983833840166e+04,	 5.1082558669639172e+02,	 2.9775509324522713e+00 