TITLE = "Final State"
VARIABLES = "X", "Y", "rho", "u", "v", "T", "p", "c", "M"
ZONE I=75, J=11, DATAPACKING=POINT, STRANDID=17000, SOLUTIONTIME=0.000608
5.0617190000000001e-01,	 3.8144160000000003e-02,	 1.1739394012924103e+00,	 2.0019275931251818e+02,	 1.3908507916381346e-01,	 3.0000092289589531e+02,	 1.0132070603725794e+05,	 3.4760841541861367e+02,	 5.7591473263530957e-01 
5.1076849999999996e-01,	 3.8255450000000003e-02,	 1.1739456589415207e+00,	 2.0017511773416828e+02,	 1.2687088665903512e-01,	 3.0000425709984967e+02,	 1.0132237220647284e+05,	 3.4761034706955962e+02,	 5.7586075796374081e-01 
5.1540920000000001e-01,	 3.8367800000000001e-02,	 1.1740190485839386e+00,	 2.0013153191030955e+02,	 8.5328903444430587e-02,	 3.0001305254808574e+02,	 1.0133167714079664e+05,	 3.4761544260792783e+02,	 5.7572686817204033e-01 
5.2009439999999996e-01,	 3.8481230000000005e-02,	 1.1741325816767225e+00,	 2.0008579447457947e+02,	 6.4077520430403268e-02,	 3.0002235492977348e+02,	 1.0134461863804226e+05,	 3.4762083175089094e+02,	 5.7558634713348567e-01 
5.2482470000000003e-01,	 3.8595760000000000e-02,	 1.1742153105894038e+00,	 2.0005036012854919e+02,	 4.8215039623854525e-02,	 3.0002932245153949e+02,	 1.0135411306596072e+05,	 3.4762486818619294e+02,	 5.7547771821566374e-01 
5.2960050000000003e-01,	 3.8711380000000004e-02,	 1.1742762361063972e+00,	 2.0002177060162074e+02,	 3.5404804878881722e-02,	 3.0003457614147112e+02,	 1.0136114680335649e+05,	 3.4762791173083747e+02,	 5.7539043035734061e-01 
5.3442219999999996e-01,	 3.8828120000000001e-02,	 1.1743226761734531e+00,	 1.9999748160377760e+02,	 2.4351259436782846e-02,	 3.0003874514505253e+02,	 1.0136656389255832e+05,	 3.4763032688077328e+02,	 5.7531655791023373e-01 
5.3929020000000005e-01,	 3.8945970000000003e-02,	 1.1743567467149147e+00,	 1.9997593410248052e+02,	 1.4473214253322479e-02,	 3.0004205499747070e+02,	 1.0137062308281541e+05,	 3.4763224430297873e+02,	 5.7525139829071614e-01 
5.4420519999999994e-01,	 3.9064970000000004e-02,	 1.1743824244569430e+00,	 1.9995720704551783e+02,	 5.2267671576132794e-03,	 3.0004464058741553e+02,	 1.0137371316161419e+05,	 3.4763374214717089e+02,	 5.7519504832525203e-01 
5.4916750000000003e-01,	 3.9185110000000002e-02,	 1.1743990766780938e+00,	 1.9993938198958102e+02,	 -3.5619693481205462e-03,	 3.0004691404175662e+02,	 1.0137591872079496e+05,	 3.4763505916443467e+02,	 5.7514159389412012e-01 
5.5417749999999999e-01,	 3.9306400000000005e-02,	 1.1744091698823920e+00,	 1.9992343905915334e+02,	 -1.1977162631972411e-02,	 3.0004875098926027e+02,	 1.0137741063065792e+05,	 3.4763612330865152e+02,	 5.7509397330500700e-01 
5.5923590000000001e-01,	 3.9428870000000005e-02,	 1.1744133127684833e+00,	 1.9990875221235081e+02,	 -2.0332098445728621e-02,	 3.0005046208651038e+02,	 1.0137834638321097e+05,	 3.4763711454485002e+02,	 5.7505008781367351e-01 
5.6434300000000004e-01,	 3.9552510000000006e-02,	 1.1744130623890388e+00,	 1.9989513144193830e+02,	 -2.8684735792496280e-02,	 3.0005206526330181e+02,	 1.0137886643663266e+05,	 3.4763804326031601e+02,	 5.7500937361555815e-01 
5.6949939999999999e-01,	 3.9677350000000000e-02,	 1.1744089052034736e+00,	 1.9988369371158802e+02,	 -3.7194854404456149e-02,	 3.0005352278329428e+02,	 1.0137900002774924e+05,	 3.4763888759508575e+02,	 5.7497507990262320e-01 
5.7470549999999998e-01,	 3.9803400000000003e-02,	 1.1744031051809460e+00,	 1.9987342184200241e+02,	 -4.5988681540267098e-02,	 3.0005509733474423e+02,	 1.0137903134056649e+05,	 3.4763979972334766e+02,	 5.7494402911233833e-01 
5.7996190000000003e-01,	 3.9930660000000000e-02,	 1.1743956774767337e+00,	 1.9986410887876139e+02,	 -5.5004435661016295e-02,	 3.0005684317425278e+02,	 1.0137898001199195e+05,	 3.4764081107496219e+02,	 5.7491557400758364e-01 
5.8526900000000004e-01,	 4.0059140000000000e-02,	 1.1743888623275300e+00,	 1.9985698265142588e+02,	 -6.4002523594409721e-02,	 3.0005845839535812e+02,	 1.0137893742344543e+05,	 3.4764174675770403e+02,	 5.7489353555358780e-01 
5.9062740000000002e-01,	 4.0188870000000002e-02,	 1.1743845997202649e+00,	 1.9985262566906840e+02,	 -7.2721236395580882e-02,	 3.0005976527392460e+02,	 1.0137901100008891e+05,	 3.4764250381860376e+02,	 5.7487975924843726e-01 
5.9603759999999995e-01,	 4.0319860000000006e-02,	 1.1743830017354289e+00,	 1.9985049024476996e+02,	 -8.0839933698831579e-02,	 3.0006076765177727e+02,	 1.0137921171934903e+05,	 3.4764308448435065e+02,	 5.7487266542684601e-01 
6.0150000000000003e-01,	 4.0452109999999999e-02,	 1.1743841703224234e+00,	 1.9985015309983280e+02,	 -8.7878510903247026e-02,	 3.0006146095926317e+02,	 1.0137954684089067e+05,	 3.4764348610868757e+02,	 5.7487104003556166e-01 
6.0701530000000004e-01,	 4.0585630000000004e-02,	 1.1743889443980002e+00,	 1.9985249356324124e+02,	 -9.3248515098602686e-02,	 3.0006154854729391e+02,	 1.0137998855919304e+05,	 3.4764353684730298e+02,	 5.7487769549784717e-01 
6.1258389999999996e-01,	 4.0720450000000005e-02,	 1.1743983160001372e+00,	 1.9985806125620758e+02,	 -9.6578855419235235e-02,	 3.0006094181728184e+02,	 1.0138059257578217e+05,	 3.4764318537628816e+02,	 5.7489429679206705e-01 
6.1820640000000004e-01,	 4.0856580000000003e-02,	 1.1744102534151684e+00,	 1.9986553834889955e+02,	 -9.7602703056327358e-02,	 3.0005995711953119e+02,	 1.0138129037988636e+05,	 3.4764261495259115e+02,	 5.7491674951270189e-01 
6.2388330000000003e-01,	 4.0994020000000006e-02,	 1.1744240397074077e+00,	 1.9987488827794209e+02,	 -9.6124354239004700e-02,	 3.0005869094541663e+02,	 1.0138205267797418e+05,	 3.4764188147160831e+02,	 5.7494485574072696e-01 
6.2961509999999998e-01,	 4.1132790000000002e-02,	 1.1744393141692999e+00,	 1.9988587870538692e+02,	 -9.2156084154181070e-02,	 3.0005736514901935e+02,	 1.0138292328650574e+05,	 3.4764111345042272e+02,	 5.7497773484111558e-01 
6.3540249999999998e-01,	 4.1272900000000001e-02,	 1.1744552306515619e+00,	 1.9989850023309998e+02,	 -8.5900240828055460e-02,	 3.0005607667846857e+02,	 1.0138386191701864e+05,	 3.4764036705011767e+02,	 5.7501526760491484e-01 
6.4124599999999998e-01,	 4.1414380000000001e-02,	 1.1744717918183785e+00,	 1.9991226186857074e+02,	 -7.7801547524922424e-02,	 3.0005513109586860e+02,	 1.0138497204500542e+05,	 3.4763981928093943e+02,	 5.7505575000416687e-01 
6.4714600000000000e-01,	 4.1557220000000006e-02,	 1.1744873917030310e+00,	 1.9992652734292477e+02,	 -6.8339537066790690e-02,	 3.0005465814746981e+02,	 1.0138615888208659e+05,	 3.4763954530502025e+02,	 5.7509722850295919e-01 
6.5310319999999999e-01,	 4.1701450000000001e-02,	 1.1745027519016347e+00,	 1.9994130566423155e+02,	 -5.8070598512530505e-02,	 3.0005473143119548e+02,	 1.0138750959439931e+05,	 3.4763958775781811e+02,	 5.7513965940058775e-01 
6.5911819999999999e-01,	 4.1847070000000000e-02,	 1.1745170395850137e+00,	 1.9995622134400202e+02,	 -4.7519803547126642e-02,	 3.0005531901176801e+02,	 1.0138894150510742e+05,	 3.4763992813933294e+02,	 5.7518199379682722e-01 
6.6519159999999999e-01,	 4.1994110000000001e-02,	 1.1745319424267910e+00,	 1.9997200781590897e+02,	 -3.7172057916426617e-02,	 3.0005620833591786e+02,	 1.0139052848434733e+05,	 3.4764044331825977e+02,	 5.7522654545612151e-01 
6.7132380000000003e-01,	 4.2142580000000006e-02,	 1.1745466496517669e+00,	 1.9998727605225056e+02,	 -2.7455383910023064e-02,	 3.0005758883274621e+02,	 1.0139226455653961e+05,	 3.4764124302838752e+02,	 5.7526913721377781e-01 
6.7751560000000000e-01,	 4.2292480000000000e-02,	 1.1745609364749980e+00,	 2.0000224151066294e+02,	 -1.8661117654549156e-02,	 3.0005921109546580e+02,	 1.0139404604518521e+05,	 3.4764218278909857e+02,	 5.7531062765930308e-01 
6.8376740000000003e-01,	 4.2443840000000004e-02,	 1.1745760351723344e+00,	 2.0001745299974402e+02,	 -1.1084205441412382e-02,	 3.0006086536725877e+02,	 1.0139590844906397e+05,	 3.4764314108973247e+02,	 5.7535279620327218e-01 
6.9007989999999997e-01,	 4.2596670000000003e-02,	 1.1745907436008187e+00,	 2.0003220467611266e+02,	 -4.9517733866124673e-03,	 3.0006251490455321e+02,	 1.0139773557706852e+05,	 3.4764409664509549e+02,	 5.7539364731860454e-01 
6.9645380000000001e-01,	 4.2750990000000003e-02,	 1.1746047749788482e+00,	 2.0004623009885216e+02,	 -3.9368200955947313e-04,	 3.0006411472411287e+02,	 1.0139948747072682e+05,	 3.4764502339711657e+02,	 5.7543245735097370e-01 
7.0288949999999994e-01,	 4.2906800000000002e-02,	 1.1746174457540548e+00,	 2.0005950605810176e+02,	 2.5014989936411941e-03,	 3.0006550183986229e+02,	 1.0140105004169373e+05,	 3.4764582693093854e+02,	 5.7546931553843628e-01 
7.0938780000000001e-01,	 4.3064130000000006e-02,	 1.1746284008475540e+00,	 2.0007190900711794e+02,	 3.7403845082021213e-03,	 3.0006667001914104e+02,	 1.0140239052682393e+05,	 3.4764650363694710e+02,	 5.7550387232146571e-01 
7.1594919999999995e-01,	 4.3222980000000001e-02,	 1.1746363790363539e+00,	 2.0008306472018089e+02,	 3.4044359047488990e-03,	 3.0006755334016202e+02,	 1.0140337776682344e+05,	 3.4764701532862966e+02,	 5.7553511443210992e-01 
7.2257439999999995e-01,	 4.3383380000000006e-02,	 1.1746417132704030e+00,	 2.0009320511477108e+02,	 1.5599155812354652e-03,	 3.0006799066245827e+02,	 1.0140398604496529e+05,	 3.4764726866114421e+02,	 5.7556386360073708e-01 
7.2926400000000002e-01,	 4.3545340000000002e-02,	 1.1746424681648555e+00,	 2.0010166905076451e+02,	 -1.5790996757799308e-03,	 3.0006802499190007e+02,	 1.0140406281436837e+05,	 3.4764728854753116e+02,	 5.7558817700842457e-01 
7.3601859999999997e-01,	 4.3708870000000004e-02,	 1.1746389454951878e+00,	 2.0010852672951881e+02,	 -5.7234395052847579e-03,	 3.0006752050822388e+02,	 1.0140358822761111e+05,	 3.4764699630970296e+02,	 5.7560838705794881e-01 
7.4283900000000003e-01,	 4.3874000000000003e-02,	 1.1746304604444799e+00,	 2.0011364295834414e+02,	 -1.0554782072005912e-02,	 3.0006646136323229e+02,	 1.0140249781426319e+05,	 3.4764638276629233e+02,	 5.7562412024641230e-01 
7.4972570000000005e-01,	 4.4040730000000000e-02,	 1.1746157355004665e+00,	 2.0011661430281870e+02,	 -1.5689909902897859e-02,	 3.0006485837379773e+02,	 1.0140068495486256e+05,	 3.4764545418163772e+02,	 5.7563420580018965e-01 
7.5667940000000000e-01,	 4.4209080000000005e-02,	 1.1745951586679579e+00,	 2.0011756414798577e+02,	 -2.0737447259532596e-02,	 3.0006262679440522e+02,	 1.0139815452239951e+05,	 3.4764416146132703e+02,	 5.7563907986045704e-01 
7.6370079999999996e-01,	 4.4379070000000000e-02,	 1.1745686147708301e+00,	 2.0011652791863406e+02,	 -2.5331868507404331e-02,	 3.0005970462944288e+02,	 1.0139487564741519e+05,	 3.4764246868793481e+02,	 5.7563890360471370e-01 
7.7079050000000005e-01,	 4.4550720000000002e-02,	 1.1745358463047428e+00,	 2.0011336491879922e+02,	 -2.9148728808905424e-02,	 3.0005613313779145e+02,	 1.0139084007356613e+05,	 3.4764039975656874e+02,	 5.7563323244894427e-01 
7.7794929999999995e-01,	 4.4724040000000000e-02,	 1.1744968024144153e+00,	 2.0010794691751403e+02,	 -3.1923663075239930e-02,	 3.0005204181215743e+02,	 1.0138608720336422e+05,	 3.4763802967515687e+02,	 5.7562157296463512e-01 
7.8517769999999998e-01,	 4.4899040000000001e-02,	 1.1744527087120489e+00,	 2.0010068917546167e+02,	 -3.3492143588289711e-02,	 3.0004741670883061e+02,	 1.0138071816204894e+05,	 3.4763535035993885e+02,	 5.7560513270925151e-01 
7.9247659999999998e-01,	 4.5075750000000005e-02,	 1.1744049674474633e+00,	 2.0009187425165862e+02,	 -3.3830035498280030e-02,	 3.0004238924820277e+02,	 1.0137489843537803e+05,	 3.4763243793633421e+02,	 5.7558459820187491e-01 
7.9984659999999996e-01,	 4.5254180000000005e-02,	 1.1743547888756263e+00,	 2.0008176207450387e+02,	 -3.2989847242855988e-02,	 3.0003713690884308e+02,	 1.0136879248521694e+05,	 3.4762939521371794e+02,	 5.7556054680361379e-01 
8.0728840000000002e-01,	 4.5434350000000005e-02,	 1.1743040110282570e+00,	 2.0007116769879264e+02,	 -3.1136696591535923e-02,	 3.0003177131511302e+02,	 1.0136259669711071e+05,	 3.4762628685443002e+02,	 5.7553521608521463e-01 
8.1480269999999999e-01,	 4.5616280000000002e-02,	 1.1742542047744053e+00,	 2.0006032524698674e+02,	 -2.8484239506299115e-02,	 3.0002654655269578e+02,	 1.0135653250584016e+05,	 3.4762326005387143e+02,	 5.7550903597115843e-01 
8.2239030000000002e-01,	 4.5799980000000004e-02,	 1.1742063749735658e+00,	 2.0004898710738951e+02,	 -2.5263138441780165e-02,	 3.0002175716950694e+02,	 1.0135078613627562e+05,	 3.4762048545332158e+02,	 5.7548101183302314e-01 
8.3005180000000001e-01,	 4.5985460000000006e-02,	 1.1741627872177272e+00,	 2.0003860316246576e+02,	 -2.1688827443857941e-02,	 3.0001737316652736e+02,	 1.0134554297875763e+05,	 3.4761794567949721e+02,	 5.7545534350141681e-01 
8.3778799999999998e-01,	 4.6172760000000000e-02,	 1.1741256473196529e+00,	 2.0002976243519021e+02,	 -1.7970652847527399e-02,	 3.0001349410521181e+02,	 1.0134102702052174e+05,	 3.4761569841683024e+02,	 5.7543363016526616e-01 
8.4559969999999995e-01,	 4.6361890000000003e-02,	 1.1740945948596528e+00,	 2.0002140363152145e+02,	 -1.4260602917206208e-02,	 3.0001037639602259e+02,	 1.0133729372577868e+05,	 3.4761389221895217e+02,	 5.7541257302194126e-01 
8.5348760000000001e-01,	 4.6552860000000001e-02,	 1.1740701904186732e+00,	 2.0001375882719708e+02,	 -1.0546892849120727e-02,	 3.0000801178105939e+02,	 1.0133438865238283e+05,	 3.4761252230861692e+02,	 5.7539284769406074e-01 
8.6145240000000001e-01,	 4.6745689999999999e-02,	 1.1740525579745138e+00,	 2.0000691953235128e+02,	 -6.6844605621238637e-03,	 3.0000636028001168e+02,	 1.0133230896737416e+05,	 3.4761156552877719e+02,	 5.7537475584222109e-01 
8.6949489999999996e-01,	 4.6940400000000000e-02,	 1.1740409502183689e+00,	 2.0000118875675440e+02,	 -2.3812640431545916e-03,	 3.0000525205664815e+02,	 1.0133093278579140e+05,	 3.4761092348969885e+02,	 5.7535933210354717e-01 
8.7761590000000000e-01,	 4.7137020000000002e-02,	 1.1740338883691797e+00,	 1.9999573223093620e+02,	 2.8901454177372838e-03,	 3.0000467312098090e+02,	 1.0133012773847469e+05,	 3.4761058808813897e+02,	 5.7534419003689485e-01 
8.8581620000000005e-01,	 4.7335550000000004e-02,	 1.1740284442833950e+00,	 1.9999034719600397e+02,	 9.8846904347202023e-03,	 3.0000433959772283e+02,	 1.0132954521194493e+05,	 3.4761039486406867e+02,	 5.7532901891063637e-01 
8.9409649999999996e-01,	 4.7536020000000005e-02,	 1.1740216810657687e+00,	 1.9998639831120951e+02,	 1.9493262192683346e-02,	 3.0000365797924815e+02,	 1.0132873126121682e+05,	 3.4760999997344470e+02,	 5.7531831442283032e-01 
9.0245759999999997e-01,	 4.7738450000000002e-02,	 1.1740075143816200e+00,	 1.9998368962559559e+02,	 3.2799670183046720e-02,	 3.0000222181692925e+02,	 1.0132702347782291e+05,	 3.4760916794195469e+02,	 5.7531190416921052e-01 
9.1090040000000005e-01,	 4.7942850000000002e-02,	 1.1739794439143192e+00,	 1.9998331838170282e+02,	 5.0860779363926106e-02,	 2.9999934906588686e+02,	 1.0132363049255573e+05,	 3.4760750362596383e+02,	 5.7531360158576283e-01 
9.1942559999999995e-01,	 4.8149250000000005e-02,	 1.1739319391913983e+00,	 1.9998616623264593e+02,	 7.4590308348664244e-02,	 2.9999439070217022e+02,	 1.0131785586193208e+05,	 3.4760463100047184e+02,	 5.7532657021080191e-01 
9.2803409999999997e-01,	 4.8357670000000005e-02,	 1.1738599277621629e+00,	 1.9999169936324193e+02,	 1.0472574000127699e-01,	 2.9998717599044016e+02,	 1.0130920432054531e+05,	 3.4760045111850599e+02,	 5.7534944543238598e-01 
9.3672670000000002e-01,	 4.8568120000000006e-02,	 1.1737628864430807e+00,	 1.9999895623083546e+02,	 1.4174672744950048e-01,	 2.9997774815427380e+02,	 1.0129764560555294e+05,	 3.4759498897526277e+02,	 5.7537942952239007e-01 
9.4550409999999996e-01,	 4.8780630000000005e-02,	 1.1736459409720092e+00,	 2.0000468706178003e+02,	 1.8651000242626758e-01,	 2.9996687166132631e+02,	 1.0128388057099975e+05,	 3.4758868742666601e+02,	 5.7540645383308830e-01 
9.5436739999999998e-01,	 4.8995210000000004e-02,	 1.1735199656749715e+00,	 2.0000597269909622e+02,	 2.4052577062037367e-01,	 2.9995575518813359e+02,	 1.0126925601547545e+05,	 3.4758224672189124e+02,	 5.7542098082578519e-01 
9.6331719999999998e-01,	 4.9211890000000001e-02,	 1.1734025777777395e+00,	 1.9999646998536485e+02,	 3.0742573911950899e-01,	 2.9994571607292067e+02,	 1.0125573698522151e+05,	 3.4757643011834648e+02,	 5.7540353411697498e-01 
9.7235459999999996e-01,	 4.9430690000000006e-02,	 1.1733172882333021e+00,	 1.9997595901275855e+02,	 3.9633073079092540e-01,	 2.9993739196839465e+02,	 1.0124556729615683e+05,	 3.4757160710795853e+02,	 5.7535295652785767e-01 
9.8148020000000002e-01,	 4.9651630000000002e-02,	 1.1733038145650965e+00,	 1.9995603312289722e+02,	 5.2981474652325766e-01,	 2.9992872185095001e+02,	 1.0124147803942006e+05,	 3.4756658354552127e+02,	 5.7530483222920492e-01 
9.9069510000000005e-01,	 4.9874720000000004e-02,	 1.1731625991090171e+00,	 1.9997414758497041e+02,	 5.3699412091155085e-01,	 2.9991434224299735e+02,	 1.0122443962946773e+05,	 3.4755825168073159e+02,	 5.7537079789226542e-01 
1.0000000000000000e+00,	 5.0100000000000006e-02,	 1.1729708024162058e+00,	 1.9999531121985544e+02,	 4.2023457134662451e-01,	 2.9990247180499989e+02,	 1.0120388501128873e+05,	 3.4755137353434162e+02,	 5.7544227401159853e-01 
5.0616459999999996e-01,	 3.8753800000000005e-02,	 1.1739238974431925e+00,	 2.0019759049670910e+02,	 1.5681649964698008e-01,	 2.9999825649580589e+02,	 1.0131846740269200e+05,	 3.4760687064808349e+02,	 5.7593122811786379e-01 
5.1076120000000003e-01,	 3.8867970000000002e-02,	 1.1739436056372803e+00,	 2.0017972367296090e+02,	 1.2787187634886249e-01,	 3.0000272069472430e+02,	 1.0132167608821655e+05,	 3.4760945696385278e+02,	 5.7587548469693717e-01 
5.1540189999999997e-01,	 3.8983240000000002e-02,	 1.1740237855206115e+00,	 2.0013592904615217e+02,	 8.8659201385980185e-02,	 3.0001215302539453e+02,	 1.0133178217242913e+05,	 3.4761492148357979e+02,	 5.7574038487698576e-01 
5.2008710000000002e-01,	 3.9099610000000000e-02,	 1.1741345991639434e+00,	 2.0008966178578706e+02,	 6.6552964524655561e-02,	 3.0002147370120821e+02,	 1.0134449510545394e+05,	 3.4762032123287997e+02,	 5.7559831986928678e-01 
5.2481739999999999e-01,	 3.9217100000000005e-02,	 1.1742161182977324e+00,	 2.0005318703986751e+02,	 5.0160394418569329e-02,	 3.0002864144544799e+02,	 1.0135395273092011e+05,	 3.4762447366677532e+02,	 5.7548650478540342e-01 
5.2959310000000004e-01,	 3.9335720000000005e-02,	 1.1742757833584485e+00,	 2.0002301053955821e+02,	 3.6979843856475403e-02,	 3.0003425985241319e+02,	 1.0136100087068793e+05,	 3.4762772850039931e+02,	 5.7539430131422109e-01 
5.3441479999999997e-01,	 3.9455480000000001e-02,	 1.1743207986092370e+00,	 1.9999697426242187e+02,	 2.5760207658050885e-02,	 3.0003878261890577e+02,	 1.0136641448309577e+05,	 3.4763034858971531e+02,	 5.7531506306274971e-01 
5.3928279999999995e-01,	 3.9576390000000003e-02,	 1.1743536075876766e+00,	 1.9997358406781339e+02,	 1.5759360879674885e-02,	 3.0004250174735051e+02,	 1.0137050304910472e+05,	 3.4763250310770792e+02,	 5.7524421019639438e-01 
5.4419770000000001e-01,	 3.9698470000000000e-02,	 1.1743771325053054e+00,	 1.9995209228234671e+02,	 6.4559014259354666e-03,	 3.0004566352458653e+02,	 1.0137360196588837e+05,	 3.4763433473761506e+02,	 5.7517935487438754e-01 
5.4915999999999998e-01,	 3.9821720000000005e-02,	 1.1743920687237250e+00,	 1.9993163096200320e+02,	 -2.3790460018679790e-03,	 3.0004850400471281e+02,	 1.0137585097612895e+05,	 3.4763598023062173e+02,	 5.7511777360767735e-01 
5.5417000000000005e-01,	 3.9946160000000001e-02,	 1.1743993528474206e+00,	 1.9991239736191102e+02,	 -1.0914057158030902e-02,	 3.0005105810771994e+02,	 1.0137734270317458e+05,	 3.4763745981842362e+02,	 5.7506000004789604e-01 
5.5922839999999996e-01,	 4.0071800000000005e-02,	 1.1744023249946576e+00,	 1.9989430624739737e+02,	 -1.9284096972406739e-02,	 3.0005344998771886e+02,	 1.0137840740629857e+05,	 3.4763884542498528e+02,	 5.7500566984455082e-01 
5.6433549999999999e-01,	 4.0198650000000002e-02,	 1.1743993385866107e+00,	 1.9987739046743656e+02,	 -2.7689824618813669e-02,	 3.0005577882569003e+02,	 1.0137893644681360e+05,	 3.4764019450624505e+02,	 5.7495478239883935e-01 
5.6949179999999999e-01,	 4.0326730000000005e-02,	 1.1743930213558866e+00,	 1.9986214449925109e+02,	 -3.6313781059791321e-02,	 3.0005804408638062e+02,	 1.0137915647036153e+05,	 3.4764150675256116e+02,	 5.7490876065183572e-01 
5.7469789999999998e-01,	 4.0456030000000004e-02,	 1.1743850028679130e+00,	 1.9984846426310369e+02,	 -4.5164775597425488e-02,	 3.0006033543588160e+02,	 1.0137923843843963e+05,	 3.4764283410686477e+02,	 5.7486721934035256e-01 
5.7995430000000003e-01,	 4.0586590000000006e-02,	 1.1743760674043797e+00,	 1.9983650033366513e+02,	 -5.4218830076796676e-02,	 3.0006263147304122e+02,	 1.0137924282084627e+05,	 3.4764416417159538e+02,	 5.7483061211475839e-01 
5.8526140000000004e-01,	 4.0718410000000003e-02,	 1.1743678321138808e+00,	 1.9982700737077272e+02,	 -6.3291345867201171e-02,	 3.0006471943564981e+02,	 1.0137923733544871e+05,	 3.4764537369700281e+02,	 5.7480131338693286e-01 
5.9061980000000003e-01,	 4.0851500000000006e-02,	 1.1743618666965836e+00,	 1.9982055871079592e+02,	 -7.2114553701890793e-02,	 3.0006642553530838e+02,	 1.0137929877730281e+05,	 3.4764636201180940e+02,	 5.7478113841719169e-01 
5.9602990000000000e-01,	 4.0985880000000002e-02,	 1.1743586964793828e+00,	 1.9981715850461185e+02,	 -8.0363753561686541e-02,	 3.0006765385692762e+02,	 1.0137944009646546e+05,	 3.4764707355610255e+02,	 5.7477019041545740e-01 
6.0149229999999998e-01,	 4.1121550000000000e-02,	 1.1743597210651791e+00,	 1.9981670175360659e+02,	 -8.7543704386395749e-02,	 3.0006831923482054e+02,	 1.0137975334801480e+05,	 3.4764745899676245e+02,	 5.7476824800492166e-01 
6.0700759999999998e-01,	 4.1258540000000003e-02,	 1.1743644053406834e+00,	 1.9981953992457625e+02,	 -9.3126700427468512e-02,	 3.0006825421766581e+02,	 1.0138013576416855e+05,	 3.4764742133358976e+02,	 5.7477648146819482e-01 
6.1257620000000002e-01,	 4.1396850000000006e-02,	 1.1743740045281472e+00,	 1.9982587033135991e+02,	 -9.6640044637180150e-02,	 3.0006741911392152e+02,	 1.0138068229171426e+05,	 3.4764693757387647e+02,	 5.7479549537952157e-01 
6.1819860000000004e-01,	 4.1536510000000006e-02,	 1.1743873205931836e+00,	 1.9983506152773245e+02,	 -9.7725151083990006e-02,	 3.0006602925189117e+02,	 1.0138136224963718e+05,	 3.4764613245174854e+02,	 5.7482326644518666e-01 
6.2387550000000003e-01,	 4.1677510000000001e-02,	 1.1744032445316823e+00,	 1.9984681944814963e+02,	 -9.6235614193472277e-02,	 3.0006425046803378e+02,	 1.0138213592154715e+05,	 3.4764510203146659e+02,	 5.7485878975806703e-01 
6.2960740000000004e-01,	 4.1819880000000004e-02,	 1.1744209865467847e+00,	 1.9986073972407871e+02,	 -9.2224246477529567e-02,	 3.0006232417185151e+02,	 1.0138301668397996e+05,	 3.4764398615627226e+02,	 5.7490067126411215e-01 
6.3539469999999998e-01,	 4.1963620000000000e-02,	 1.1744394731083598e+00,	 1.9987642328192567e+02,	 -8.5936957535384023e-02,	 3.0006044445097513e+02,	 1.0138397743681821e+05,	 3.4764289725801831e+02,	 5.7494757791037077e-01 
6.4123810000000003e-01,	 4.2108760000000002e-02,	 1.1744583787952769e+00,	 1.9989333215929855e+02,	 -7.7811630789723168e-02,	 3.0005888962695610e+02,	 1.0138508412804019e+05,	 3.4764199656577966e+02,	 5.7499769670715484e-01 
6.4713820000000000e-01,	 4.2255310000000004e-02,	 1.1744765346211858e+00,	 1.9991084955759672e+02,	 -6.8337058276972396e-02,	 3.0005781075158103e+02,	 1.0138628688885107e+05,	 3.4764137158391850e+02,	 5.7504910973873935e-01 
6.5309539999999999e-01,	 4.2403270000000000e-02,	 1.1744941198235979e+00,	 1.9992870265856845e+02,	 -5.8053682035241097e-02,	 3.0005729834261928e+02,	 1.0138763178542572e+05,	 3.4764107475006858e+02,	 5.7510094637373832e-01 
6.5911039999999999e-01,	 4.2552670000000001e-02,	 1.1745107282271687e+00,	 1.9994652616449110e+02,	 -4.7491449220102663e-02,	 3.0005734374903204e+02,	 1.0138908084054185e+05,	 3.4764110105360066e+02,	 5.7515216468539743e-01 
6.6518370000000004e-01,	 4.2703520000000002e-02,	 1.1745271086218896e+00,	 1.9996444563889244e+02,	 -3.7129543285027621e-02,	 3.0005782947022658e+02,	 1.0139065899733920e+05,	 3.4764138242745474e+02,	 5.7520323872184853e-01 
6.7131589999999997e-01,	 4.2855830000000004e-02,	 1.1745432030071192e+00,	 1.9998181682284556e+02,	 -2.7417281599985192e-02,	 3.0005879157242282e+02,	 1.0139237344212292e+05,	 3.4764193976380227e+02,	 5.7525228066026224e-01 
6.7750770000000005e-01,	 4.3009620000000005e-02,	 1.1745587551131316e+00,	 1.9999859165273364e+02,	 -1.8684541465829096e-02,	 3.0006004909011602e+02,	 1.0139414090813146e+05,	 3.4764266823009689e+02,	 5.7529932543592555e-01 
6.8375949999999996e-01,	 4.3164910000000001e-02,	 1.1745743397294566e+00,	 2.0001495837657495e+02,	 -1.1193245655524584e-02,	 3.0006143909010291e+02,	 1.0139595595992825e+05,	 3.4764347344016420e+02,	 5.7534507036905325e-01 
6.9007200000000002e-01,	 4.3321700000000005e-02,	 1.1745893739554736e+00,	 2.0003059232515270e+02,	 -5.1376154992681363e-03,	 3.0006287479470967e+02,	 1.0139773895571905e+05,	 3.4764430512440333e+02,	 5.7538866434055369e-01 
6.9644580000000000e-01,	 4.3480009999999999e-02,	 1.1746035240288779e+00,	 2.0004532542103399e+02,	 -6.5524259321655520e-04,	 3.0006427751076626e+02,	 1.0139943449042358e+05,	 3.4764511769690034e+02,	 5.7542969896249097e-01 
7.0288150000000005e-01,	 4.3639860000000003e-02,	 1.1746161315738384e+00,	 2.0005908053096326e+02,	 2.1709692059223478e-03,	 3.0006553562417309e+02,	 1.0140094800933603e+05,	 3.4764584650162271e+02,	 5.7546805910655030e-01 
7.0937980000000000e-01,	 4.3801260000000002e-02,	 1.1746268740950605e+00,	 2.0007167459131338e+02,	 3.3583269748143586e-03,	 3.0006657050839226e+02,	 1.0140222509863449e+05,	 3.4764644599214643e+02,	 5.7550329343513251e-01 
7.1594120000000006e-01,	 4.3964240000000002e-02,	 1.1746347963681782e+00,	 2.0008300687189183e+02,	 2.9642022115357151e-03,	 3.0006731803326943e+02,	 1.0140316162072998e+05,	 3.4764687901973184e+02,	 5.7553517367401019e-01 
7.2256640000000005e-01,	 4.4128790000000001e-02,	 1.1746396891416433e+00,	 2.0009317102670971e+02,	 1.0911780165646855e-03,	 3.0006769555641176e+02,	 1.0140371157982020e+05,	 3.4764709771182697e+02,	 5.7556404856153021e-01 
7.2925600000000002e-01,	 4.4294950000000000e-02,	 1.1746402188357625e+00,	 2.0010163531673780e+02,	 -2.0597984291749979e-03,	 3.0006766084687246e+02,	 1.0140374557737881e+05,	 3.4764707760524578e+02,	 5.7558842923614417e-01 
7.3601059999999996e-01,	 4.4462720000000004e-02,	 1.1746365257917508e+00,	 2.0010852192288627e+02,	 -6.2053762313080043e-03,	 3.0006712871308753e+02,	 1.0140324693940657e+05,	 3.4764676935003979e+02,	 5.7560874905647352e-01 
7.4283100000000002e-01,	 4.4632120000000004e-02,	 1.1746278236599963e+00,	 2.0011364970004229e+02,	 -1.1003603483359057e-02,	 3.0006606457876057e+02,	 1.0140213610172956e+05,	 3.4764615291599301e+02,	 5.7562452028895328e-01 
7.4971770000000004e-01,	 4.4803180000000005e-02,	 1.1746132880830236e+00,	 2.0011660863321941e+02,	 -1.6099210614177344e-02,	 3.0006443961733265e+02,	 1.0140033216767025e+05,	 3.4764521160269481e+02,	 5.7563459124961547e-01 
7.5667139999999999e-01,	 4.4975890000000004e-02,	 1.1745929487546913e+00,	 2.0011754937418686e+02,	 -2.1112797699761085e-02,	 3.0006220954426516e+02,	 1.0139782275104639e+05,	 3.4764391975407574e+02,	 5.7563943770243853e-01 
7.6369279999999995e-01,	 4.5150290000000003e-02,	 1.1745666306907445e+00,	 2.0011654059931624e+02,	 -2.5667203723909984e-02,	 3.0005933693329229e+02,	 1.0139458012121584e+05,	 3.4764225568559777e+02,	 5.7563929290101234e-01 
7.7078250000000004e-01,	 4.5326379999999999e-02,	 1.1745341390604971e+00,	 2.0011339652989551e+02,	 -2.9429060838775958e-02,	 3.0005582809676974e+02,	 1.0139058962199680e+05,	 3.4764022304861652e+02,	 5.7563361609584895e-01 
7.7794129999999995e-01,	 4.5504190000000000e-02,	 1.1744957036707255e+00,	 2.0010796146746912e+02,	 -3.2157972423493102e-02,	 3.0005176645550841e+02,	 1.0138589931496275e+05,	 3.4763787016205328e+02,	 5.7562187904939943e-01 
7.8516980000000003e-01,	 4.5683730000000006e-02,	 1.1744521901619895e+00,	 2.0010070290081828e+02,	 -3.3699543606055024e-02,	 3.0004718999469998e+02,	 1.0138059679727899e+05,	 3.4763521902426203e+02,	 5.7560538975359732e-01 
7.9246870000000003e-01,	 4.5865019999999999e-02,	 1.1744048280012729e+00,	 2.0009194095156272e+02,	 -3.4013365862567563e-02,	 3.0004222358545348e+02,	 1.0137483042611924e+05,	 3.4763234196697221e+02,	 5.7558494905953450e-01 
7.9983870000000001e-01,	 4.6048080000000005e-02,	 1.1743548656608089e+00,	 2.0008193299174442e+02,	 -3.3162589341327819e-02,	 3.0003702855316772e+02,	 1.0136876250479776e+05,	 3.4762933244211956e+02,	 5.7556114248018930e-01 
8.0728049999999996e-01,	 4.6232920000000004e-02,	 1.1743041247791248e+00,	 2.0007128786822562e+02,	 -3.1299762561092112e-02,	 3.0003174137281064e+02,	 1.0136259640006872e+05,	 3.4762626950838091e+02,	 5.7553559056248837e-01 
8.1479480000000004e-01,	 4.6419560000000006e-02,	 1.1742542881115257e+00,	 2.0006036344139716e+02,	 -2.8625853298059778e-02,	 3.0002657907623899e+02,	 1.0135655068641287e+05,	 3.4762327889543724e+02,	 5.7550911470907140e-01 
8.2238239999999996e-01,	 4.6608020000000000e-02,	 1.1742069016552854e+00,	 2.0004944545817705e+02,	 -2.5394009483282146e-02,	 3.0002177264767556e+02,	 1.0135083682513777e+05,	 3.4762049442021862e+02,	 5.7548231557397622e-01 
8.3004400000000000e-01,	 4.6798320000000004e-02,	 1.1741637543030112e+00,	 2.0003920930844095e+02,	 -2.1825513224508493e-02,	 3.0001739319777778e+02,	 1.0134563321735495e+05,	 3.4761795728419514e+02,	 5.7545706804653940e-01 
8.3778030000000003e-01,	 4.6990480000000001e-02,	 1.1741263638141941e+00,	 2.0002998425222177e+02,	 -1.8098651019043423e-02,	 3.0001356281028052e+02,	 1.0134111207031168e+05,	 3.4761573821997166e+02,	 5.7543420241928955e-01 
8.4559209999999996e-01,	 4.7184510000000006e-02,	 1.1740952351717953e+00,	 2.0002160037715510e+02,	 -1.4362829658658144e-02,	 3.0001044254749496e+02,	 1.0133737133637822e+05,	 3.4761393054290915e+02,	 5.7541307559345956e-01 