TITLE = "Initial State"
VARIABLES = "X", "Y", "rho", "u", "v", "T", "p", "c", "M"
ZONE I=80, J=40, DATAPACKING=POINT, STRANDID=0, SOLUTIONTIME=0.000000
-1.0202080000000000e+00,	 -9.1983299999999989e-04,	 1.1739927643084118e+00,	 2.0000000000000000e+02,	 0.0000000000000000e+00,	 3.0000000000000000e+02,	 1.0132500000000000e+05,	 3.4760788074254771e+02,	 5.7536094858599596e-01 
-1.0187450000000000e+00,	 5.6618010000000003e-02,	 1.1739927643084118e+00,	 2.0000000000000000e+02,	 0.0000000000000000e+00,	 3.0000000000000000e+02,	 1.0132500000000000e+05,	 3.4760788074254771e+02,	 5.7536094858599596e-01 
-1.0139510000000000e+00,	 1.1664370000000000e-01,	 1.1739927643084118e+00,	 2.0000000000000000e+02,	 0.0000000000000000e+00,	 3.0000000000000000e+02,	 1.0132500000000000e+05,	 3.4760788074254771e+02,	 5.7536094858599596e-01 
-1.0054310000000000e+00,	 1.7872539999999998e-01,	 1.1739927643084118e+00,	 2.0000000000000000e+02,	 0.0000000000000000e+00,	 3.0000000000000000e+02,	 1.0132500000000000e+05,	 3.4760788074254771e+02,	 5.7536094858599596e-01 
-9.9284660000000002e-01,	 2.4234119999999998e-01,	 1.1739927643084118e+00,	 2.0000000000000000e+02,	 0.0000000000000000e+00,	 3.0000000000000000e+02,	 1.0132500000000000e+05,	 3.4760788074254771e+02,	 5.7536094858599596e-01 
-9.7593649999999998e-01,	 3.0688939999999998e-01,	 1.1739927643084118e+00,	 2.0000000000000000e+02,	 0.0000000000000000e+00,	 3.0000000000000000e+02,	 1.0132500000000000e+05,	 3.4760788074254771e+02,	 5.7536094858599596e-01 
-9.5454130000000004e-01,	 3.7170710000000001e-01,	 1.1739927643084118e+00,	 2.0000000000000000e+02,	 0.0000000000000000e+00,	 3.0000000000000000e+02,	 1.0132500000000000e+05,	 3.4760788074254771e+02,	 5.7536094858599596e-01 
-9.2862040000000001e-01,	 4.3609569999999998e-01,	 1.1739927643084118e+00,	 2.0000000000000000e+02,	 0.0000000000000000e+00,	 3.0000000000000000e+02,	 1.0132500000000000e+05,	 3.4760788074254771e+02,	 5.7536094858599596e-01 
-8.9825739999999998e-01,	 4.9934889999999998e-01,	 1.1739927643084118e+00,	 2.0000000000000000e+02,	 0.0000000000000000e+00,	 3.0000000000000000e+02,	 1.0132500000000000e+05,	 3.4760788074254771e+02,	 5.7536094858599596e-01 
-8.6366549999999997e-01,	 5.6078689999999998e-01,	 1.1739927643084118e+00,	 2.0000000000000000e+02,	 0.0000000000000000e+00,	 3.0000000000000000e+02,	 1.0132500000000000e+05,	 3.4760788074254771e+02,	 5.7536094858599596e-01 
-8.2517609999999997e-01,	 6.1978639999999996e-01,	 1.1739927643084118e+00,	 2.0000000000000000e+02,	 0.0000000000000000e+00,	 3.0000000000000000e+02,	 1.0132500000000000e+05,	 3.4760788074254771e+02,	 5.7536094858599596e-01 
-7.8321929999999995e-01,	 6.7580609999999997e-01,	 1.1739927643084118e+00,	 2.0000000000000000e+02,	 0.0000000000000000e+00,	 3.0000000000000000e+02,	 1.0132500000000000e+05,	 3.4760788074254771e+02,	 5.7536094858599596e-01 
-7.3830269999999998e-01,	 7.2840799999999994e-01,	 1.1739927643084118e+00,	 2.0000000000000000e+02,	 0.0000000000000000e+00,	 3.0000000000000000e+02,	 1.0132500000000000e+05,	 3.4760788074254771e+02,	 5.7536094858599596e-01 
-6.9098099999999996e-01,	 7.7726750000000000e-01,	 1.1739927643084118e+00,	 2.0000000000000000e+02,	 0.0000000000000000e+00,	 3.0000000000000000e+02,	 1.0132500000000000e+05,	 3.4760788074254771e+02,	 5.7536094858599596e-01 
-6.4182819999999996e-01,	 8.2217819999999997e-01,	 1.1739927643084118e+00,	 2.0000000000000000e+02,	 0.0000000000000000e+00,	 3.0000000000000000e+02,	 1.0132500000000000e+05,	 3.4760788074254771e+02,	 5.7536094858599596e-01 
-5.9141060000000001e-01,	 8.6304890000000001e-01,	 1.1739927643084118e+00,	 2.0000000000000000e+02,	 0.0000000000000000e+00,	 3.0000000000000000e+02,	 1.0132500000000000e+05,	 3.4760788074254771e+02,	 5.7536094858599596e-01 
-5.4026149999999995e-01,	 8.9989229999999998e-01,	 1.1739927643084118e+00,	 2.0000000000000000e+02,	 0.0000000000000000e+00,	 3.0000000000000000e+02,	 1.0132500000000000e+05,	 3.4760788074254771e+02,	 5.7536094858599596e-01 
-4.8886249999999998e-01,	 9.3281219999999998e-01,	 1.1739927643084118e+00,	 2.0000000000000000e+02,	 0.0000000000000000e+00,	 3.0000000000000000e+02,	 1.0132500000000000e+05,	 3.4760788074254771e+02,	 5.7536094858599596e-01 
-4.3762970000000001e-01,	 9.6198589999999995e-01,	 1.1739927643084118e+00,	 2.0000000000000000e+02,	 0.0000000000000000e+00,	 3.0000000000000000e+02,	 1.0132500000000000e+05,	 3.4760788074254771e+02,	 5.7536094858599596e-01 
-3.8690429999999998e-01,	 9.8764529999999995e-01,	 1.1739927643084118e+00,	 2.0000000000000000e+02,	 0.0000000000000000e+00,	 3.0000000000000000e+02,	 1.0132500000000000e+05,	 3.4760788074254771e+02,	 5.7536094858599596e-01 
-3.3695000000000003e-01,	 1.0100590000000000e+00,	 1.1739927643084118e+00,	 2.0000000000000000e+02,	 0.0000000000000000e+00,	 3.0000000000000000e+02,	 1.0132500000000000e+05,	 3.4760788074254771e+02,	 5.7536094858599596e-01 
-2.8795349999999997e-01,	 1.0295150000000000e+00,	 1.1739927643084118e+00,	 2.0000000000000000e+02,	 0.0000000000000000e+00,	 3.0000000000000000e+02,	 1.0132500000000000e+05,	 3.4760788074254771e+02,	 5.7536094858599596e-01 
-2.4003030000000000e-01,	 1.0463089999999999e+00,	 1.1739927643084118e+00,	 2.0000000000000000e+02,	 0.0000000000000000e+00,	 3.0000000000000000e+02,	 1.0132500000000000e+05,	 3.4760788074254771e+02,	 5.7536094858599596e-01 
-1.9323119999999999e-01,	 1.0607279999999999e+00,	 1.1739927643084118e+00,	 2.0000000000000000e+02,	 0.0000000000000000e+00,	 3.0000000000000000e+02,	 1.0132500000000000e+05,	 3.4760788074254771e+02,	 5.7536094858599596e-01 
-1.4755250000000000e-01,	 1.0730450000000000e+00,	 1.1739927643084118e+00,	 2.0000000000000000e+02,	 0.0000000000000000e+00,	 3.0000000000000000e+02,	 1.0132500000000000e+05,	 3.4760788074254771e+02,	 5.7536094858599596e-01 
-1.0294620000000000e-01,	 1.0835120000000000e+00,	 1.1739927643084118e+00,	 2.0000000000000000e+02,	 0.0000000000000000e+00,	 3.0000000000000000e+02,	 1.0132500000000000e+05,	 3.4760788074254771e+02,	 5.7536094858599596e-01 
-5.9330609999999999e-02,	 1.0923550000000000e+00,	 1.1739927643084118e+00,	 2.0000000000000000e+02,	 0.0000000000000000e+00,	 3.0000000000000000e+02,	 1.0132500000000000e+05,	 3.4760788074254771e+02,	 5.7536094858599596e-01 
-1.6601930000000001e-02,	 1.0997740000000000e+00,	 1.1739927643084118e+00,	 2.0000000000000000e+02,	 0.0000000000000000e+00,	 3.0000000000000000e+02,	 1.0132500000000000e+05,	 3.4760788074254771e+02,	 5.7536094858599596e-01 
2.5355940000000000e-02,	 1.1059410000000001e+00,	 1.1739927643084118e+00,	 2.0000000000000000e+02,	 0.0000000000000000e+00,	 3.0000000000000000e+02,	 1.0132500000000000e+05,	 3.4760788074254771e+02,	 5.7536094858599596e-01 
6.6661260000000000e-02,	 1.1110030000000000e+00,	 1.1739927643084118e+00,	 2.0000000000000000e+02,	 0.0000000000000000e+00,	 3.0000000000000000e+02,	 1.0132500000000000e+05,	 3.4760788074254771e+02,	 5.7536094858599596e-01 
1.0742580000000000e-01,	 1.1150840000000000e+00,	 1.1739927643084118e+00,	 2.0000000000000000e+02,	 0.0000000000000000e+00,	 3.0000000000000000e+02,	 1.0132500000000000e+05,	 3.4760788074254771e+02,	 5.7536094858599596e-01 
1.4774720000000000e-01,	 1.1182900000000000e+00,	 1.1739927643084118e+00,	 2.0000000000000000e+02,	 0.0000000000000000e+00,	 3.0000000000000000e+02,	 1.0132500000000000e+05,	 3.4760788074254771e+02,	 5.7536094858599596e-01 
1.8770200000000001e-01,	 1.1207069999999999e+00,	 1.1739927643084118e+00,	 2.0000000000000000e+02,	 0.0000000000000000e+00,	 3.0000000000000000e+02,	 1.0132500000000000e+05,	 3.4760788074254771e+02,	 5.7536094858599596e-01 
2.2734160000000000e-01,	 1.1224120000000000e+00,	 1.1739927643084118e+00,	 2.0000000000000000e+02,	 0.0000000000000000e+00,	 3.0000000000000000e+02,	 1.0132500000000000e+05,	 3.4760788074254771e+02,	 5.7536094858599596e-01 
2.6668770000000003e-01,	 1.1234709999999999e+00,	 1.1739927643084118e+00,	 2.0000000000000000e+02,	 0.0000000000000000e+00,	 3.0000000000000000e+02,	 1.0132500000000000e+05,	 3.4760788074254771e+02,	 5.7536094858599596e-01 
3.0573139999999999e-01,	 1.1239440000000001e+00,	 1.1739927643084118e+00,	 2.0000000000000000e+02,	 0.0000000000000000e+00,	 3.0000000000000000e+02,	 1.0132500000000000e+05,	 3.4760788074254771e+02,	 5.7536094858599596e-01 
3.4443269999999998e-01,	 1.1238880000000000e+00,	 1.1739927643084118e+00,	 2.0000000000000000e+02,	 0.0000000000000000e+00,	 3.0000000000000000e+02,	 1.0132500000000000e+05,	 3.4760788074254771e+02,	 5.7536094858599596e-01 
3.8272250000000002e-01,	 1.1233580000000001e+00,	 1.1739927643084118e+00,	 2.0000000000000000e+02,	 0.0000000000000000e+00,	 3.0000000000000000e+02,	 1.0132500000000000e+05,	 3.4760788074254771e+02,	 5.7536094858599596e-01 
4.2050549999999998e-01,	 1.1224080000000001e+00,	 1.1739927643084118e+00,	 2.0000000000000000e+02,	 0.0000000000000000e+00,	 3.0000000000000000e+02,	 1.0132500000000000e+05,	 3.4760788074254771e+02,	 5.7536094858599596e-01 
4.5766530000000000e-01,	 1.1210929999999999e+00,	 1.1739927643084118e+00,	 2.0000000000000000e+02,	 0.0000000000000000e+00,	 3.0000000000000000e+02,	 1.0132500000000000e+05,	 3.4760788074254771e+02,	 5.7536094858599596e-01 
4.9406960000000000e-01,	 1.1194660000000001e+00,	 1.1739927643084118e+00,	 2.0000000000000000e+02,	 0.0000000000000000e+00,	 3.0000000000000000e+02,	 1.0132500000000000e+05,	 3.4760788074254771e+02,	 5.7536094858599596e-01 
5.2957739999999998e-01,	 1.1175820000000001e+00,	 1.1739927643084118e+00,	 2.0000000000000000e+02,	 0.0000000000000000e+00,	 3.0000000000000000e+02,	 1.0132500000000000e+05,	 3.4760788074254771e+02,	 5.7536094858599596e-01 
5.6404540000000003e-01,	 1.1154910000000000e+00,	 1.1739927643084118e+00,	 2.0000000000000000e+02,	 0.0000000000000000e+00,	 3.0000000000000000e+02,	 1.0132500000000000e+05,	 3.4760788074254771e+02,	 5.7536094858599596e-01 
5.9733449999999999e-01,	 1.1132439999999999e+00,	 1.1739927643084118e+00,	 2.0000000000000000e+02,	 0.0000000000000000e+00,	 3.0000000000000000e+02,	 1.0132500000000000e+05,	 3.4760788074254771e+02,	 5.7536094858599596e-01 
6.2931610000000004e-01,	 1.1108880000000001e+00,	 1.1739927643084118e+00,	 2.0000000000000000e+02,	 0.0000000000000000e+00,	 3.0000000000000000e+02,	 1.0132500000000000e+05,	 3.4760788074254771e+02,	 5.7536094858599596e-01 
6.5987720000000005e-01,	 1.1084650000000000e+00,	 1.1739927643084118e+00,	 2.0000000000000000e+02,	 0.0000000000000000e+00,	 3.0000000000000000e+02,	 1.0132500000000000e+05,	 3.4760788074254771e+02,	 5.7536094858599596e-01 
6.8892399999999998e-01,	 1.1060150000000000e+00,	 1.1739927643084118e+00,	 2.0000000000000000e+02,	 0.0000000000000000e+00,	 3.0000000000000000e+02,	 1.0132500000000000e+05,	 3.4760788074254771e+02,	 5.7536094858599596e-01 
7.1638500000000005e-01,	 1.1035699999999999e+00,	 1.1739927643084118e+00,	 2.0000000000000000e+02,	 0.0000000000000000e+00,	 3.0000000000000000e+02,	 1.0132500000000000e+05,	 3.4760788074254771e+02,	 5.7536094858599596e-01 
7.4221219999999999e-01,	 1.1011610000000001e+00,	 1.1739927643084118e+00,	 2.0000000000000000e+02,	 0.0000000000000000e+00,	 3.0000000000000000e+02,	 1.0132500000000000e+05,	 3.4760788074254771e+02,	 5.7536094858599596e-01 
7.6638070000000003e-01,	 1.0988119999999999e+00,	 1.1739927643084118e+00,	 2.0000000000000000e+02,	 0.0000000000000000e+00,	 3.0000000000000000e+02,	 1.0132500000000000e+05,	 3.4760788074254771e+02,	 5.7536094858599596e-01 
7.8888860000000005e-01,	 1.0965440000000000e+00,	 1.1739927643084118e+00,	 2.0000000000000000e+02,	 0.0000000000000000e+00,	 3.0000000000000000e+02,	 1.0132500000000000e+05,	 3.4760788074254771e+02,	 5.7536094858599596e-01 
8.0975430000000004e-01,	 1.0943710000000000e+00,	 1.1739927643084118e+00,	 2.0000000000000000e+02,	 0.0000000000000000e+00,	 3.0000000000000000e+02,	 1.0132500000000000e+05,	 3.4760788074254771e+02,	 5.7536094858599596e-01 
8.2901429999999998e-01,	 1.0923069999999999e+00,	 1.1739927643084118e+00,	 2.0000000000000000e+02,	 0.0000000000000000e+00,	 3.0000000000000000e+02,	 1.0132500000000000e+05,	 3.4760788074254771e+02,	 5.7536094858599596e-01 
8.4672080000000005e-01,	 1.0903579999999999e+00,	 1.1739927643084118e+00,	 2.0000000000000000e+02,	 0.0000000000000000e+00,	 3.0000000000000000e+02,	 1.0132500000000000e+05,	 3.4760788074254771e+02,	 5.7536094858599596e-01 
8.6293819999999999e-01,	 1.0885309999999999e+00,	 1.1739927643084118e+00,	 2.0000000000000000e+02,	 0.0000000000000000e+00,	 3.0000000000000000e+02,	 1.0132500000000000e+05,	 3.4760788074254771e+02,	 5.7536094858599596e-01 
8.7774039999999998e-01,	 1.0868279999999999e+00,	 1.1739927643084118e+00,	 2.0000000000000000e+02,	 0.0000000000000000e+00,	 3.0000000000000000e+02,	 1.0132500000000000e+05,	 3.4760788074254771e+02,	 5.7536094858599596e-01 
8.9120779999999999e-01,	 1.0852480000000000e+00,	 1.1739927643084118e+00,	 2.0000000000000000e+02,	 0.0000000000000000e+00,	 3.0000000000000000e+02,	 1.0132500000000000e+05,	 3.4760788074254771e+02,	 5.7536094858599596e-01 
9.0342529999999999e-01,	 1.0837900000000000e+00,	 1.1739927643084118e+00,	 2.0000000000000000e+02,	 0.0000000000000000e+00,	 3.0000000000000000e+02,	 1.0132500000000000e+05,	 3.4760788074254771e+02,	 5.7536094858599596e-01 
9.1447920000000005e-01,	 1.0824499999999999e+00,	 1.1739927643084118e+00,	 2.0000000000000000e+02,	 0.0000000000000000e+00,	 3.0000000000000000e+02,	 1.0132500000000000e+05,	 3.4760788074254771e+02,	 5.7536094858599596e-01 
9.2445639999999996e-01,	 1.0812240000000000e+00,	 1.1739927643084118e+00,	 2.0000000000000000e+02,	 0.0000000000000000e+00,	 3.0000000000000000e+02,	 1.0132500000000000e+05,	 3.4760788074254771e+02,	 5.7536094858599596e-01 
9.3344210000000005e-01,	 1.0801050000000001e+00,	 1.1739927643084118e+00,	 2.0000000000000000e+02,	 0.0000000000000000e+00,	 3.0000000000000000e+02,	 1.0132500000000000e+05,	 3.4760788074254771e+02,	 5.7536094858599596e-01 
9.4151879999999999e-01,	 1.0790890000000000e+00,	 1.1739927643084118e+00,	 2.0000000000000000e+02,	 0.0000000000000000e+00,	 3.0000000000000000e+02,	 1.0132500000000000e+05,	 3.4760788074254771e+02,	 5.7536094858599596e-01 
9.4876559999999999e-01,	 1.0781680000000000e+00,	 1.1739927643084118e+00,	 2.0000000000000000e+02,	 0.0000000000000000e+00,	 3.0000000000000000e+02,	 1.0132500000000000e+05,	 3.4760788074254771e+02,	 5.7536094858599596e-01 
9.5525740000000003e-01,	 1.0773360000000001e+00,	 1.1739927643084118e+00,	 2.0000000000000000e+02,	 0.0000000000000000e+00,	 3.0000000000000000e+02,	 1.0132500000000000e+05,	 3.4760788074254771e+02,	 5.7536094858599596e-01 
9.6106460000000005e-01,	 1.0765860000000000e+00,	 1.1739927643084118e+00,	 2.0000000000000000e+02,	 0.0000000000000000e+00,	 3.0000000000000000e+02,	 1.0132500000000000e+05,	 3.4760788074254771e+02,	 5.7536094858599596e-01 
9.6625269999999996e-01,	 1.0759120000000000e+00,	 1.1739927643084118e+00,	 2.0000000000000000e+02,	 0.0000000000000000e+00,	 3.0000000000000000e+02,	 1.0132500000000000e+05,	 3.4760788074254771e+02,	 5.7536094858599596e-01 
9.7088249999999998e-01,	 1.0753060000000001e+00,	 1.1739927643084118e+00,	 2.0000000000000000e+02,	 0.0000000000000000e+00,	 3.0000000000000000e+02,	 1.0132500000000000e+05,	 3.4760788074254771e+02,	 5.7536094858599596e-01 
9.7500980000000004e-01,	 1.0747629999999999e+00,	 1.1739927643084118e+00,	 2.0000000000000000e+02,	 0.0000000000000000e+00,	 3.0000000000000000e+02,	 1.0132500000000000e+05,	 3.4760788074254771e+02,	 5.7536094858599596e-01 
9.7868590000000000e-01,	 1.0742780000000001e+00,	 1.1739927643084118e+00,	 2.0000000000000000e+02,	 0.0000000000000000e+00,	 3.0000000000000000e+02,	 1.0132500000000000e+05,	 3.4760788074254771e+02,	 5.7536094858599596e-01 
9.8195739999999998e-01,	 1.0738440000000000e+00,	 1.1739927643084118e+00,	 2.0000000000000000e+02,	 0.0000000000000000e+00,	 3.0000000000000000e+02,	 1.0132500000000000e+05,	 3.4760788074254771e+02,	 5.7536094858599596e-01 
9.8486689999999999e-01,	 1.0734569999999999e+00,	 1.1739927643084118e+00,	 2.0000000000000000e+02,	 0.0000000000000000e+00,	 3.0000000000000000e+02,	 1.0132500000000000e+05,	 3.4760788074254771e+02,	 5.7536094858599596e-01 
9.8745269999999996e-01,	 1.0731120000000001e+00,	 1.1739927643084118e+00,	 2.0000000000000000e+02,	 0.0000000000000000e+00,	 3.0000000000000000e+02,	 1.0132500000000000e+05,	 3.4760788074254771e+02,	 5.7536094858599596e-01 
9.8974949999999995e-01,	 1.0728050000000000e+00,	 1.1739927643084118e+00,	 2.0000000000000000e+02,	 0.0000000000000000e+00,	 3.0000000000000000e+02,	 1.0132500000000000e+05,	 3.4760788074254771e+02,	 5.7536094858599596e-01 
9.9178869999999997e-01,	 1.0725320000000000e+00,	 1.1739927643084118e+00,	 2.0000000000000000e+02,	 0.0000000000000000e+00,	 3.0000000000000000e+02,	 1.0132500000000000e+05,	 3.4760788074254771e+02,	 5.7536094858599596e-01 
9.9359850000000005e-01,	 1.0722900000000000e+00,	 1.1739927643084118e+00,	 2.0000000000000000e+02,	 0.0000000000000000e+00,	 3.0000000000000000e+02,	 1.0132500000000000e+05,	 3.4760788074254771e+02,	 5.7536094858599596e-01 
9.9520390000000003e-01,	 1.0720749999999999e+00,	 1.1739927643084118e+00,	 2.0000000000000000e+02,	 0.0000000000000000e+00,	 3.0000000000000000e+02,	 1.0132500000000000e+05,	 3.4760788074254771e+02,	 5.7536094858599596e-01 
9.9662770000000001e-01,	 1.0718850000000000e+00,	 1.1739927643084118e+00,	 2.0000000000000000e+02,	 0.0000000000000000e+00,	 3.0000000000000000e+02,	 1.0132500000000000e+05,	 3.4760788074254771e+02,	 5.7536094858599596e-01 
9.9788990000000000e-01,	 1.0717159999999999e+00,	 1.1739927643084118e+00,	 2.0000000000000000e+02,	 0.0000000000000000e+00,	 3.0000000000000000e+02,	 1.0132500000000000e+05,	 3.4760788074254771e+02,	 5.7536094858599596e-01 
9.9900860000000002e-01,	 1.0715669999999999e+00,	 1.1739927643084118e+00,	 2.0000000000000000e+02,	 0.0000000000000000e+00,	 3.0000000000000000e+02,	 1.0132500000000000e+05,	 3.4760788074254771e+02,	 5.7536094858599596e-01 
1.0000000000000000e+00,	 1.0714349999999999e+00,	 1.1739927643084118e+00,	 2.0000000000000000e+02,	 0.0000000000000000e+00,	 3.0000000000000000e+02,	 1.0132500000000000e+05,	 3.4760788074254771e+02,	 5.7536094858599596e-01 
-1.0946849999999999e+00,	 -9.1983299999999989e-04,	 1.1739927643084118e+00,	 2.0000000000000000e+02,	 0.0000000000000000e+00,	 3.0000000000000000e+02,	 1.0132500000000000e+05,	 3.4760788074254771e+02,	 5.7536094858599596e-01 
-1.0931150000000001e+00,	 6.0745440000000005e-02,	 1.1739927643084118e+00,	 2.0000000000000000e+02,	 0.0000000000000000e+00,	 3.0000000000000000e+02,	 1.0132500000000000e+05,	 3.4760788074254771e+02,	 5.7536094858599596e-01 
-1.0879820000000000e+00,	 1.2507160000000000e-01,	 1.1739927643084118e+00,	 2.0000000000000000e+02,	 0.0000000000000000e+00,	 3.0000000000000000e+02,	 1.0132500000000000e+05,	 3.4760788074254771e+02,	 5.7536094858599596e-01 
-1.0788640000000000e+00,	 1.9159569999999998e-01,	 1.1739927643084118e+00,	 2.0000000000000000e+02,	 0.0000000000000000e+00,	 3.0000000000000000e+02,	 1.0132500000000000e+05,	 3.4760788074254771e+02,	 5.7536094858599596e-01 
-1.0654020000000000e+00,	 2.5975860000000001e-01,	 1.1739927643084118e+00,	 2.0000000000000000e+02,	 0.0000000000000000e+00,	 3.0000000000000000e+02,	 1.0132500000000000e+05,	 3.4760788074254771e+02,	 5.7536094858599596e-01 
-1.0473170000000001e+00,	 3.2891599999999999e-01,	 1.1739927643084118e+00,	 2.0000000000000000e+02,	 0.0000000000000000e+00,	 3.0000000000000000e+02,	 1.0132500000000000e+05,	 3.4760788074254771e+02,	 5.7536094858599596e-01 
-1.0244420000000001e+00,	 3.9835840000000000e-01,	 1.1739927643084118e+00,	 2.0000000000000000e+02,	 0.0000000000000000e+00,	 3.0000000000000000e+02,	 1.0132500000000000e+05,	 3.4760788074254771e+02,	 5.7536094858599596e-01 
-9.9673570000000000e-01,	 4.6733839999999999e-01,	 1.1739927643084118e+00,	 2.0000000000000000e+02,	 0.0000000000000000e+00,	 3.0000000000000000e+02,	 1.0132500000000000e+05,	 3.4760788074254771e+02,	 5.7536094858599596e-01 
-9.6429019999999999e-01,	 5.3510009999999997e-01,	 1.1739927643084118e+00,	 2.0000000000000000e+02,	 0.0000000000000000e+00,	 3.0000000000000000e+02,	 1.0132500000000000e+05,	 3.4760788074254771e+02,	 5.7536094858599596e-01 
-9.2733560000000004e-01,	 6.0091589999999995e-01,	 1.1739927643084118e+00,	 2.0000000000000000e+02,	 0.0000000000000000e+00,	 3.0000000000000000e+02,	 1.0132500000000000e+05,	 3.4760788074254771e+02,	 5.7536094858599596e-01 
-8.8622860000000003e-01,	 6.6411849999999994e-01,	 1.1739927643084118e+00,	 2.0000000000000000e+02,	 0.0000000000000000e+00,	 3.0000000000000000e+02,	 1.0132500000000000e+05,	 3.4760788074254771e+02,	 5.7536094858599596e-01 
-8.4143199999999996e-01,	 7.2412779999999999e-01,	 1.1739927643084118e+00,	 2.0000000000000000e+02,	 0.0000000000000000e+00,	 3.0000000000000000e+02,	 1.0132500000000000e+05,	 3.4760788074254771e+02,	 5.7536094858599596e-01 
-7.9349150000000002e-01,	 7.8047369999999994e-01,	 1.1739927643084118e+00,	 2.0000000000000000e+02,	 0.0000000000000000e+00,	 3.0000000000000000e+02,	 1.0132500000000000e+05,	 3.4760788074254771e+02,	 5.7536094858599596e-01 
-7.4300420000000000e-01,	 8.3280750000000003e-01,	 1.1739927643084118e+00,	 2.0000000000000000e+02,	 0.0000000000000000e+00,	 3.0000000000000000e+02,	 1.0132500000000000e+05,	 3.4760788074254771e+02,	 5.7536094858599596e-01 
-6.9058830000000004e-01,	 8.8090679999999999e-01,	 1.1739927643084118e+00,	 2.0000000000000000e+02,	 0.0000000000000000e+00,	 3.0000000000000000e+02,	 1.0132500000000000e+05,	 3.4760788074254771e+02,	 5.7536094858599596e-01 
-6.3685440000000004e-01,	 9.2467259999999996e-01,	 1.1739927643084118e+00,	 2.0000000000000000e+02,	 0.0000000000000000e+00,	 3.0000000000000000e+02,	 1.0132500000000000e+05,	 3.4760788074254771e+02,	 5.7536094858599596e-01 
-5.8237839999999996e-01,	 9.6411709999999995e-01,	 1.1739927643084118e+00,	 2.0000000000000000e+02,	 0.0000000000000000e+00,	 3.0000000000000000e+02,	 1.0132500000000000e+05,	 3.4760788074254771e+02,	 5.7536094858599596e-01 
-5.2768190000000004e-01,	 9.9935079999999998e-01,	 1.1739927643084118e+00,	 2.0000000000000000e+02,	 0.0000000000000000e+00,	 3.0000000000000000e+02,	 1.0132500000000000e+05,	 3.4760788074254771e+02,	 5.7536094858599596e-01 
-4.7321659999999999e-01,	 1.0305629999999999e+00,	 1.1739927643084118e+00,	 2.0000000000000000e+02,	 0.0000000000000000e+00,	 3.0000000000000000e+02,	 1.0132500000000000e+05,	 3.4760788074254771e+02,	 5.7536094858599596e-01 
-4.1935420000000001e-01,	 1.0580010000000000e+00,	 1.1739927643084118e+00,	 2.0000000000000000e+02,	 0.0000000000000000e+00,	 3.0000000000000000e+02,	 1.0132500000000000e+05,	 3.4760788074254771e+02,	 5.7536094858599596e-01 
-3.6638399999999999e-01,	 1.0819540000000001e+00,	 1.1739927643084118e+00,	 2.0000000000000000e+02,	 0.0000000000000000e+00,	 3.0000000000000000e+02,	 1.0132500000000000e+05,	 3.4760788074254771e+02,	 5.7536094858599596e-01 
-3.1451309999999999e-01,	 1.1027309999999999e+00,	 1.1739927643084118e+00,	 2.0000000000000000e+02,	 0.0000000000000000e+00,	 3.0000000000000000e+02,	 1.0132500000000000e+05,	 3.4760788074254771e+02,	 5.7536094858599596e-01 
-2.6387210000000000e-01,	 1.1206499999999999e+00,	 1.1739927643084118e+00,	 2.0000000000000000e+02,	 0.0000000000000000e+00,	 3.0000000000000000e+02,	 1.0132500000000000e+05,	 3.4760788074254771e+02,	 5.7536094858599596e-01 
-2.1452240000000000e-01,	 1.1360189999999999e+00,	 1.1739927643084118e+00,	 2.0000000000000000e+02,	 0.0000000000000000e+00,	 3.0000000000000000e+02,	 1.0132500000000000e+05,	 3.4760788074254771e+02,	 5.7536094858599596e-01 
-1.6646659999999999e-01,	 1.1491340000000001e+00,	 1.1739927643084118e+00,	 2.0000000000000000e+02,	 0.0000000000000000e+00,	 3.0000000000000000e+02,	 1.0132500000000000e+05,	 3.4760788074254771e+02,	 5.7536094858599596e-01 
-1.1965919999999999e-01,	 1.1602649999999999e+00,	 1.1739927643084118e+00,	 2.0000000000000000e+02,	 0.0000000000000000e+00,	 3.0000000000000000e+02,	 1.0132500000000000e+05,	 3.4760788074254771e+02,	 5.7536094858599596e-01 
-7.4018500000000001e-02,	 1.1696590000000000e+00,	 1.1739927643084118e+00,	 2.0000000000000000e+02,	 0.0000000000000000e+00,	 3.0000000000000000e+02,	 1.0132500000000000e+05,	 3.4760788074254771e+02,	 5.7536094858599596e-01 
-2.9437609999999999e-02,	 1.1775320000000000e+00,	 1.1739927643084118e+00,	 2.0000000000000000e+02,	 0.0000000000000000e+00,	 3.0000000000000000e+02,	 1.0132500000000000e+05,	 3.4760788074254771e+02,	 5.7536094858599596e-01 
1.4204349999999999e-02,	 1.1840710000000001e+00,	 1.1739927643084118e+00,	 2.0000000000000000e+02,	 0.0000000000000000e+00,	 3.0000000000000000e+02,	 1.0132500000000000e+05,	 3.4760788074254771e+02,	 5.7536094858599596e-01 
5.7032050000000001e-02,	 1.1894380000000000e+00,	 1.1739927643084118e+00,	 2.0000000000000000e+02,	 0.0000000000000000e+00,	 3.0000000000000000e+02,	 1.0132500000000000e+05,	 3.4760788074254771e+02,	 5.7536094858599596e-01 
9.9164799999999997e-02,	 1.1937670000000000e+00,	 1.1739927643084118e+00,	 2.0000000000000000e+02,	 0.0000000000000000e+00,	 3.0000000000000000e+02,	 1.0132500000000000e+05,	 3.4760788074254771e+02,	 5.7536094858599596e-01 
1.4070849999999999e-01,	 1.1971730000000000e+00,	 1.1739927643084118e+00,	 2.0000000000000000e+02,	 0.0000000000000000e+00,	 3.0000000000000000e+02,	 1.0132500000000000e+05,	 3.4760788074254771e+02,	 5.7536094858599596e-01 
1.8174879999999999e-01,	 1.1997540000000000e+00,	 1.1739927643084118e+00,	 2.0000000000000000e+02,	 0.0000000000000000e+00,	 3.0000000000000000e+02,	 1.0132500000000000e+05,	 3.4760788074254771e+02,	 5.7536094858599596e-01 
2.2234599999999999e-01,	 1.2015920000000000e+00,	 1.1739927643084118e+00,	 2.0000000000000000e+02,	 0.0000000000000000e+00,	 3.0000000000000000e+02,	 1.0132500000000000e+05,	 3.4760788074254771e+02,	 5.7536094858599596e-01 
2.6253159999999998e-01,	 1.2027589999999999e+00,	 1.1739927643084118e+00,	 2.0000000000000000e+02,	 0.0000000000000000e+00,	 3.0000000000000000e+02,	 1.0132500000000000e+05,	 3.4760788074254771e+02,	 5.7536094858599596e-01 
3.0230600000000002e-01,	 1.2033210000000001e+00,	 1.1739927643084118e+00,	 2.0000000000000000e+02,	 0.0000000000000000e+00,	 3.0000000000000000e+02,	 1.0132500000000000e+05,	 3.4760788074254771e+02,	 5.7536094858599596e-01 
3.4163860000000001e-01,	 1.2033389999999999e+00,	 1.1739927643084118e+00,	 2.0000000000000000e+02,	 0.0000000000000000e+00,	 3.0000000000000000e+02,	 1.0132500000000000e+05,	 3.4760788074254771e+02,	 5.7536094858599596e-01 
3.8046940000000001e-01,	 1.2028699999999999e+00,	 1.1739927643084118e+00,	 2.0000000000000000e+02,	 0.0000000000000000e+00,	 3.0000000000000000e+02,	 1.0132500000000000e+05,	 3.4760788074254771e+02,	 5.7536094858599596e-01 
4.1871219999999998e-01,	 1.2019720000000000e+00,	 1.1739927643084118e+00,	 2.0000000000000000e+02,	 0.0000000000000000e+00,	 3.0000000000000000e+02,	 1.0132500000000000e+05,	 3.4760788074254771e+02,	 5.7536094858599596e-01 
4.5625909999999997e-01,	 1.2007019999999999e+00,	 1.1739927643084118e+00,	 2.0000000000000000e+02,	 0.0000000000000000e+00,	 3.0000000000000000e+02,	 1.0132500000000000e+05,	 3.4760788074254771e+02,	 5.7536094858599596e-01 
4.9298619999999999e-01,	 1.1991140000000000e+00,	 1.1739927643084118e+00,	 2.0000000000000000e+02,	 0.0000000000000000e+00,	 3.0000000000000000e+02,	 1.0132500000000000e+05,	 3.4760788074254771e+02,	 5.7536094858599596e-01 
5.2876029999999996e-01,	 1.1972630000000000e+00,	 1.1739927643084118e+00,	 2.0000000000000000e+02,	 0.0000000000000000e+00,	 3.0000000000000000e+02,	 1.0132500000000000e+05,	 3.4760788074254771e+02,	 5.7536094858599596e-01 
5.6344539999999999e-01,	 1.1952030000000000e+00,	 1.1739927643084118e+00,	 2.0000000000000000e+02,	 0.0000000000000000e+00,	 3.0000000000000000e+02,	 1.0132500000000000e+05,	 3.4760788074254771e+02,	 5.7536094858599596e-01 
5.9690920000000003e-01,	 1.1929840000000000e+00,	 1.1739927643084118e+00,	 2.0000000000000000e+02,	 0.0000000000000000e+00,	 3.0000000000000000e+02,	 1.0132500000000000e+05,	 3.4760788074254771e+02,	 5.7536094858599596e-01 
6.2902930000000001e-01,	 1.1906530000000000e+00,	 1.1739927643084118e+00,	 2.0000000000000000e+02,	 0.0000000000000000e+00,	 3.0000000000000000e+02,	 1.0132500000000000e+05,	 3.4760788074254771e+02,	 5.7536094858599596e-01 
6.5969840000000002e-01,	 1.1882539999999999e+00,	 1.1739927643084118e+00,	 2.0000000000000000e+02,	 0.0000000000000000e+00,	 3.0000000000000000e+02,	 1.0132500000000000e+05,	 3.4760788074254771e+02,	 5.7536094858599596e-01 
6.8882779999999999e-01,	 1.1858249999999999e+00,	 1.1739927643084118e+00,	 2.0000000000000000e+02,	 0.0000000000000000e+00,	 3.0000000000000000e+02,	 1.0132500000000000e+05,	 3.4760788074254771e+02,	 5.7536094858599596e-01 
7.1635050000000000e-01,	 1.1834000000000000e+00,	 1.1739927643084118e+00,	 2.0000000000000000e+02,	 0.0000000000000000e+00,	 3.0000000000000000e+02,	 1.0132500000000000e+05,	 3.4760788074254771e+02,	 5.7536094858599596e-01 
7.4222239999999995e-01,	 1.1810099999999999e+00,	 1.1739927643084118e+00,	 2.0000000000000000e+02,	 0.0000000000000000e+00,	 3.0000000000000000e+02,	 1.0132500000000000e+05,	 3.4760788074254771e+02,	 5.7536094858599596e-01 
7.6642210000000000e-01,	 1.1786790000000000e+00,	 1.1739927643084118e+00,	 2.0000000000000000e+02,	 0.0000000000000000e+00,	 3.0000000000000000e+02,	 1.0132500000000000e+05,	 3.4760788074254771e+02,	 5.7536094858599596e-01 
7.8895050000000000e-01,	 1.1764260000000000e+00,	 1.1739927643084118e+00,	 2.0000000000000000e+02,	 0.0000000000000000e+00,	 3.0000000000000000e+02,	 1.0132500000000000e+05,	 3.4760788074254771e+02,	 5.7536094858599596e-01 
8.0982829999999995e-01,	 1.1742690000000000e+00,	 1.1739927643084118e+00,	 2.0000000000000000e+02,	 0.0000000000000000e+00,	 3.0000000000000000e+02,	 1.0132500000000000e+05,	 3.4760788074254771e+02,	 5.7536094858599596e-01 