TITLE = "Final State"
VARIABLES = "X", "Y", "rho", "u", "v", "T", "p", "c", "M"
ZONE I=73, J=21, DATAPACKING=POINT, STRANDID=74000, SOLUTIONTIME=0.001785
5.2554400000000001e-01,	 3.0203999999999998e-01,	 1.1640831489982696e-02,	 1.7357269544031203e+03,	 2.0048336844082031e+00,	 3.0045150707270193e+02,	 1.0062092994571341e+03,	 3.4786936142369348e+02,	 4.9895975464191737e+00 
5.3004200000000001e-01,	 3.0203999999999998e-01,	 1.1658066034461682e-02,	 1.7356702088297093e+03,	 2.5732976766493336e+00,	 3.0059663354614139e+02,	 1.0081857644745877e+03,	 3.4795336659175189e+02,	 4.9882319961729076e+00 
5.3454000000000002e-01,	 3.0203999999999998e-01,	 1.1669880480300928e-02,	 1.7356142961646665e+03,	 2.8705558041565231e+00,	 3.0067788630759088e+02,	 1.0094802677011468e+03,	 3.4800039017496505e+02,	 4.9873986322711570e+00 
5.3903800000000002e-01,	 3.0203999999999998e-01,	 1.1672013096857342e-02,	 1.7356127903166489e+03,	 2.8345948418862950e+00,	 3.0066861129201254e+02,	 1.0096336003955473e+03,	 3.4799502274676564e+02,	 4.9874710601873931e+00 
5.4353600000000002e-01,	 3.0203999999999998e-01,	 1.1668223993194581e-02,	 1.7356460339241478e+03,	 2.6192249615080883e+00,	 3.0060660304229566e+02,	 1.0090976877626405e+03,	 3.4795913660146118e+02,	 4.9880800003769838e+00 
5.4803400000000002e-01,	 3.0203999999999998e-01,	 1.1661186358170778e-02,	 1.7356973899488216e+03,	 2.3171914229913408e+00,	 3.0051677940208469e+02,	 1.0081877106478862e+03,	 3.4790714624074718e+02,	 4.9889717858682943e+00 
5.5253200000000002e-01,	 3.0203999999999998e-01,	 1.1652542439733580e-02,	 1.7357560181253648e+03,	 1.9870235499649267e+00,	 3.0041636840935814e+02,	 1.0071037721892197e+03,	 3.4784901867035398e+02,	 4.9899728396306466e+00 
5.5703000000000003e-01,	 3.0203999999999998e-01,	 1.1643505035132050e-02,	 1.7358147990059147e+03,	 1.6628058878699492e+00,	 3.0031664022293319e+02,	 1.0059886235892890e+03,	 3.4779127675793342e+02,	 4.9909693297102331e+00 
5.6152800000000003e-01,	 3.0203999999999998e-01,	 1.1635004077056794e-02,	 1.7358698262028875e+03,	 1.3657407855202863e+00,	 3.0022360811695728e+02,	 1.0049427405794787e+03,	 3.4773740318457283e+02,	 4.9919000589864577e+00 
5.6602600000000003e-01,	 3.0203999999999998e-01,	 1.1627380481401262e-02,	 1.7359193590126133e+03,	 1.1061292369214466e+00,	 3.0014005227753199e+02,	 1.0040047682576616e+03,	 3.4768901006734035e+02,	 4.9927367882280560e+00 
5.7052400000000003e-01,	 3.0203999999999998e-01,	 1.1620823604499411e-02,	 1.7359622382175930e+03,	 8.8682715072908302e-01,	 3.0006779745806205e+02,	 1.0031970281451058e+03,	 3.4764715674152342e+02,	 4.9934608440616852e+00 
5.7502200000000003e-01,	 3.0203999999999998e-01,	 1.1615352249040652e-02,	 1.7359981763003716e+03,	 7.0646176970553609e-01,	 3.0000726692727625e+02,	 1.0025224270461193e+03,	 3.4761209078570278e+02,	 4.9940677153181703e+00 
5.7952000000000004e-01,	 3.0203999999999998e-01,	 1.1610903624728591e-02,	 1.7360275423765922e+03,	 5.6153041070300491e-01,	 2.9995781790768024e+02,	 1.0019732872077094e+03,	 3.4758344183725308e+02,	 4.9945636766118886e+00 
5.8401800000000004e-01,	 3.0203999999999998e-01,	 1.1607370386757486e-02,	 1.7360510249576596e+03,	 4.4759737793577448e-01,	 2.9991828476266642e+02,	 1.0015363677175906e+03,	 3.4756053608422161e+02,	 4.9949603088363137e+00 
5.8851600000000004e-01,	 3.0203999999999998e-01,	 1.1604625393067921e-02,	 1.7360694341644548e+03,	 3.5986450884485077e-01,	 2.9988728996781498e+02,	 1.0011960388285056e+03,	 3.4754257644922018e+02,	 4.9952713396993493e+00 
5.9301400000000004e-01,	 3.0203999999999998e-01,	 1.1602541171348848e-02,	 1.7360835964316543e+03,	 2.9366086910917388e-01,	 2.9986344058433775e+02,	 1.0009366127041119e+03,	 3.4752875652210201e+02,	 4.9955106985738267e+00 
5.9751200000000004e-01,	 3.0203999999999998e-01,	 1.1600998285587243e-02,	 1.7360942960911534e+03,	 2.4478749696188012e-01,	 2.9984542222487033e+02,	 1.0007433730606617e+03,	 3.4751831511564382e+02,	 4.9956915587911510e+00 
6.0201000000000005e-01,	 3.0203999999999998e-01,	 1.1599888942841759e-02,	 1.7361022292699349e+03,	 2.0962230587363226e-01,	 2.9983206109745072e+02,	 1.0006030882979610e+03,	 3.4751057231239986e+02,	 4.9958256820010059e+00 
6.0650800000000005e-01,	 3.0203999999999998e-01,	 1.1599121537689442e-02,	 1.7361079924577300e+03,	 1.8513419151845251e-01,	 2.9982235412424268e+02,	 1.0005045000676271e+03,	 3.4750494699150312e+02,	 4.9959231296103015e+00 
6.1100600000000005e-01,	 3.0203999999999998e-01,	 1.1598620788220101e-02,	 1.7361120825789435e+03,	 1.6886446938583996e-01,	 2.9981546946032034e+02,	 1.0004383338908551e+03,	 3.4750095718141591e+02,	 4.9959922553104414e+00 
6.1550400000000005e-01,	 3.0203999999999998e-01,	 1.1598325208281579e-02,	 1.7361148933196996e+03,	 1.5884699818644613e-01,	 2.9981073990514341e+02,	 1.0003970572615848e+03,	 3.4749821627642586e+02,	 4.9960397471668498e+00 
6.2000200000000005e-01,	 3.0203999999999998e-01,	 1.1598186857532909e-02,	 1.7361167398948833e+03,	 1.5355385817549316e-01,	 2.9980763954809049e+02,	 1.0003747789844622e+03,	 3.4749641952402908e+02,	 4.9960708920786479e+00 
6.2450000000000006e-01,	 3.0203999999999998e-01,	 1.1598171457053823e-02,	 1.7361178557470657e+03,	 1.5194136479493170e-01,	 2.9980577538320057e+02,	 1.0003672304598208e+03,	 3.4749533917859060e+02,	 4.9960896353306330e+00 
6.2899799999999995e-01,	 3.0203999999999998e-01,	 1.1598248818517995e-02,	 1.7361184404001137e+03,	 1.5304223168861442e-01,	 2.9980481768255106e+02,	 1.0003707074544726e+03,	 3.4749478415796534e+02,	 4.9960992978714431e+00 
6.3349599999999995e-01,	 3.0203999999999998e-01,	 1.1598391664572140e-02,	 1.7361187425657104e+03,	 1.5602620258988176e-01,	 2.9980445109618802e+02,	 1.0003818049760589e+03,	 3.4749457170826389e+02,	 4.9961032226838524e+00 
6.3799399999999995e-01,	 3.0203999999999998e-01,	 1.1598588906751835e-02,	 1.7361186506835904e+03,	 1.6006780255390796e-01,	 2.9980451596368522e+02,	 1.0003990339154019e+03,	 3.4749460930127134e+02,	 4.9961024188361609e+00 
6.4249199999999995e-01,	 3.0203999999999998e-01,	 1.1598828765689701e-02,	 1.7361184315984246e+03,	 1.6594933222497427e-01,	 2.9980489373106462e+02,	 1.0004209827522409e+03,	 3.4749482823073964e+02,	 4.9960986422994393e+00 
6.4698999999999995e-01,	 3.0203999999999998e-01,	 1.1599119411635370e-02,	 1.7361179907318292e+03,	 1.7348921887919433e-01,	 2.9980566491772390e+02,	 1.0004486249588551e+03,	 3.4749527516007430e+02,	 4.9960909500148443e+00 
6.5148799999999996e-01,	 3.0203999999999998e-01,	 1.1599444606779162e-02,	 1.7361174302356576e+03,	 1.8137189847505245e-01,	 2.9980665308156574e+02,	 1.0004799713147170e+03,	 3.4749584783434864e+02,	 4.9960811058013306e+00 
6.5598599999999996e-01,	 3.0203999999999998e-01,	 1.1599797702365289e-02,	 1.7361167820966996e+03,	 1.9008000048312451e-01,	 2.9980778731757482e+02,	 1.0005142118135302e+03,	 3.4749650516120710e+02,	 4.9960697926927944e+00 
6.6048399999999996e-01,	 3.0203999999999998e-01,	 1.1600179084645505e-02,	 1.7361160477841922e+03,	 1.9950989256846652e-01,	 2.9980906415004785e+02,	 1.0005513682430851e+03,	 3.4749724512589182e+02,	 4.9960570439020486e+00 
6.6498199999999996e-01,	 3.0203999999999998e-01,	 1.1600588702596734e-02,	 1.7361152411922490e+03,	 2.0960464781229596e-01,	 2.9981046827023579e+02,	 1.0005913851889530e+03,	 3.4749805885600239e+02,	 4.9960430270048226e+00 
6.6947999999999996e-01,	 3.0203999999999998e-01,	 1.1601024714877815e-02,	 1.7361143732122118e+03,	 2.2034107855773760e-01,	 2.9981197841619360e+02,	 1.0006340329448584e+03,	 3.4749893402912619e+02,	 4.9960279505465337e+00 
6.7397799999999997e-01,	 3.0203999999999998e-01,	 1.1601485990664257e-02,	 1.7361134546205024e+03,	 2.3169320919545938e-01,	 2.9981357477606366e+02,	 1.0006791479210470e+03,	 3.4749985916330144e+02,	 4.9960120106551393e+00 
6.7847599999999997e-01,	 3.0203999999999998e-01,	 1.1601972293392703e-02,	 1.7361124975514642e+03,	 2.4363593929128069e-01,	 2.9981523988006370e+02,	 1.0007266514710718e+03,	 3.4750082413395450e+02,	 4.9959953878482146e+00 
6.8297399999999997e-01,	 3.0203999999999998e-01,	 1.1602482253370888e-02,	 1.7361115089098437e+03,	 2.5613401678137326e-01,	 2.9981695792605115e+02,	 1.0007763727695504e+03,	 3.4750181978304408e+02,	 4.9959782336906349e+00 
6.8747199999999997e-01,	 3.0203999999999998e-01,	 1.1603014784682848e-02,	 1.7361104989847513e+03,	 2.6914121403496755e-01,	 2.9981871078863298e+02,	 1.0008281577036548e+03,	 3.4750283560624990e+02,	 4.9959607288320740e+00 
6.9196999999999997e-01,	 3.0203999999999998e-01,	 1.1603569034697878e-02,	 1.7361094831237247e+03,	 2.8261718206729247e-01,	 2.9982047620899209e+02,	 1.0008818584727379e+03,	 3.4750385870396804e+02,	 4.9959431029109140e+00 
6.9646799999999998e-01,	 3.0203999999999998e-01,	 1.1604142784483792e-02,	 1.7361084721919699e+03,	 2.9651286230285301e-01,	 2.9982223142347715e+02,	 1.0009372077227235e+03,	 3.4750487588418440e+02,	 4.9959255768587809e+00 
7.0096599999999998e-01,	 3.0203999999999998e-01,	 1.1604734162596501e-02,	 1.7361074799139183e+03,	 3.1076512832246761e-01,	 2.9982395224070189e+02,	 1.0009939632867204e+03,	 3.4750587312764304e+02,	 4.9959083917119100e+00 
7.0546399999999998e-01,	 3.0203999999999998e-01,	 1.1605341505606825e-02,	 1.7361065247029842e+03,	 3.2530874942193833e-01,	 2.9982561060531293e+02,	 1.0010518880188382e+03,	 3.4750683417601982e+02,	 4.9958918341776082e+00 
7.0996199999999998e-01,	 3.0203999999999998e-01,	 1.1605961820755592e-02,	 1.7361056202221700e+03,	 3.4006324493149553e-01,	 2.9982717885527097e+02,	 1.0011106313964111e+03,	 3.4750774299909261e+02,	 4.9958761739936124e+00 
7.1445999999999998e-01,	 3.0203999999999998e-01,	 1.1606592533339826e-02,	 1.7361047823436597e+03,	 3.5493827794347088e-01,	 2.9982862899245833e+02,	 1.0011698778084896e+03,	 3.4750858337202618e+02,	 4.9958616900342294e+00 
7.1895799999999999e-01,	 3.0203999999999998e-01,	 1.1607231483795999e-02,	 1.7361040306570019e+03,	 3.6984789830892018e-01,	 2.9982993135464432e+02,	 1.0012293418699616e+03,	 3.4750933810573576e+02,	 4.9958486857228364e+00 
7.2345599999999999e-01,	 3.0203999999999998e-01,	 1.1607875119044927e-02,	 1.7361033805899592e+03,	 3.8469954232533665e-01,	 2.9983105603956858e+02,	 1.0012886171631231e+03,	 3.4750998987213103e+02,	 4.9958374544891715e+00 
7.2795399999999999e-01,	 3.0203999999999998e-01,	 1.1608520181145457e-02,	 1.7361029276745985e+03,	 3.9940418704467728e-01,	 2.9983197132402660e+02,	 1.0013473166189812e+03,	 3.4751052028791617e+02,	 4.9958285354332919e+00 
7.3245199999999999e-01,	 3.0203999999999998e-01,	 1.1609164730522183e-02,	 1.7361026220851115e+03,	 4.1389075324835950e-01,	 2.9983265252288061e+02,	 1.0014051903691129e+03,	 3.4751091504840934e+02,	 4.9958219907409465e+00 
7.3694999999999999e-01,	 3.0203999999999998e-01,	 1.1609806246049533e-02,	 1.7361024495325460e+03,	 4.2810999570282704e-01,	 2.9983308154093584e+02,	 1.0014619603715493e+03,	 3.4751116366776807e+02,	 4.9958179299721470e+00 
7.4144800000000000e-01,	 3.0203999999999998e-01,	 1.1610444365617988e-02,	 1.7361023843976375e+03,	 4.4205950609372457e-01,	 2.9983326146455090e+02,	 1.0015176055591563e+03,	 3.4751126793487418e+02,	 4.9958162536567272e+00 
7.4594600000000000e-01,	 3.0203999999999998e-01,	 1.1611083198465797e-02,	 1.7361024144983514e+03,	 4.5585801425384387e-01,	 2.9983320287474737e+02,	 1.0015725156024531e+03,	 3.4751123398163998e+02,	 4.9958168386540676e+00 
7.5044400000000000e-01,	 3.0203999999999998e-01,	 1.1611734360297499e-02,	 1.7361024669314047e+03,	 4.6987838671544041e-01,	 2.9983300468525658e+02,	 1.0016280227732087e+03,	 3.4751111912930668e+02,	 4.9958186514084133e+00 
7.5494200000000000e-01,	 3.0203999999999998e-01,	 1.1612429033261693e-02,	 1.7361022492764728e+03,	 4.8505010378646340e-01,	 2.9983300914117103e+02,	 1.0016879601385492e+03,	 3.4751112171154381e+02,	 4.9958179999680405e+00 
7.5944000000000000e-01,	 3.0203999999999998e-01,	 1.1613240546757504e-02,	 1.7361017816054032e+03,	 5.0359056730948315e-01,	 2.9983375679032997e+02,	 1.0017604592163706e+03,	 3.4751155497977641e+02,	 4.9958104407337585e+00 
7.6393800000000001e-01,	 3.0203999999999998e-01,	 1.1614340355554737e-02,	 1.7361000325473790e+03,	 5.3063275025775314e-01,	 2.9983674352107295e+02,	 1.0018653087144452e+03,	 3.4751328580700408e+02,	 4.9957805486738742e+00 
7.6843600000000001e-01,	 3.0203999999999998e-01,	 1.1616128126573137e-02,	 1.7360949855559907e+03,	 5.7814018494841235e-01,	 2.9984537629123639e+02,	 1.0020483734511248e+03,	 3.4751828849729566e+02,	 4.9956941527503558e+00 
7.7293400000000001e-01,	 3.0203999999999998e-01,	 1.1619516770608834e-02,	 1.7360821141341867e+03,	 6.7342654294762849e-01,	 2.9986742837197721e+02,	 1.0024144068805501e+03,	 3.4753106735110703e+02,	 4.9954735211956471e+00 
7.7743200000000001e-01,	 3.0203999999999998e-01,	 1.1626566918622204e-02,	 1.7360510973679877e+03,	 8.7817465654971583e-01,	 2.9992050630438297e+02,	 1.0032001620368202e+03,	 3.4756182329950553e+02,	 4.9949424910876008e+00 
7.8193000000000001e-01,	 3.0203999999999998e-01,	 1.1642005794974703e-02,	 1.7359779325143718e+03,	 1.3342588304984035e+00,	 3.0004534838757479e+02,	 1.0049504450709397e+03,	 3.4763415217794579e+02,	 4.9936936126346163e+00 
7.8642800000000002e-01,	 3.0203999999999998e-01,	 1.1676615964400727e-02,	 1.7358062751898212e+03,	 2.3661530198677396e+00,	 3.0033299157422510e+02,	 1.0089043076992476e+03,	 3.4780074473135687e+02,	 4.9908113026982139e+00 
7.9092600000000002e-01,	 3.0203999999999998e-01,	 1.1754266283208191e-02,	 1.7354021686624178e+03,	 4.7039405599432076e+00,	 3.0101040580496209e+02,	 1.0179043534128253e+03,	 3.4819276371647788e+02,	 4.9840454043998097e+00 
7.9542400000000002e-01,	 3.0203999999999998e-01,	 1.1924349423505620e-02,	 1.7344518801664299e+03,	 9.8869028166649109e+00,	 3.0257499542622992e+02,	 1.0380007485435883e+03,	 3.4909650773310835e+02,	 4.9684829859109110e+00 
7.9992200000000002e-01,	 3.0203999999999998e-01,	 1.2275709732171257e-02,	 1.7322711696231249e+03,	 2.0705183380827009e+01,	 3.0604205120373467e+02,	 1.0808306510383570e+03,	 3.5109087217728450e+02,	 4.9343205509188319e+00 
8.0442000000000002e-01,	 3.0203999999999998e-01,	 1.2934692549167438e-02,	 1.7276420868093264e+03,	 4.0897370076756559e+01,	 3.1308656697839558e+02,	 1.1650658759909270e+03,	 3.5510861120385204e+02,	 4.8664719276811352e+00 
8.0891800000000003e-01,	 3.0203999999999998e-01,	 1.4019506367533976e-02,	 1.7191649616184336e+03,	 7.2834027416947421e+01,	 3.2533664330457111e+02,	 1.3121867290666682e+03,	 3.6198908649601293e+02,	 4.7534778668440412e+00 
8.1341600000000003e-01,	 3.0203999999999998e-01,	 1.5550360250100590e-02,	 1.7064115895262653e+03,	 1.1430407827206912e+02,	 3.4275422546161099e+02,	 1.5333920580438194e+03,	 3.7155267751605891e+02,	 4.6029425726635518e+00 
8.1791400000000003e-01,	 3.0203999999999998e-01,	 1.7387282998112954e-02,	 1.6907817736923889e+03,	 1.5871637255969921e+02,	 3.6293598132984812e+02,	 1.8154809091546485e+03,	 3.8233495006604790e+02,	 4.4416941569769177e+00 
8.2241200000000003e-01,	 3.0203999999999998e-01,	 1.9280741727768211e-02,	 1.6747828961060718e+03,	 1.9932274510275190e+02,	 3.8258938814345657e+02,	 2.1222013891271267e+03,	 3.9255042013153422e+02,	 4.2965239871892997e+00 
8.2691000000000003e-01,	 3.0203999999999998e-01,	 2.0998274793634294e-02,	 1.6605281340987208e+03,	 2.3250257547872013e+02,	 3.9940661041704846e+02,	 2.4128415374735828e+03,	 4.0108517592218141e+02,	 4.1804744093288955e+00 
8.3140800000000004e-01,	 3.0203999999999998e-01,	 2.2409657034637716e-02,	 1.6489979348239985e+03,	 2.5773797221031714e+02,	 4.1259045423324051e+02,	 2.6600164555448291e+03,	 4.0765105864048400e+02,	 4.0942334231864388e+00 
8.3590600000000004e-01,	 3.0203999999999998e-01,	 2.3489524997994754e-02,	 1.6402329094046240e+03,	 2.7614971074277929e+02,	 4.2236972383055240e+02,	 2.8542824800981703e+03,	 4.1245386385537267e+02,	 4.0327341079652683e+00 
8.4040400000000004e-01,	 3.0203999999999998e-01,	 2.4277340118130507e-02,	 1.6338038515293897e+03,	 2.8932420234838855e+02,	 4.2939494029720402e+02,	 2.9990793937338544e+03,	 4.1586986165927232e+02,	 3.9897668071005907e+00 
8.4490200000000004e-01,	 3.0203999999999998e-01,	 2.4925043698730338e-02,	 1.6291979091150336e+03,	 2.9965319333720583e+02,	 4.3401314103609639e+02,	 3.1122089343572966e+03,	 4.1810024901151479e+02,	 3.9620302675050363e+00 
8.4940000000000004e-01,	 3.0203999999999998e-01,	 2.5375968581248291e-02,	 1.6271910515736770e+03,	 3.0634423083013445e+02,	 4.3590502810756931e+02,	 3.1823243652932506e+03,	 4.1901051906237615e+02,	 3.9516359003959920e+00 
5.2554400000000001e-01,	 3.0454399999999998e-01,	 1.1615413742832245e-02,	 1.7358129770764385e+03,	 9.5278605315096454e-01,	 3.0025134572300408e+02,	 1.0033433673658700e+03,	 3.4775346651214352e+02,	 4.9915052061960470e+00 
5.3004200000000001e-01,	 3.0452869999999999e-01,	 1.1631006791930881e-02,	 1.7357571313360068e+03,	 1.4703149676958405e+00,	 3.0039531495193148e+02,	 1.0051720448983790e+03,	 3.4783682966604499e+02,	 4.9901494207363521e+00 
5.3454000000000002e-01,	 3.0451329999999999e-01,	 1.1648203997064439e-02,	 1.7356811185566601e+03,	 1.9935054897218081e+00,	 3.0055054977053317e+02,	 1.0071784668032794e+03,	 3.4792669360593288e+02,	 4.9886435713844852e+00 
5.3903800000000002e-01,	 3.0449799999999999e-01,	 1.1657727210330312e-02,	 1.7356423884382511e+03,	 2.2503989749952833e+00,	 3.0063028712917935e+02,	 1.0082693321928883e+03,	 3.4797284377226538e+02,	 4.9878715492078731e+00 
5.4353600000000002e-01,	 3.0448270000000000e-01,	 1.1661104080839200e-02,	 1.7356342476640204e+03,	 2.3090974567034643e+00,	 3.0065053511619561e+02,	 1.0086293239644918e+03,	 3.4798456187135986e+02,	 4.9876804141759790e+00 
5.4803400000000002e-01,	 3.0446730000000000e-01,	 1.1659887515029358e-02,	 1.7356487286594470e+03,	 2.2321257811313773e+00,	 3.0062744628607248e+02,	 1.0084466460260998e+03,	 3.4797119966215359e+02,	 4.9879132688374677e+00 
5.5253200000000002e-01,	 3.0445200000000000e-01,	 1.1655638111294952e-02,	 1.7356786810792978e+03,	 2.0641802990343807e+00,	 3.0057548504361790e+02,	 1.0079048822419170e+03,	 3.4794112623163954e+02,	 4.9884298740559974e+00 
5.5703000000000003e-01,	 3.0443670000000000e-01,	 1.1649644980948254e-02,	 1.7357176493518391e+03,	 1.8500150447724533e+00,	 3.0050662618727222e+02,	 1.0071558524737563e+03,	 3.4790126902178753e+02,	 4.9891126874916152e+00 
5.6152800000000003e-01,	 3.0442130000000001e-01,	 1.1642645306727624e-02,	 1.7357609891049613e+03,	 1.6167638788019567e+00,	 3.0042985548753870e+02,	 1.0062935597544132e+03,	 3.4785682685717228e+02,	 4.9898740172774216e+00 
5.6602600000000003e-01,	 3.0440600000000001e-01,	 1.1635380670055840e-02,	 1.7358051356645597e+03,	 1.3842832400518690e+00,	 3.0035161838344931e+02,	 1.0054037722541685e+03,	 3.4781152995618453e+02,	 4.9906502175404199e+00 
5.7052400000000003e-01,	 3.0439070000000001e-01,	 1.1628447681149382e-02,	 1.7358474537251682e+03,	 1.1659848254281064e+00,	 3.0027657996266953e+02,	 1.0045536626963203e+03,	 3.4776807945239193e+02,	 4.9913949781125968e+00 
5.7502200000000003e-01,	 3.0437530000000002e-01,	 1.1622102122060754e-02,	 1.7358862794900856e+03,	 9.6943454862505718e-01,	 3.0020783175025355e+02,	 1.0037756184030826e+03,	 3.4772826648660202e+02,	 4.9920777730485923e+00 
5.7952000000000004e-01,	 3.0435999999999996e-01,	 1.1616493330365057e-02,	 1.7359207036686012e+03,	 7.9828087873551912e-01,	 3.0014697196945934e+02,	 1.0030878065909060e+03,	 3.4769301800788537e+02,	 4.9926826174520222e+00 
5.8401800000000004e-01,	 3.0434469999999997e-01,	 1.1611676698224511e-02,	 1.7359503865193790e+03,	 6.5333220261502789e-01,	 3.0009456016091104e+02,	 1.0024968018624594e+03,	 3.4766265952154089e+02,	 4.9932037908545448e+00 
5.8851600000000004e-01,	 3.0432929999999997e-01,	 1.1607647502452559e-02,	 1.7359753623340914e+03,	 5.3340023387086333e-01,	 3.0005051420018771e+02,	 1.0020018512969640e+03,	 3.4763714473418469e+02,	 4.9936419930282092e+00 
5.9301400000000004e-01,	 3.0431399999999997e-01,	 1.1604356387793432e-02,	 1.7359959304788008e+03,	 4.3623761299386166e-01,	 3.0001429310077316e+02,	 1.0015968298201741e+03,	 3.4761616130136815e+02,	 4.9940025193038720e+00 
5.9751200000000004e-01,	 3.0429869999999998e-01,	 1.1601726536761878e-02,	 1.7360125549828945e+03,	 3.5913185536042280e-01,	 2.9998505881993435e+02,	 1.0012722653088236e+03,	 3.4759922451487046e+02,	 4.9942936281082924e+00 
6.0201000000000005e-01,	 3.0428329999999998e-01,	 1.1599671244222690e-02,	 1.7360257567132692e+03,	 2.9921221983647900e-01,	 2.9996187593231417e+02,	 1.0010175211442312e+03,	 3.4758579299684055e+02,	 4.9945245676780781e+00 
6.0650800000000005e-01,	 3.0426799999999998e-01,	 1.1598103139120835e-02,	 1.7360360577195556e+03,	 2.5366688574953394e-01,	 2.9994381236261074e+02,	 1.0008219256074267e+03,	 3.4757532710895515e+02,	 4.9947045743786695e+00 
6.1100600000000005e-01,	 3.0425269999999999e-01,	 1.1596939023444199e-02,	 1.7360439551502950e+03,	 2.1990721747975114e-01,	 2.9992997884207387e+02,	 1.0006753182494375e+03,	 3.4756731186465328e+02,	 4.9948424659517876e+00 
6.1550400000000005e-01,	 3.0423729999999999e-01,	 1.1596108318217294e-02,	 1.7360498939909630e+03,	 1.9566124769883397e-01,	 2.9991958481433556e+02,	 1.0005689626872637e+03,	 3.4756128936634605e+02,	 4.9949460947794746e+00 
6.2000200000000005e-01,	 3.0422199999999999e-01,	 1.1595540605803385e-02,	 1.7360542652602035e+03,	 1.7900254000853902e-01,	 2.9991194993678658e+02,	 1.0004945080303046e+03,	 3.4755686550590588e+02,	 4.9950222446665364e+00 
6.2450000000000006e-01,	 3.0420670000000000e-01,	 1.1595181024337865e-02,	 1.7360573864551898e+03,	 1.6833562093258467e-01,	 2.9990649724527913e+02,	 1.0004452929708962e+03,	 3.4755370603029451e+02,	 4.9950766298695166e+00 
6.2899799999999995e-01,	 3.0419130000000000e-01,	 1.1594992745350672e-02,	 1.7360595341005917e+03,	 1.6238057906075126e-01,	 2.9990275678564637e+02,	 1.0004165706104384e+03,	 3.4755153866367681e+02,	 4.9951139573996137e+00 
6.3349599999999995e-01,	 3.0417600000000000e-01,	 1.1594932801004917e-02,	 1.7360609838284072e+03,	 1.5998904073152104e-01,	 2.9990030334670826e+02,	 1.0004032144620952e+03,	 3.4755011703916256e+02,	 4.9951385601311351e+00 
6.3799399999999995e-01,	 3.0416070000000001e-01,	 1.1594972820345108e-02,	 1.7360617934263116e+03,	 1.6074248529278620e-01,	 2.9989883423100525e+02,	 1.0004017666321620e+03,	 3.4754926576966710e+02,	 4.9951531246176106e+00 
6.4249199999999995e-01,	 3.0414530000000001e-01,	 1.1595094366666630e-02,	 1.7360622032887202e+03,	 1.6343464122379936e-01,	 2.9989811292030265e+02,	 1.0004098473462464e+03,	 3.4754884781013004e+02,	 4.9951603117674610e+00 
6.4698999999999995e-01,	 3.0413000000000001e-01,	 1.1595282262543428e-02,	 1.7360622688387414e+03,	 1.6740947565912714e-01,	 2.9989801678306316e+02,	 1.0004257380582159e+03,	 3.4754879210389510e+02,	 4.9951613021042069e+00 
6.5148799999999996e-01,	 3.0411470000000002e-01,	 1.1595522159201944e-02,	 1.7360620452155736e+03,	 1.7322854217103031e-01,	 2.9989838313884786e+02,	 1.0004476581737074e+03,	 3.4754900438684535e+02,	 4.9951576092728640e+00 
6.5598599999999996e-01,	 3.0409929999999996e-01,	 1.1595806383010179e-02,	 1.7360616138178773e+03,	 1.8040629075407094e-01,	 2.9989912317392691e+02,	 1.0004746494454729e+03,	 3.4754943319591990e+02,	 4.9951502070580762e+00 
6.6048399999999996e-01,	 3.0408399999999997e-01,	 1.1596130528973828e-02,	 1.7360609934943336e+03,	 1.8843715951224382e-01,	 2.9990019490896793e+02,	 1.0005061918850170e+03,	 3.4755005420569364e+02,	 4.9951394992262808e+00 
6.6498199999999996e-01,	 3.0406869999999997e-01,	 1.1596487963554589e-02,	 1.7360602282326531e+03,	 1.9733899405735300e-01,	 2.9990151933299080e+02,	 1.0005414496831835e+03,	 3.4755082163289205e+02,	 4.9951262704313892e+00 
6.6947999999999996e-01,	 3.0405329999999997e-01,	 1.1596875194121730e-02,	 1.7360593415469189e+03,	 2.0704454858650401e-01,	 2.9990305414999057e+02,	 1.0005799804972228e+03,	 3.4755171096854468e+02,	 4.9951109406284404e+00 
6.7397799999999997e-01,	 3.0403799999999997e-01,	 1.1597289825966644e-02,	 1.7360583483390069e+03,	 2.1748342754265043e-01,	 2.9990477455428868e+02,	 1.0006214950566768e+03,	 3.4755270783835243e+02,	 4.9950937593298494e+00 
6.7847599999999997e-01,	 3.0402269999999998e-01,	 1.1597729781818960e-02,	 1.7360572624175593e+03,	 2.2859822447984843e-01,	 2.9990665233839349e+02,	 1.0006657201224554e+03,	 3.4755379589693661e+02,	 4.9950750012320224e+00 
6.8297399999999997e-01,	 3.0400729999999998e-01,	 1.1598194298483874e-02,	 1.7360560956916677e+03,	 2.4033059030006348e-01,	 2.9990867155914856e+02,	 1.0007125367476548e+03,	 3.4755496590542333e+02,	 4.9950548334249456e+00 
6.8747199999999997e-01,	 3.0399199999999998e-01,	 1.1598681861816252e-02,	 1.7360548602322285e+03,	 2.5264406881496854e-01,	 2.9991081448336405e+02,	 1.0007617552144926e+03,	 3.4755620758779679e+02,	 4.9950334383742394e+00 
6.9196999999999997e-01,	 3.0397669999999999e-01,	 1.1599190111922151e-02,	 1.7360535686206340e+03,	 2.6549902083692589e-01,	 2.9991305325388834e+02,	 1.0008130790392548e+03,	 3.4755750480200754e+02,	 4.9950110843134388e+00 
6.9646799999999998e-01,	 3.0396129999999999e-01,	 1.1599718112356747e-02,	 1.7360522342955255e+03,	 2.7884364151151614e-01,	 2.9991536877167550e+02,	 1.0008663637674243e+03,	 3.4755884648090807e+02,	 4.9949879689934358e+00 
7.0096599999999998e-01,	 3.0394599999999999e-01,	 1.1600263970999850e-02,	 1.7360508677062869e+03,	 2.9262401878822142e-01,	 2.9991774396628074e+02,	 1.0009213892435196e+03,	 3.4756022273292564e+02,	 4.9949642646600232e+00 
7.0546399999999998e-01,	 3.0393070000000000e-01,	 1.1600825216646026e-02,	 1.7360494838771399e+03,	 3.0677736244772463e-01,	 2.9992014845667518e+02,	 1.0009778409080353e+03,	 3.4756161595416523e+02,	 4.9949402675449655e+00 
7.0996199999999998e-01,	 3.0391530000000000e-01,	 1.1601400577196823e-02,	 1.7360480995724231e+03,	 3.2122952429122575e-01,	 2.9992255874869818e+02,	 1.0010355306279118e+03,	 3.4756301253140697e+02,	 4.9949162215150489e+00 
7.1445999999999998e-01,	 3.0390000000000000e-01,	 1.1601987367580145e-02,	 1.7360467258523420e+03,	 3.3589623830644100e-01,	 2.9992495473058000e+02,	 1.0010941596206950e+03,	 3.4756440081147025e+02,	 4.9948923258374842e+00 
7.1895799999999999e-01,	 3.0388470000000001e-01,	 1.1602582713491398e-02,	 1.7360453816323588e+03,	 3.5069425061779125e-01,	 2.9992730097744004e+02,	 1.0011533616395176e+03,	 3.4756576026868845e+02,	 4.9948689298731148e+00 
7.2345599999999999e-01,	 3.0386930000000001e-01,	 1.1603184167301351e-02,	 1.7360440867704569e+03,	 3.6554162281765934e-01,	 2.9992956692324310e+02,	 1.0012128234413622e+03,	 3.4756707319299665e+02,	 4.9948463452138023e+00 
7.2795399999999999e-01,	 3.0385400000000001e-01,	 1.1603788303093507e-02,	 1.7360428959367671e+03,	 3.8035225872795642e-01,	 2.9993172466697337e+02,	 1.0012721562367609e+03,	 3.4756832341872774e+02,	 4.9948249613969278e+00 
7.3245199999999999e-01,	 3.0383869999999996e-01,	 1.1604392244354458e-02,	 1.7360417959268896e+03,	 3.9504808803257840e-01,	 2.9993373734320085e+02,	 1.0013309886873874e+03,	 3.4756948958634337e+02,	 4.9948050473042374e+00 
7.3694999999999999e-01,	 3.0382329999999996e-01,	 1.1604993790160452e-02,	 1.7360407892398414e+03,	 4.0956189973493623e-01,	 2.9993558124290610e+02,	 1.0013890516438341e+03,	 3.4757055795947821e+02,	 4.9947868074418107e+00 
7.4144800000000000e-01,	 3.0380799999999997e-01,	 1.1605591433502236e-02,	 1.7360398667350992e+03,	 4.2385371408294487e-01,	 2.9993724985506560e+02,	 1.0014461932355240e+03,	 3.4757152476650106e+02,	 4.9947702696395027e+00 
7.4594600000000000e-01,	 3.0379269999999997e-01,	 1.1606185724797416e-02,	 1.7360390246136496e+03,	 4.3795476765757002e-01,	 2.9993873229473752e+02,	 1.0015024245171039e+03,	 3.4757238370146285e+02,	 4.9947555135644022e+00 
7.5044400000000000e-01,	 3.0377729999999997e-01,	 1.1606783260867172e-02,	 1.7360382184674231e+03,	 4.5204465820332951e-01,	 2.9994008242423365e+02,	 1.0015584944903758e+03,	 3.4757316597322148e+02,	 4.9947419630628920e+00 
7.5494200000000000e-01,	 3.0376199999999998e-01,	 1.1607402154470894e-02,	 1.7360372645095513e+03,	 4.6664905670321344e-01,	 2.9994150833689417e+02,	 1.0016166609628862e+03,	 3.4757399215221159e+02,	 4.9947273571240887e+00 
7.5944000000000000e-01,	 3.0374669999999998e-01,	 1.1608085398468207e-02,	 1.7360360816801024e+03,	 4.8305817236517490e-01,	 2.9994336355499240e+02,	 1.0016818145377488e+03,	 3.4757506706939660e+02,	 4.9947085201592056e+00 
7.6393800000000001e-01,	 3.0373129999999998e-01,	 1.1608937513057841e-02,	 1.7360339401470383e+03,	 5.0431120793787876e-01,	 2.9994662062151883e+02,	 1.0017662229826846e+03,	 3.4757695421240538e+02,	 4.9946752578319034e+00 
7.6843600000000001e-01,	 3.0371599999999999e-01,	 1.1610200708132994e-02,	 1.7360293139056248e+03,	 5.3753751682632700e-01,	 2.9995352007055880e+02,	 1.0018982728501920e+03,	 3.4758095171650774e+02,	 4.9946045332832023e+00 
7.7293400000000001e-01,	 3.0370069999999999e-01,	 1.1612434042344025e-02,	 1.7360187483524583e+03,	 5.9918368299476998e-01,	 2.9996921011020834e+02,	 1.0021434152698639e+03,	 3.4759004227093413e+02,	 4.9944435704025825e+00 
7.7743200000000001e-01,	 3.0368529999999999e-01,	 1.1616908729640971e-02,	 1.7359943602289425e+03,	 7.2654171984548577e-01,	 3.0000542485492315e+02,	 1.0026506106656690e+03,	 3.4761102359887843e+02,	 4.9940720932570208e+00 
7.8193000000000001e-01,	 3.0367000000000000e-01,	 1.1626542263846499e-02,	 1.7359378946209772e+03,	 1.0053271076974175e+00,	 3.0008925924037402e+02,	 1.0037624929776402e+03,	 3.4765958892227820e+02,	 4.9932124441263879e+00 
7.8642800000000002e-01,	 3.0365470000000000e-01,	 1.1648038165183991e-02,	 1.7358068459874587e+03,	 1.6328694369907832e+00,	 3.0028556214760636e+02,	 1.0062761374307274e+03,	 3.4777328081349299e+02,	 4.9912046432814146e+00 
7.9092600000000002e-01,	 3.0363930000000000e-01,	 1.1696591665617789e-02,	 1.7355025136935383e+03,	 3.0587627863834972e+00,	 3.0073723873556469e+02,	 1.0119905895804928e+03,	 3.4803473531614401e+02,	 4.9865862026571861e+00 