TITLE = "Final State"
VARIABLES = "X", "Y", "rho", "u", "v", "T", "p", "c", "M"
ZONE I=77, J=25, DATAPACKING=POINT, STRANDID=67000, SOLUTIONTIME=0.001616
2.1589400000000000e-01,	 1.8936299999999998e-01,	 1.1581772824918211e-02,	 1.7359372319414404e+03,	 4.0140205120177597e-01,	 3.0010309439205923e+02,	 9.9994348007963492e+02,	 3.4766760298403182e+02,	 4.9930947360356068e+00 
2.2017450000000000e-01,	 1.8988320000000000e-01,	 1.1585801957814005e-02,	 1.7359045717416136e+03,	 5.2107362049045447e-01,	 3.0016852667317255e+02,	 1.0005094422957155e+03,	 3.4770550236744964e+02,	 4.9924566569370592e+00 
2.2445490000000001e-01,	 1.9040340000000000e-01,	 1.1591636075197857e-02,	 1.7358532232186035e+03,	 6.9401646325623423e-01,	 3.0025782636515316e+02,	 1.0013110562825573e+03,	 3.4775721945720773e+02,	 4.9915667161887809e+00 
2.2873540000000001e-01,	 1.9092370000000000e-01,	 1.1597127254964038e-02,	 1.7358071285611190e+03,	 8.6231138623390668e-01,	 3.0033734267504565e+02,	 1.0020506960751540e+03,	 3.4780326411928166e+02,	 4.9907735832939402e+00 
2.3301580000000000e-01,	 1.9144390000000000e-01,	 1.1602255801968225e-02,	 1.7357672957615969e+03,	 1.0195094177161732e+00,	 3.0040556564989083e+02,	 1.0027215495547850e+03,	 3.4784276441216986e+02,	 4.9900925727209930e+00 
2.3729629999999999e-01,	 1.9196410000000000e-01,	 1.1606995656264905e-02,	 1.7357343945208477e+03,	 1.1614556876939268e+00,	 3.0046172949538686e+02,	 1.0033187355472833e+03,	 3.4787527924623879e+02,	 4.9895318427687130e+00 
2.4157670000000001e-01,	 1.9248430000000000e-01,	 1.1611294236934475e-02,	 1.7357081940032178e+03,	 1.2864779872811882e+00,	 3.0050618890837700e+02,	 1.0038388249338212e+03,	 3.4790101589935256e+02,	 4.9890876756258562e+00 
2.4585720000000000e-01,	 1.9300460000000000e-01,	 1.1615139862466876e-02,	 1.7356881024013003e+03,	 1.3952228286368906e+00,	 3.0054024141348191e+02,	 1.0042850831462918e+03,	 3.4792072691689879e+02,	 4.9887475188756882e+00 
2.5013760000000002e-01,	 1.9352480000000000e-01,	 1.1618436904740684e-02,	 1.7356735290368481e+03,	 1.4873516622187428e+00,	 3.0056471414037458e+02,	 1.0046519580635133e+03,	 3.4793489206756828e+02,	 4.9885027511934652e+00 
2.5441799999999998e-01,	 1.9404500000000000e-01,	 1.1621289645632644e-02,	 1.7356640045440313e+03,	 1.5633264411933241e+00,	 3.0058054611687646e+02,	 1.0049515681061951e+03,	 3.4794405552595077e+02,	 4.9883441922023222e+00 
2.5869850000000000e-01,	 1.9456530000000000e-01,	 1.1623691694902103e-02,	 1.7356589042190280e+03,	 1.6243436168869709e+00,	 3.0058889889312616e+02,	 1.0051872176119149e+03,	 3.4794888996831639e+02,	 4.9882603863476529e+00 
2.6297890000000002e-01,	 1.9508550000000000e-01,	 1.1625593011612683e-02,	 1.7356577845130225e+03,	 1.6714674429974687e+00,	 3.0059091765461517e+02,	 1.0053583905958870e+03,	 3.4795005838245680e+02,	 4.9882405463791741e+00 
2.6725939999999998e-01,	 1.9560569999999999e-01,	 1.1627094278814658e-02,	 1.7356591264227163e+03,	 1.7059232494172341e+00,	 3.0058762180835544e+02,	 1.0054771924943253e+03,	 3.4794815081809827e+02,	 4.9882718465093889e+00 
2.7153980000000000e-01,	 1.9612589999999999e-01,	 1.1628228844413785e-02,	 1.7356634170320481e+03,	 1.7288927961316227e+00,	 3.0057988235997686e+02,	 1.0055494151377231e+03,	 3.4794367135206124e+02,	 4.9883484627312669e+00 
2.7582030000000002e-01,	 1.9664619999999999e-01,	 1.1629028768756787e-02,	 1.7356699040940366e+03,	 1.7416156353902879e+00,	 3.0056850381700553e+02,	 1.0055805204822434e+03,	 3.4793708553292083e+02,	 4.9884615640388805e+00 
2.8010069999999998e-01,	 1.9716639999999999e-01,	 1.1629441818809542e-02,	 1.7356780284215597e+03,	 1.7450342451813994e+00,	 3.0055425060091159e+02,	 1.0055685503899682e+03,	 3.4792883569769481e+02,	 4.9886032072083477e+00 
2.8438120000000000e-01,	 1.9768659999999999e-01,	 1.1629612970870371e-02,	 1.7356875029081657e+03,	 1.7401980112438988e+00,	 3.0053771084108780e+02,	 1.0055280113580392e+03,	 3.4791926215391720e+02,	 4.9887676943284900e+00 
2.8866160000000002e-01,	 1.9820689999999999e-01,	 1.1629554769198837e-02,	 1.7356981058971619e+03,	 1.7281897489792959e+00,	 3.0051939000214486e+02,	 1.0054616822011519e+03,	 3.4790865737840517e+02,	 4.9889502012766531e+00 
2.9294209999999998e-01,	 1.9872709999999999e-01,	 1.1629201474775308e-02,	 1.7357093659508960e+03,	 1.7096892442603804e+00,	 3.0049979549453053e+02,	 1.0053655810025242e+03,	 3.4789731499886346e+02,	 4.9891451676939731e+00 
2.9722250000000000e-01,	 1.9924729999999999e-01,	 1.1628681710981215e-02,	 1.7357212340066048e+03,	 1.6855953841765885e+00,	 3.0047929903084264e+02,	 1.0052520756564056e+03,	 3.4788545012177036e+02,	 4.9893493730692553e+00 
3.0150290000000002e-01,	 1.9976749999999999e-01,	 1.1627999445047069e-02,	 1.7357334004902827e+03,	 1.6566125114454668e+00,	 3.0045822928613887e+02,	 1.0051226119550739e+03,	 3.4787325296519157e+02,	 4.9895592036588630e+00 
3.0578339999999998e-01,	 2.0028779999999999e-01,	 1.1627194472854784e-02,	 1.7357458207958227e+03,	 1.6235220082879940e+00,	 3.0043684250454805e+02,	 1.0049814900476318e+03,	 3.4786087184036984e+02,	 4.9897724078296486e+00 
3.1006380000000000e-01,	 2.0080799999999999e-01,	 1.1626196166773902e-02,	 1.7357582035255577e+03,	 1.5867667927077562e+00,	 3.0041542814342466e+02,	 1.0048235764238144e+03,	 3.4784847430780826e+02,	 4.9899857467007003e+00 
3.1434430000000002e-01,	 2.0132819999999998e-01,	 1.1625143824798543e-02,	 1.7357705184398933e+03,	 1.5469568081260994e+00,	 3.0039415058765030e+02,	 1.0046614627863473e+03,	 3.4783615553906560e+02,	 4.9901977702422959e+00 
3.1862469999999998e-01,	 2.0184849999999999e-01,	 1.1624036613944188e-02,	 1.7357816962891720e+03,	 1.5050031409422249e+00,	 3.0037529623045486e+02,	 1.0045027240829619e+03,	 3.4782523933111037e+02,	 4.9903864138231846e+00 
3.2290520000000000e-01,	 2.0236869999999998e-01,	 1.1622795614336361e-02,	 1.7357936771305494e+03,	 1.4609881966282345e+00,	 3.0035456968082201e+02,	 1.0043261763876684e+03,	 3.4781323877456623e+02,	 4.9905929345605591e+00 
3.2718560000000002e-01,	 2.0288889999999998e-01,	 1.1621534059601903e-02,	 1.7358064578593448e+03,	 1.4147521191092727e+00,	 3.0033227155190025e+02,	 1.0041426129662249e+03,	 3.4780032782003195e+02,	 4.9908148312539620e+00 
3.3146609999999999e-01,	 2.0340909999999998e-01,	 1.1620266341233601e-02,	 1.7358175971130659e+03,	 1.3704612885692748e+00,	 3.0031294071087706e+02,	 1.0039684530735625e+03,	 3.4778913458229022e+02,	 4.9910073821038479e+00 
3.3574650000000000e-01,	 2.0392939999999998e-01,	 1.1619029997451680e-02,	 1.7358283651658539e+03,	 1.3221718401247968e+00,	 3.0029454418169473e+02,	 1.0038001409517502e+03,	 3.4777848200945203e+02,	 4.9911911130386279e+00 
3.4002700000000002e-01,	 2.0444959999999998e-01,	 1.1617648265272562e-02,	 1.7358387674216192e+03,	 1.2700189788488951e+00,	 3.0027655162341966e+02,	 1.0036206323809275e+03,	 3.4776806304171026e+02,	 4.9913704462716320e+00 
3.4430739999999999e-01,	 2.0496979999999998e-01,	 1.1616314877969144e-02,	 1.7358487879179911e+03,	 1.2205456503230514e+00,	 3.0025928837090015e+02,	 1.0034477515559726e+03,	 3.4775806610030884e+02,	 4.9915426448363229e+00 
3.4858790000000001e-01,	 2.0549009999999998e-01,	 1.1615017429880355e-02,	 1.7358584061717486e+03,	 1.1712289433525174e+00,	 3.0024279573713335e+02,	 1.0032805633927621e+03,	 3.4774851514650481e+02,	 4.9917072990800646e+00 
3.5286830000000002e-01,	 2.0601029999999998e-01,	 1.1613680673039809e-02,	 1.7358674694307624e+03,	 1.1218946462055859e+00,	 3.0022713135605244e+02,	 1.0031127596627641e+03,	 3.4773944359443101e+02,	 4.9918634884475619e+00 
3.5714869999999999e-01,	 2.0653049999999998e-01,	 1.1612383207026015e-02,	 1.7358761189550337e+03,	 1.0727995237065358e+00,	 3.0021229076764234e+02,	 1.0029511136169340e+03,	 3.4773084889862690e+02,	 4.9920116548669746e+00 
3.6142920000000001e-01,	 2.0705069999999998e-01,	 1.1611128938812495e-02,	 1.7358842397093576e+03,	 1.0240783465077232e+00,	 3.0019826316278630e+02,	 1.0027959251482891e+03,	 3.4772272483429663e+02,	 4.9921515558470411e+00 
3.6570960000000002e-01,	 2.0757099999999998e-01,	 1.1609939996745164e-02,	 1.7358919990840541e+03,	 9.7602036024290106e-01,	 3.0018501040920506e+02,	 1.0026489765199416e+03,	 3.4771504934943624e+02,	 4.9922839886274568e+00 
3.6999009999999999e-01,	 2.0809119999999998e-01,	 1.1608702568289435e-02,	 1.7358991733477606e+03,	 9.2848965137356820e-01,	 3.0017259576163013e+02,	 1.0025006488597505e+03,	 3.4770785910962229e+02,	 4.9924077819407877e+00 
3.7427050000000001e-01,	 2.0861140000000000e-01,	 1.1607570602981239e-02,	 1.7359059245799563e+03,	 8.8169638085078994e-01,	 3.0016096668086902e+02,	 1.0023640605540139e+03,	 3.4770112371472692e+02,	 4.9925238375661065e+00 
3.7855100000000003e-01,	 2.0913169999999998e-01,	 1.1606501491714903e-02,	 1.7359122842028517e+03,	 8.3579570516297108e-01,	 3.0015009284475116e+02,	 1.0022354291794101e+03,	 3.4769482562853409e+02,	 4.9926324968211073e+00 
3.8283139999999999e-01,	 2.0965190000000000e-01,	 1.1605419233556742e-02,	 1.7359181008533360e+03,	 7.9063131621514171e-01,	 3.0014001936974330e+02,	 1.0021083415329333e+03,	 3.4768899100677726e+02,	 4.9927329475545434e+00 
3.8711190000000001e-01,	 2.1017210000000000e-01,	 1.1604407882296542e-02,	 1.7359235075704264e+03,	 7.4628961199117305e-01,	 3.0013073000642657e+02,	 1.0019900004108955e+03,	 3.4768361046079644e+02,	 4.9928257063603168e+00 
3.9139230000000003e-01,	 2.1069230000000000e-01,	 1.1603475384740495e-02,	 1.7359284330072371e+03,	 7.0276406791506796e-01,	 3.0012220448133235e+02,	 1.0018810230351975e+03,	 3.4767867226870220e+02,	 4.9929107354542177e+00 
3.9567279999999999e-01,	 2.1121260000000000e-01,	 1.1602621175505102e-02,	 1.7359329822562950e+03,	 6.6013231354906687e-01,	 3.0011441802210732e+02,	 1.0017812767050534e+03,	 3.4767416210030439e+02,	 4.9929885421610809e+00 
3.9995320000000001e-01,	 2.1173280000000000e-01,	 1.1601756290446685e-02,	 1.7359369840664108e+03,	 6.1813096117452526e-01,	 3.0010743737208918e+02,	 1.0016833020541093e+03,	 3.4767011863285779e+02,	 4.9930580774223579e+00 
4.0423360000000003e-01,	 2.1225300000000000e-01,	 1.1601009556123650e-02,	 1.7359405499140626e+03,	 5.7679381268955510e-01,	 3.0010122724090883e+02,	 1.0015981032815808e+03,	 3.4766652144074436e+02,	 4.9931199545607727e+00 
4.0851409999999999e-01,	 2.1277330000000000e-01,	 1.1600353657594089e-02,	 1.7359437296659266e+03,	 5.3615146269486103e-01,	 3.0009576862816044e+02,	 1.0015232575951944e+03,	 3.4766335953175548e+02,	 4.9931744742959117e+00 
4.1279450000000001e-01,	 2.1329350000000000e-01,	 1.1599703877795922e-02,	 1.7359463481108096e+03,	 4.9590794464925925e-01,	 3.0009112728041362e+02,	 1.0014516695663594e+03,	 3.4766067100202878e+02,	 4.9932205847169611e+00 
4.1707499999999997e-01,	 2.1381370000000000e-01,	 1.1599147049895755e-02,	 1.7359485376257442e+03,	 4.5605010671844060e-01,	 3.0008730015180339e+02,	 1.0013908251284837e+03,	 3.4765845409819207e+02,	 4.9932586913010431e+00 
4.2135539999999999e-01,	 2.1433389999999999e-01,	 1.1598690451743738e-02,	 1.7359502206827931e+03,	 4.1648311742499411e-01,	 3.0008427615654040e+02,	 1.0013413149048002e+03,	 3.4765670240765678e+02,	 4.9932886626987338e+00 
4.2563590000000001e-01,	 2.1485420000000000e-01,	 1.1598333852604240e-02,	 1.7359515040019367e+03,	 3.7722955979103889e-01,	 3.0008203514997626e+02,	 1.0013030511794854e+03,	 3.4765540426831956e+02,	 4.9933109730948342e+00 
4.2991629999999997e-01,	 2.1537439999999999e-01,	 1.1597977493592971e-02,	 1.7359522163211398e+03,	 3.3797853581622417e-01,	 3.0008065381259667e+02,	 1.0012676770698853e+03,	 3.4765460410386191e+02,	 4.9933244914070736e+00 
4.3419679999999999e-01,	 2.1589459999999999e-01,	 1.1597757155411333e-02,	 1.7359524569989958e+03,	 2.9875126756161458e-01,	 3.0008001600639398e+02,	 1.0012465269001625e+03,	 3.4765423464255559e+02,	 4.9933304695421041e+00 
4.3847720000000001e-01,	 2.1641489999999999e-01,	 1.1597648960674369e-02,	 1.7359523299526027e+03,	 2.5965449195406837e-01,	 3.0008029958273113e+02,	 1.0012381325067083e+03,	 3.4765439890956094e+02,	 4.9933277266629998e+00 
4.4275769999999998e-01,	 2.1693509999999999e-01,	 1.1597542578077505e-02,	 1.7359516043404467e+03,	 2.2039557152236616e-01,	 3.0008133281323165e+02,	 1.0012323957885179e+03,	 3.4765499742739081e+02,	 4.9933170274466274e+00 
4.4703809999999999e-01,	 2.1745529999999999e-01,	 1.1597542969422163e-02,	 1.7359505248707640e+03,	 1.8113439004366305e-01,	 3.0008314601611517e+02,	 1.0012384793921259e+03,	 3.4765604775612280e+02,	 4.9932988237229630e+00 
4.5131850000000001e-01,	 2.1797549999999999e-01,	 1.1597633762444725e-02,	 1.7359489604998932e+03,	 1.4184911753247922e-01,	 3.0008569762241990e+02,	 1.0012548313258020e+03,	 3.4765752581227059e+02,	 4.9932730845950859e+00 
4.5559899999999998e-01,	 2.1849579999999999e-01,	 1.1597822853230570e-02,	 1.7359470975692989e+03,	 1.0272878345425110e-01,	 3.0008889938085821e+02,	 1.0012818390834185e+03,	 3.4765938046988447e+02,	 4.9932410805733536e+00 
4.5987939999999999e-01,	 2.1901599999999999e-01,	 1.1597993956222583e-02,	 1.7359447849279675e+03,	 6.3611631188570134e-02,	 3.0009277084867995e+02,	 1.0013095288186978e+03,	 3.4766162305160969e+02,	 4.9932022144295063e+00 
4.6415990000000001e-01,	 2.1953619999999999e-01,	 1.1598283556355768e-02,	 1.7359421313218045e+03,	 2.4851895599838934e-02,	 3.0009725291237191e+02,	 1.0013494868900094e+03,	 3.4766421930828574e+02,	 4.9931572911170834e+00 
4.6844029999999998e-01,	 2.2005649999999999e-01,	 1.1598659699492267e-02,	 1.7359392996382126e+03,	 -1.3162366193691058e-02,	 3.0010223679756655e+02,	 1.0013985921042517e+03,	 3.4766710622468452e+02,	 4.9931076843555022e+00 
4.7272080000000000e-01,	 2.2057669999999999e-01,	 1.1598989392834116e-02,	 1.7359361707692865e+03,	 -5.0874997194847622e-02,	 3.0010754284224925e+02,	 1.0014447630052285e+03,	 3.4767017972567868e+02,	 4.9930545463648430e+00 
4.7700120000000001e-01,	 2.2109689999999999e-01,	 1.1599381149653795e-02,	 1.7359330344026632e+03,	 -8.7889004580131602e-02,	 3.0011304800771586e+02,	 1.0014969579832141e+03,	 3.4767336853771525e+02,	 4.9929997339995529e+00 
4.8128169999999998e-01,	 2.2161709999999998e-01,	 1.1599804660837675e-02,	 1.7359297473946626e+03,	 -1.2386242305838521e-01,	 3.0011872266500268e+02,	 1.0015524615677084e+03,	 3.4767665549558188e+02,	 4.9929430819540626e+00 
4.8556210000000000e-01,	 2.2213739999999998e-01,	 1.1600275032475973e-02,	 1.7359265724785600e+03,	 -1.5831983149976431e-01,	 3.0012441986465001e+02,	 1.0016120878766069e+03,	 3.4767995547950358e+02,	 4.9928865680622554e+00 
4.8984260000000002e-01,	 2.2265759999999998e-01,	 1.1600643310654109e-02,	 1.7359233006450263e+03,	 -1.9135073882231529e-01,	 3.0013012502547849e+02,	 1.0016629269903685e+03,	 3.4768326004338621e+02,	 4.9928297122349159e+00 
4.9412299999999998e-01,	 2.2317779999999998e-01,	 1.1601073669815980e-02,	 1.7359201976851964e+03,	 -2.2248903120740834e-01,	 3.0013564775624366e+02,	 1.0017185189563604e+03,	 3.4768645890955037e+02,	 4.9927748621201067e+00 
4.9840350000000000e-01,	 2.2369809999999998e-01,	 1.1601496484451669e-02,	 1.7359173595081434e+03,	 -2.5135613262759560e-01,	 3.0014084590698906e+02,	 1.0017723774879415e+03,	 3.4768946974617324e+02,	 4.9927234752702567e+00 
5.0268389999999996e-01,	 2.2421829999999998e-01,	 1.1601816095387808e-02,	 1.7359146574325978e+03,	 -2.7797342180433704e-01,	 3.0014567807245038e+02,	 1.0018161040668671e+03,	 3.4769226857596885e+02,	 4.9926755253959998e+00 
5.0696430000000003e-01,	 2.2473849999999998e-01,	 1.1602111426031587e-02,	 1.7359123319496421e+03,	 -3.0198281700645335e-01,	 3.0015001948952465e+02,	 1.0018560968538430e+03,	 3.4769478314106721e+02,	 4.9926327410903824e+00 
5.1124480000000005e-01,	 2.2525869999999998e-01,	 1.1602370303536304e-02,	 1.7359103031861409e+03,	 -3.2323329401108375e-01,	 3.0015375446249328e+02,	 1.0018909182958445e+03,	 3.4769694643690622e+02,	 4.9925958541450539e+00 
5.1552520000000002e-01,	 2.2577899999999998e-01,	 1.1602604759388249e-02,	 1.7359088203996780e+03,	 -3.4134467499891769e-01,	 3.0015675105651121e+02,	 1.0019211666991420e+03,	 3.4769868205402543e+02,	 4.9925666778642679e+00 
5.1980570000000004e-01,	 2.2629919999999998e-01,	 1.1602664982968728e-02,	 1.7359076337865004e+03,	 -3.5655924785460996e-01,	 3.0015905061426849e+02,	 1.0019340431412404e+03,	 3.4770001394422496e+02,	 4.9925441495207608e+00 
5.2408610000000000e-01,	 2.2681939999999998e-01,	 1.1602734582528121e-02,	 1.7359069686800851e+03,	 -3.6856958734071377e-01,	 3.0016051675217517e+02,	 1.0019449473396519e+03,	 3.4770086311993208e+02,	 4.9925300507777592e+00 
5.2836660000000002e-01,	 2.2733969999999998e-01,	 1.1602732693409799e-02,	 1.7359069026659804e+03,	 -3.7722234042560154e-01,	 3.0016108209428972e+02,	 1.0019466713352272e+03,	 3.4770119056114714e+02,	 4.9925251646412470e+00 
5.3264699999999998e-01,	 2.2785989999999998e-01,	 1.1602581404323260e-02,	 1.7359072200512821e+03,	 -3.8281460886378049e-01,	 3.0016080993001140e+02,	 1.0019326983808231e+03,	 3.4770103292601272e+02,	 4.9925283444043300e+00 
5.3692750000000000e-01,	 2.2838010000000000e-01,	 1.1613647753369719e-02,	 1.7358644490837191e+03,	 -3.7191895045058021e-01,	 3.0019485801339135e+02,	 1.0030020855521392e+03,	 3.4772075271898314e+02,	 4.9921221996475929e+00 
5.4120789999999996e-01,	 2.2890030000000000e-01,	 1.1634435998682717e-02,	 1.7358733947215906e+03,	 -5.4236105101448095e-01,	 3.0025617072916691e+02,	 1.0050026662824256e+03,	 3.4775626068093254e+02,	 4.9916383275199925e+00 
2.1455240000000000e-01,	 1.9405780000000000e-01,	 1.1582098533358003e-02,	 1.7359866148676301e+03,	 1.9227643813884909e-01,	 3.0000986352794752e+02,	 9.9966094702716123e+02,	 3.4761359509565580e+02,	 4.9940124609859220e+00 
2.1884200000000001e-01,	 1.9455639999999999e-01,	 1.1584066071991223e-02,	 1.7359686147780437e+03,	 2.6298582790095537e-01,	 3.0004484859714864e+02,	 9.9994736031771470e+02,	 3.4763386264788915e+02,	 4.9936695507034914e+00 
2.2313150000000001e-01,	 1.9505499999999998e-01,	 1.1587104310677259e-02,	 1.7359390546791969e+03,	 3.7202343587465725e-01,	 3.0009543578900434e+02,	 1.0003782580181100e+03,	 3.4766316673328350e+02,	 4.9931636729136741e+00 
2.2742100000000001e-01,	 1.9555349999999999e-01,	 1.1590316147299405e-02,	 1.7359107542552117e+03,	 4.8533641670404715e-01,	 3.0014453046949416e+02,	 1.0008192576253402e+03,	 3.4769160387698128e+02,	 4.9926739752854274e+00 
2.3171050000000001e-01,	 1.9605209999999998e-01,	 1.1593526913960879e-02,	 1.7358842689456633e+03,	 5.9889615596025525e-01,	 3.0019081036457402e+02,	 1.0012508671730208e+03,	 3.4771840848123173e+02,	 4.9922130376704423e+00 
2.3599999999999999e-01,	 1.9655059999999999e-01,	 1.1596670387405968e-02,	 1.7358601406871592e+03,	 7.0934119690528719e-01,	 3.0023321234787454e+02,	 1.0016638118627798e+03,	 3.4774296524484890e+02,	 4.9917912340724726e+00 
2.4028949999999999e-01,	 1.9704919999999998e-01,	 1.1599685962502439e-02,	 1.7358386107383139e+03,	 8.1426479063346136e-01,	 3.0027109543461637e+02,	 1.0020507041990131e+03,	 3.4776490345961651e+02,	 4.9914145575120399e+00 
2.4457899999999999e-01,	 1.9754769999999999e-01,	 1.1602558147821842e-02,	 1.7358197726104740e+03,	 9.1266277663449413e-01,	 3.0030443264137466e+02,	 1.0024100997770111e+03,	 3.4778420799624263e+02,	 4.9910834725423667e+00 
2.4886849999999999e-01,	 1.9804629999999998e-01,	 1.1605222967137400e-02,	 1.7358035822168144e+03,	 1.0035096414754840e+00,	 3.0033322504785565e+02,	 1.0027364590119088e+03,	 3.4780087991844772e+02,	 4.9907978171311278e+00 
2.5315799999999999e-01,	 1.9854479999999999e-01,	 1.1607677526633940e-02,	 1.7357898966962862e+03,	 1.0861817880391920e+00,	 3.0035753713027168e+02,	 1.0030297315559631e+03,	 3.4781495693663015e+02,	 4.9905566219084525e+00 
2.5744760000000000e-01,	 1.9904339999999998e-01,	 1.1609930212959833e-02,	 1.7357787068623795e+03,	 1.1604725127535351e+00,	 3.0037758158805514e+02,	 1.0032913386888379e+03,	 3.4782656251506103e+02,	 4.9903580745361511e+00 
2.6173710000000000e-01,	 1.9954189999999999e-01,	 1.1611940699327359e-02,	 1.7357699459376406e+03,	 1.2262720838912824e+00,	 3.0039366822260354e+02,	 1.0035188184786711e+03,	 3.4783587626586660e+02,	 4.9901993944236764e+00 
2.6602660000000000e-01,	 2.0004049999999998e-01,	 1.1613726880197463e-02,	 1.7357629004994378e+03,	 1.2837105960713542e+00,	 3.0040612378261983e+02,	 1.0037147989502444e+03,	 3.4784308754589870e+02,	 4.9900758052708394e+00 
2.7031610000000000e-01,	 2.0053900000000000e-01,	 1.1615291316006976e-02,	 1.7357578767097716e+03,	 1.3330289703385014e+00,	 3.0041526025245139e+02,	 1.0038805359267194e+03,	 3.4784837710802827e+02,	 4.9899855880053714e+00 
2.7460560000000001e-01,	 2.0103759999999998e-01,	 1.1616658004902759e-02,	 1.7357546142196393e+03,	 1.3745485756951481e+00,	 3.0042138868322741e+02,	 1.0040191368619795e+03,	 3.4785192511991363e+02,	 4.9899254054019764e+00 
2.7889510000000001e-01,	 2.0153610000000000e-01,	 1.1617798342671667e-02,	 1.7357529028462163e+03,	 1.4084968561599598e+00,	 3.0042483343762882e+02,	 1.0041292090335123e+03,	 3.4785391942035346e+02,	 4.9898919558217534e+00 
2.8318460000000001e-01,	 2.0203469999999998e-01,	 1.1618737176886794e-02,	 1.7357524568689182e+03,	 1.4352841472177456e+00,	 3.0042588229016047e+02,	 1.0042138586393830e+03,	 3.4785452663904010e+02,	 4.9898820264145725e+00 
2.8747410000000001e-01,	 2.0253320000000000e-01,	 1.1619512609455771e-02,	 1.7357532953455984e+03,	 1.4553802406174010e+00,	 3.0042479462189613e+02,	 1.0042772437838594e+03,	 3.4785389694850079e+02,	 4.9898935177090538e+00 
2.9176360000000001e-01,	 2.0303179999999998e-01,	 1.1620087309469701e-02,	 1.7357551848515493e+03,	 1.4690425068333723e+00,	 3.0042184000549355e+02,	 1.0043170378932413e+03,	 3.4785218640833392e+02,	 4.9899235201875838e+00 
2.9605310000000001e-01,	 2.0353030000000000e-01,	 1.1620501684132367e-02,	 1.7357579990463296e+03,	 1.4767338935912400e+00,	 3.0041725137258027e+02,	 1.0043375115907284e+03,	 3.4784952985698857e+02,	 4.9899697376092123e+00 
3.0034270000000002e-01,	 2.0402889999999999e-01,	 1.1620758847634617e-02,	 1.7357615589053216e+03,	 1.4788627000007661e+00,	 3.0041124935503501e+02,	 1.0043396716948133e+03,	 3.4784605500759181e+02,	 4.9900298247171868e+00 
3.0463220000000002e-01,	 2.0452740000000000e-01,	 1.1620891722869477e-02,	 1.7357658610429412e+03,	 1.4758856283495154e+00,	 3.0040402512833299e+02,	 1.0043270031893371e+03,	 3.4784187251796817e+02,	 4.9901021861897874e+00 
3.0892170000000002e-01,	 2.0502599999999999e-01,	 1.1620874511713297e-02,	 1.7357707700006181e+03,	 1.4680648976590309e+00,	 3.0039577690775695e+02,	 1.0042979398710319e+03,	 3.4783709712226022e+02,	 4.9901847881794472e+00 
3.1321120000000002e-01,	 2.0552460000000000e-01,	 1.1620734129677665e-02,	 1.7357761062096665e+03,	 1.4558489984973355e+00,	 3.0038667321732339e+02,	 1.0042553722521178e+03,	 3.4783182636699536e+02,	 4.9902757170670675e+00 
3.1750070000000002e-01,	 2.0602309999999999e-01,	 1.1620511420394258e-02,	 1.7357825557896986e+03,	 1.4397439795110876e+00,	 3.0037559033669834e+02,	 1.0041990742041539e+03,	 3.4782540961400446e+02,	 4.9903862826276191e+00 
3.2179020000000003e-01,	 2.0652170000000000e-01,	 1.1620168351471311e-02,	 1.7357886569863172e+03,	 1.4200878080126154e+00,	 3.0036495039784052e+02,	 1.0041338577263319e+03,	 3.4781924920353163e+02,	 4.9904921647203384e+00 
3.2607969999999997e-01,	 2.0702019999999999e-01,	 1.1619743955968263e-02,	 1.7357943878993206e+03,	 1.3967912649788525e+00,	 3.0035531690958760e+02,	 1.0040649804100589e+03,	 3.4781367142304515e+02,	 4.9905886183121115e+00 
3.3036919999999997e-01,	 2.0751879999999998e-01,	 1.1619238870307941e-02,	 1.7358007455483762e+03,	 1.3687017726469000e+00,	 3.0034430676893419e+02,	 1.0039845313689403e+03,	 3.4780729645259692e+02,	 4.9906983058492651e+00 
3.3465869999999998e-01,	 2.0801729999999999e-01,	 1.1618689088826840e-02,	 1.7358073525986688e+03,	 1.3395905231699403e+00,	 3.0033300396067716e+02,	 1.0038992453569673e+03,	 3.4780075190342478e+02,	 4.9908111469172978e+00 
3.3894829999999998e-01,	 2.0851589999999998e-01,	 1.1618051869349898e-02,	 1.7358140820284545e+03,	 1.3103703581845134e+00,	 3.0032148435785734e+02,	 1.0038056836048263e+03,	 3.4779408169920322e+02,	 4.9909261484517042e+00 
3.4323779999999998e-01,	 2.0901439999999999e-01,	 1.1617367691491597e-02,	 1.7358207648275315e+03,	 1.2774907413636982e+00,	 3.0030989106368736e+02,	 1.0037078227093367e+03,	 3.4778736869626636e+02,	 4.9910416281766112e+00 
3.4752729999999998e-01,	 2.0951299999999998e-01,	 1.1616657415305830e-02,	 1.7358275102228656e+03,	 1.2427772569343585e+00,	 3.0029829106066381e+02,	 1.0036076892216305e+03,	 3.4778065167893266e+02,	 4.9911573479729681e+00 
3.5181679999999999e-01,	 2.1001149999999999e-01,	 1.1615892205812512e-02,	 1.7358342024524188e+03,	 1.2064828111130401e+00,	 3.0028676398632166e+02,	 1.0035030584725957e+03,	 3.4777397676266190e+02,	 4.9912723139629414e+00 
3.5610629999999999e-01,	 2.1051009999999998e-01,	 1.1615101710332740e-02,	 1.7358408289113745e+03,	 1.1689004107939605e+00,	 3.0027536355079530e+02,	 1.0033966715877709e+03,	 3.4776737505238549e+02,	 4.9913860442303930e+00 
3.6039579999999999e-01,	 2.1100859999999999e-01,	 1.1614284029502564e-02,	 1.7358472650316719e+03,	 1.1302640243947564e+00,	 3.0026414583185669e+02,	 1.0032885520305330e+03,	 3.4776087902643974e+02,	 4.9914977149417963e+00 
3.6468529999999999e-01,	 2.1150719999999998e-01,	 1.1613477542083271e-02,	 1.7358536501871868e+03,	 1.0908537909426037e+00,	 3.0025314266970838e+02,	 1.0031821215069790e+03,	 3.4775450712947878e+02,	 4.9916074626193989e+00 
3.6897479999999999e-01,	 2.1200569999999999e-01,	 1.1612635578657065e-02,	 1.7358598827846615e+03,	 1.0506619660299330e+00,	 3.0024241752434062e+02,	 1.0030735605742418e+03,	 3.4774829611880398e+02,	 4.9917144674034359e+00 
3.7326429999999999e-01,	 2.1250429999999998e-01,	 1.1611794403126636e-02,	 1.7358658429950233e+03,	 1.0099408542982702e+00,	 3.0023200879577098e+02,	 1.0029661299252350e+03,	 3.4774226824135371e+02,	 4.9918180656315929e+00 
3.7755379999999999e-01,	 2.1300279999999999e-01,	 1.1610978339208551e-02,	 1.7358716669755956e+03,	 9.6887074308039245e-01,	 3.0022194411772500e+02,	 1.0028620225158407e+03,	 3.4773643951023462e+02,	 4.9919184190370265e+00 
3.8184340000000000e-01,	 2.1350139999999998e-01,	 1.1610153003251487e-02,	 1.7358772614998518e+03,	 9.2741317609501028e-01,	 3.0021228057477254e+02,	 1.0027584588730294e+03,	 3.4773084299551198e+02,	 4.9920147844435698e+00 
3.8613290000000000e-01,	 2.1399989999999999e-01,	 1.1609344015564859e-02,	 1.7358825859713602e+03,	 8.8567915633717087e-01,	 3.0020305488435122e+02,	 1.0026577741569150e+03,	 3.4772549997332118e+02,	 4.9921067395097856e+00 
3.9042240000000000e-01,	 2.1449849999999998e-01,	 1.1608557354677633e-02,	 1.7358875640929614e+03,	 8.4376042891126235e-01,	 3.0019430838957516e+02,	 1.0025606223346172e+03,	 3.4772043439958247e+02,	 4.9921937206626144e+00 
3.9471190000000000e-01,	 2.1499699999999999e-01,	 1.1607818598397421e-02,	 1.7358923072114540e+03,	 8.0173563045311558e-01,	 3.0018606816405998e+02,	 1.0024693022635173e+03,	 3.4771566196656374e+02,	 4.9922758225436139e+00 
3.9900140000000001e-01,	 2.1549559999999998e-01,	 1.1607092502160420e-02,	 1.7358967387352732e+03,	 7.5946465316091816e-01,	 3.0017839297240050e+02,	 1.0023809658147711e+03,	 3.4771121672127958e+02,	 4.9923523354778023e+00 
4.0329090000000001e-01,	 2.1599420000000000e-01,	 1.1606405463032401e-02,	 1.7359007294983492e+03,	 7.1702545176847343e-01,	 3.0017131739328067e+02,	 1.0022980075910874e+03,	 3.4770711870360014e+02,	 4.9924225999646126e+00 
4.0758040000000001e-01,	 2.1649269999999998e-01,	 1.1605786709818131e-02,	 1.7359044187806253e+03,	 6.7447457232483810e-01,	 3.0016486595797528e+02,	 1.0022230329727151e+03,	 3.4770338213400680e+02,	 4.9924868120580612e+00 
4.1186990000000001e-01,	 2.1699130000000000e-01,	 1.1605198599687262e-02,	 1.7359077188987221e+03,	 6.3163876952913656e-01,	 3.0015909287397398e+02,	 1.0021529716300274e+03,	 3.4770003842074772e+02,	 4.9925442680401133e+00 
4.1615940000000001e-01,	 2.1748979999999998e-01,	 1.1604665987541507e-02,	 1.7359105974463680e+03,	 5.8852565626603759e-01,	 3.0015402827191849e+02,	 1.0020900699384839e+03,	 3.4769710502675878e+02,	 4.9925946236356413e+00 
4.2044900000000002e-01,	 2.1798840000000000e-01,	 1.1604193605814722e-02,	 1.7359129829086723e+03,	 5.4515443180979761e-01,	 3.0014970230784689e+02,	 1.0020348366550554e+03,	 3.4769459942886226e+02,	 4.9926374219260499e+00 
4.2473850000000002e-01,	 2.1848689999999998e-01,	 1.1603805582642518e-02,	 1.7359149985023450e+03,	 5.0156191824465868e-01,	 3.0014612299433230e+02,	 1.0019893814684532e+03,	 3.4769252627723267e+02,	 4.9926729502863445e+00 
4.2902800000000002e-01,	 2.1898550000000000e-01,	 1.1603461307797387e-02,	 1.7359165926719484e+03,	 4.5756774986221005e-01,	 3.0014332500418539e+02,	 1.0019503129514286e+03,	 3.4769090566237981e+02,	 4.9927007715939382e+00 
4.3331750000000002e-01,	 2.1948399999999998e-01,	 1.1603181276703603e-02,	 1.7359176216495935e+03,	 4.1326695146975412e-01,	 3.0014127936267778e+02,	 1.0019193037967804e+03,	 3.4768972080817667e+02,	 4.9927207131906925e+00 
4.3760700000000002e-01,	 2.1998260000000000e-01,	 1.1602999803490536e-02,	 1.7359182946855651e+03,	 3.6879543607384913e-01,	 3.0014007230084655e+02,	 1.0018996045244191e+03,	 3.4768902166506990e+02,	 4.9927326596266051e+00 
4.4189650000000003e-01,	 2.2048109999999999e-01,	 1.1602860581614438e-02,	 1.7359185159182232e+03,	 3.2402041323350289e-01,	 3.0013959648726143e+02,	 1.0018859946510491e+03,	 3.4768874606837232e+02,	 4.9927372277304318e+00 
4.4618600000000003e-01,	 2.2097970000000000e-01,	 1.1602789882889477e-02,	 1.7359183189577852e+03,	 2.7911069863441651e-01,	 3.0013986135134240e+02,	 1.0018807740727907e+03,	 3.4768889948071939e+02,	 4.9927344358387868e+00 
4.5047549999999997e-01,	 2.2147819999999999e-01,	 1.1602781569350023e-02,	 1.7359176544480936e+03,	 2.3418870827241078e-01,	 3.0014083078761735e+02,	 1.0018832922340018e+03,	 3.4768946098887403e+02,	 4.9927244424028592e+00 