TITLE = "Final State"
VARIABLES = "X", "Y", "rho", "u", "v", "T", "p", "c", "M"
ZONE I=102, J=27, DATAPACKING=POINT, STRANDID=13000, SOLUTIONTIME=0.000314
1.1564880000000000e+00,	 2.6474300000000001e-01,	 4.4316465327776368e-02,	 1.5331189970094310e+03,	 -3.1124031696675399e+01,	 8.2607970306691925e+02,	 1.0532149204137182e+04,	 5.7681953801681925e+02,	 2.6584309125135381e+00 
1.1578960000000000e+00,	 2.6471329999999998e-01,	 4.4015139794933433e-02,	 1.5346801077470950e+03,	 -3.1104042886207978e+01,	 8.2387592684487936e+02,	 1.0432630747415000e+04,	 5.7604961829265665e+02,	 2.6646928083309773e+00 
1.1593150000000001e+00,	 2.6468330000000001e-01,	 4.3603500024457918e-02,	 1.5370635321888890e+03,	 -3.1138579183055615e+01,	 8.2085584978816871e+02,	 1.0297177194715712e+04,	 5.7499283812536521e+02,	 2.6737357548185896e+00 
1.1607460000000001e+00,	 2.6465299999999997e-01,	 4.3182155899370758e-02,	 1.5395169689903714e+03,	 -3.1147684912048074e+01,	 8.1774205437291880e+02,	 1.0158991371099921e+04,	 5.7390122672630287e+02,	 2.6830959001655224e+00 
1.1621870000000001e+00,	 2.6462259999999999e-01,	 4.2753991643887844e-02,	 1.5420375734954935e+03,	 -3.1121451118719314e+01,	 8.1454328441351242e+02,	 1.0018916865148147e+04,	 5.7277765923233358e+02,	 2.6927579379509283e+00 
1.1636400000000000e+00,	 2.6459189999999999e-01,	 4.2310805379336180e-02,	 1.5446352779917102e+03,	 -3.1150543015581750e+01,	 8.1122167379550820e+02,	 9.8746287109675322e+03,	 5.7160860662131506e+02,	 2.7028098133747722e+00 
1.1651050000000001e+00,	 2.6456089999999999e-01,	 4.1859060964617334e-02,	 1.5472948933481657e+03,	 -3.1184349785941933e+01,	 8.0781134464543288e+02,	 9.7281300297995185e+03,	 5.7040583638115311e+02,	 2.7131719367621541e+00 
1.1665810000000001e+00,	 2.6452969999999998e-01,	 4.1403371485491142e-02,	 1.5500030853072444e+03,	 -3.1183739081409843e+01,	 8.0433876049807270e+02,	 9.5808632686643396e+03,	 5.6917849809791846e+02,	 2.7237795239995197e+00 
1.1680690000000000e+00,	 2.6449829999999996e-01,	 4.0941055546100759e-02,	 1.5527665124003033e+03,	 -3.1197961859420012e+01,	 8.0078706109340794e+02,	 9.4320483918300797e+03,	 5.6792045384998539e+02,	 2.7346785676302710e+00 
1.1695679999999999e+00,	 2.6446660000000000e-01,	 4.0469404223859903e-02,	 1.5555865697092256e+03,	 -3.1252432190134897e+01,	 7.9714584205642097e+02,	 9.2809948893030887e+03,	 5.6662780130504552e+02,	 2.7458950516488931e+00 
1.1710799999999999e+00,	 2.6443459999999996e-01,	 3.9994649722390509e-02,	 1.5584471719433673e+03,	 -3.1295644149278260e+01,	 7.9345130550958436e+02,	 9.1296076535852590e+03,	 5.6531319972784308e+02,	 2.7573411864790631e+00 
1.1726030000000001e+00,	 2.6440239999999998e-01,	 3.9519538008815899e-02,	 1.5613377672764279e+03,	 -3.1300085229089913e+01,	 7.8972290713980669e+02,	 8.9787634914062310e+03,	 5.6398344284907807e+02,	 2.7689668755979469e+00 
1.1741390000000000e+00,	 2.6436999999999999e-01,	 3.9042187683590968e-02,	 1.5642641782305659e+03,	 -3.1317722027785578e+01,	 7.8594661496428216e+02,	 8.8278944138428706e+03,	 5.6263340071756295e+02,	 2.7808118870430807e+00 
1.1756869999999999e+00,	 2.6433730000000000e-01,	 3.8558806741839868e-02,	 1.5672302433889242e+03,	 -3.1372053860457228e+01,	 7.8210627514601015e+02,	 8.6759950079160808e+03,	 5.6125713080376852e+02,	 2.7929163322428132e+00 
1.1772469999999999e+00,	 2.6430429999999999e-01,	 3.8074764914028732e-02,	 1.5702215788808558e+03,	 -3.1422985313116769e+01,	 7.7823271705041509e+02,	 8.5246518776390894e+03,	 5.5986552921317912e+02,	 2.8052021082915006e+00 
1.1788200000000000e+00,	 2.6427109999999998e-01,	 3.7592485425468530e-02,	 1.5732334776826201e+03,	 -3.1452692313554913e+01,	 7.7433723262098545e+02,	 8.3745430518254489e+03,	 5.5846255329905443e+02,	 2.8176425512738139e+00 
1.1804049999999999e+00,	 2.6423759999999996e-01,	 3.7106765518956100e-02,	 1.5762698763118074e+03,	 -3.1520290717635874e+01,	 7.7039668713755054e+02,	 8.2242715966266805e+03,	 5.5703975333620667e+02,	 2.8302917111715176e+00 
1.1820020000000000e+00,	 2.6420379999999999e-01,	 3.6622798569759862e-02,	 1.5793171848030297e+03,	 -3.1575494193970528e+01,	 7.6644004377072008e+02,	 8.0753183579192591e+03,	 5.5560747511090767e+02,	 2.8430733395644672e+00 
1.1836130000000000e+00,	 2.6416980000000001e-01,	 3.6142445488139288e-02,	 1.5823748752923752e+03,	 -3.1600561316704145e+01,	 7.6247339699133295e+02,	 7.9281556469930856e+03,	 5.5416785987545074e+02,	 2.8559764926489417e+00 
1.1852360000000000e+00,	 2.6413549999999997e-01,	 3.5660191740765700e-02,	 1.5854498556509106e+03,	 -3.1661570837841261e+01,	 7.5846930015880844e+02,	 7.7812903069611439e+03,	 5.5271084994873218e+02,	 2.8690697250461725e+00 
1.1868730000000001e+00,	 2.6410089999999997e-01,	 3.5179439874196555e-02,	 1.5885383665203321e+03,	 -3.1729713174137743e+01,	 7.5444347745240930e+02,	 7.6356421385876411e+03,	 5.5124205194782769e+02,	 2.8823186047330513e+00 
1.1885220000000001e+00,	 2.6406599999999997e-01,	 3.4701445613929488e-02,	 1.5916309303679752e+03,	 -3.1786322957528483e+01,	 7.5041099837861577e+02,	 7.4916364736750375e+03,	 5.4976689153664051e+02,	 2.8956787398077100e+00 
1.1901850000000000e+00,	 2.6403090000000001e-01,	 3.4228483985378436e-02,	 1.5947282235059838e+03,	 -3.1812081538214294e+01,	 7.4637912271618427e+02,	 7.3498264578768394e+03,	 5.4828798387393431e+02,	 2.9091381481602183e+00 
1.1918610000000001e+00,	 2.6399549999999999e-01,	 3.3755472364213002e-02,	 1.5978372582069774e+03,	 -3.1868169141874738e+01,	 7.4232221273643006e+02,	 7.2088598694055254e+03,	 5.4679585623824482e+02,	 2.9227635995458545e+00 
1.1935510000000000e+00,	 2.6395979999999997e-01,	 3.3285106619168239e-02,	 1.6009546992658561e+03,	 -3.1934518271133918e+01,	 7.3825246972070045e+02,	 7.0694365089469029e+03,	 5.4529490623512527e+02,	 2.9365269158761254e+00 
1.1952540000000000e+00,	 2.6392379999999999e-01,	 3.2817354528970916e-02,	 1.6040770409262877e+03,	 -3.2010651833340418e+01,	 7.3417394828692022e+02,	 6.9315837679356291e+03,	 5.4378656239576969e+02,	 2.9504156948271363e+00 
1.1969700000000001e+00,	 2.6388750000000000e-01,	 3.2353620964507349e-02,	 1.6071969320853350e+03,	 -3.2082686002564387e+01,	 7.3009903585199118e+02,	 6.7957063717843839e+03,	 5.4227536336973856e+02,	 2.9643926762663186e+00 
1.1987010000000000e+00,	 2.6385090000000000e-01,	 3.1896246858547653e-02,	 1.6103066664981000e+03,	 -3.2124355521777289e+01,	 7.2604236234638779e+02,	 6.6624119507926562e+03,	 5.4076673353807155e+02,	 2.9784137273755236e+00 
1.2004459999999999e+00,	 2.6381410000000000e-01,	 3.1443158346186717e-02,	 1.6134162343370094e+03,	 -3.2170038759848495e+01,	 7.2198581150117786e+02,	 6.5310763851150568e+03,	 5.3925392895102175e+02,	 2.9925362363654764e+00 
1.2022040000000001e+00,	 2.6377689999999998e-01,	 3.0990419238237144e-02,	 1.6165272753989007e+03,	 -3.2267725467906033e+01,	 7.1791369489715930e+02,	 6.4007317539623955e+03,	 5.3773103894393921e+02,	 3.0067992667404186e+00 
1.2039770000000001e+00,	 2.6373940000000001e-01,	 3.0546039950464853e-02,	 1.6196244719228707e+03,	 -3.2321512955488103e+01,	 7.1387201073143410e+02,	 6.2734321823945147e+03,	 5.3621525332251963e+02,	 3.0210758397902397e+00 
1.2057640000000001e+00,	 2.6370169999999998e-01,	 3.0107200072953866e-02,	 1.6227164370013493e+03,	 -3.2364633600899140e+01,	 7.0984249680985999e+02,	 6.1484026658223938e+03,	 5.3469975441051201e+02,	 3.0354215489842451e+00 
1.2075659999999999e+00,	 2.6366360000000000e-01,	 2.9669656660888347e-02,	 1.6258099395881050e+03,	 -3.2450637169323592e+01,	 7.0580162076070428e+02,	 6.0245568852861197e+03,	 5.3317565633140202e+02,	 3.0499024854323284e+00 
1.2093820000000000e+00,	 2.6362520000000000e-01,	 2.9238099335325604e-02,	 1.6288976970060846e+03,	 -3.2522070744543328e+01,	 7.0177596553054104e+02,	 5.9030649967445461e+03,	 5.3165295460813513e+02,	 3.0644470483428004e+00 
1.2112130000000001e+00,	 2.6358650000000000e-01,	 2.8811720399039342e-02,	 1.6319795229479876e+03,	 -3.2582925274370716e+01,	 6.9776391258770218e+02,	 5.7837249773588374e+03,	 5.3013104642794622e+02,	 3.0790589706529095e+00 
1.2130580000000000e+00,	 2.6354749999999999e-01,	 2.8390025972840290e-02,	 1.6350559570256441e+03,	 -3.2640483938993384e+01,	 6.9376259269806258e+02,	 5.6663918811230915e+03,	 5.2860884554687289e+02,	 3.0937464213120749e+00 
1.2149190000000001e+00,	 2.6350819999999997e-01,	 2.7973324003591558e-02,	 1.6381299151623737e+03,	 -3.2690729942700216e+01,	 6.8977022036100948e+02,	 5.5510923645196563e+03,	 5.2708566723719798e+02,	 3.1085194964099978e+00 
1.2167939999999999e+00,	 2.6346860000000000e-01,	 2.7559488988157903e-02,	 1.6412074840716332e+03,	 -3.2763781542092005e+01,	 6.8577260803612467e+02,	 5.4372741643505869e+03,	 5.2555606657073008e+02,	 3.1234241047774920e+00 
1.2186850000000000e+00,	 2.6342860000000001e-01,	 2.7149171475658609e-02,	 1.6442843775905958e+03,	 -3.2849755577200540e+01,	 6.8177700723565158e+02,	 5.3251134985426224e+03,	 5.2402277411864577e+02,	 3.1384370388283953e+00 
1.2205910000000000e+00,	 2.6338829999999996e-01,	 2.6745106417620304e-02,	 1.6473533555735987e+03,	 -3.2909477808842794e+01,	 6.7780239340639866e+02,	 5.2152768277411615e+03,	 5.2249307116918351e+02,	 3.1535002720898717e+00 
1.2225130000000000e+00,	 2.6334769999999996e-01,	 2.6346240056457235e-02,	 1.6504169211568196e+03,	 -3.2956358581986407e+01,	 6.7384153962475420e+02,	 5.1074763235650871e+03,	 5.2096419568904730e+02,	 3.1686360533569262e+00 
1.2244500000000000e+00,	 2.6330680000000001e-01,	 2.5950848752138260e-02,	 1.6534807506245495e+03,	 -3.3021772797428852e+01,	 6.6988085531537752e+02,	 5.0012558242257755e+03,	 5.1943088589199874e+02,	 3.1838893347868233e+00 
1.2264029999999999e+00,	 2.6326549999999999e-01,	 2.5559200299866948e-02,	 1.6565408151606648e+03,	 -3.3101354907612425e+01,	 6.6592598596452376e+02,	 4.8966962097107917e+03,	 5.1789529766414114e+02,	 3.1992402881899178e+00 
1.2283720000000000e+00,	 2.6322390000000001e-01,	 2.5174141834934598e-02,	 1.6595916714760297e+03,	 -3.3154245057940443e+01,	 6.6199507062601174e+02,	 4.7944563363046491e+03,	 5.1636448507166597e+02,	 3.2146339522228038e+00 
1.2303569999999999e+00,	 2.6318199999999997e-01,	 2.4793395402943806e-02,	 1.6626395450622856e+03,	 -3.3213977753519572e+01,	 6.5807298049696976e+02,	 4.6939666935168480e+03,	 5.1483257286293167e+02,	 3.2301205318508783e+00 
1.2323580000000001e+00,	 2.6313969999999998e-01,	 2.4416312007388336e-02,	 1.6656845782887658e+03,	 -3.3291036907630662e+01,	 6.5415705992755034e+02,	 4.5950689908159111e+03,	 5.1329850928718304e+02,	 3.2457082943069251e+00 
1.2343750000000000e+00,	 2.6309709999999997e-01,	 2.4045019775040890e-02,	 1.6687256836667566e+03,	 -3.3359485291168440e+01,	 6.5025875032568911e+02,	 4.4982260998207321e+03,	 5.1176677732697902e+02,	 3.2613666399242143e+00 
1.2364090000000001e+00,	 2.6305410000000001e-01,	 2.3677131796496942e-02,	 1.6717647808365218e+03,	 -3.3449582638964259e+01,	 6.4636707000645765e+02,	 4.4028942211697413e+03,	 5.1023306360552510e+02,	 3.2771286405718896e+00 
1.2384590000000000e+00,	 2.6301069999999999e-01,	 2.3315401524447159e-02,	 1.6747921572704765e+03,	 -3.3516285882024832e+01,	 6.4250397208359732e+02,	 4.3097160125507835e+03,	 5.0870604102118898e+02,	 3.2929184165923555e+00 
1.2405260000000000e+00,	 2.6296710000000001e-01,	 2.2960064198687919e-02,	 1.6778152828393186e+03,	 -3.3558364266498231e+01,	 6.3866372051244161e+02,	 4.2186673536594772e+03,	 5.0718349242644086e+02,	 3.3087647342049573e+00 
1.2426100000000000e+00,	 2.6292299999999996e-01,	 2.2606184514796804e-02,	 1.6808363817801801e+03,	 -3.3646916415286384e+01,	 6.3482098022291552e+02,	 4.1286538888703644e+03,	 5.0565536823535552e+02,	 3.3247409698018866e+00 
1.2447109999999999e+00,	 2.6287859999999996e-01,	 2.2259779568160394e-02,	 1.6838469434737569e+03,	 -3.3692311492810632e+01,	 6.3101125654645193e+02,	 4.0409911885018432e+03,	 5.0413580113705842e+02,	 3.3407347441994011e+00 
1.2468300000000001e+00,	 2.6283390000000001e-01,	 2.1916783445209025e-02,	 1.6868581158481152e+03,	 -3.3753168378716097e+01,	 6.2720502105642220e+02,	 3.9547249185109454e+03,	 5.0261303752549088e+02,	 3.3568484060432313e+00 
1.2489650000000001e+00,	 2.6278869999999999e-01,	 2.1575780656670467e-02,	 1.6898656267520812e+03,	 -3.3851979236389298e+01,	 6.2339842284134738e+02,	 3.8695650783685765e+03,	 5.0108550058651883e+02,	 3.3730863457585971e+00 
1.2511180000000000e+00,	 2.6274320000000001e-01,	 2.1242291530761234e-02,	 1.6928604327350863e+03,	 -3.3897353245390839e+01,	 6.1962732489684061e+02,	 3.7867084059915805e+03,	 4.9956760381124928e+02,	 3.3893306156376113e+00 
1.2532880000000000e+00,	 2.6269739999999997e-01,	 2.0912104380330185e-02,	 1.6958527929236075e+03,	 -3.3954292647724344e+01,	 6.1586147296135755e+02,	 3.7051919498595030e+03,	 4.9804720217727765e+02,	 3.4056865838262809e+00 
1.2554770000000000e+00,	 2.6265109999999997e-01,	 2.0584575034188261e-02,	 1.6988416185670915e+03,	 -3.4036984120294143e+01,	 6.1209781955943822e+02,	 3.6248719986258693e+03,	 4.9652303664646610e+02,	 3.4221625813291991e+00 
1.2576830000000001e+00,	 2.6260449999999996e-01,	 2.0262628632814254e-02,	 1.7018241347788946e+03,	 -3.4095553128803573e+01,	 6.0835532427082012e+02,	 3.5463617624362287e+03,	 4.9500278596667994e+02,	 3.4386991266100848e+00 
1.2599070000000001e+00,	 2.6255750000000000e-01,	 1.9944072809327598e-02,	 1.7048036756437075e+03,	 -3.4165104582689509e+01,	 6.0462089212883325e+02,	 3.4691808323196983e+03,	 4.9348114240455766e+02,	 3.4553417294187447e+00 
1.2621500000000001e+00,	 2.6251009999999997e-01,	 1.9629624361602101e-02,	 1.7077807667065072e+03,	 -3.4235430572001718e+01,	 6.0089891585804571e+02,	 3.3934647855619614e+03,	 4.9195989121491982e+02,	 3.4720795679956105e+00 
1.2644110000000000e+00,	 2.6246229999999998e-01,	 1.9319759166835350e-02,	 1.7107534749658898e+03,	 -3.4295718642983815e+01,	 5.9719532665191764e+02,	 3.3193117731457219e+03,	 4.9044147152555360e+02,	 3.4888917543828324e+00 
1.2666900000000001e+00,	 2.6241419999999999e-01,	 1.9014350995982233e-02,	 1.7137279232514052e+03,	 -3.4355383256304449e+01,	 5.9350455897408483e+02,	 3.2466502286641912e+03,	 4.8892361730362393e+02,	 3.5058078439711720e+00 
1.2689880000000000e+00,	 2.6236559999999998e-01,	 1.8711294720523956e-02,	 1.7167057647877416e+03,	 -3.4446861825621170e+01,	 5.8981541639449745e+02,	 3.1750450855928534e+03,	 4.8740170769549451e+02,	 3.5228668728138279e+00 
1.2713049999999999e+00,	 2.6231660000000001e-01,	 1.8413975684802641e-02,	 1.7196792239754695e+03,	 -3.4507120224454312e+01,	 5.8615392529001087e+02,	 3.1051971613522801e+03,	 4.8588649186650662e+02,	 3.5399736939232676e+00 
1.2736410000000000e+00,	 2.6226729999999998e-01,	 1.8121274760912034e-02,	 1.7226542415407202e+03,	 -3.4556857778069769e+01,	 5.8250851545489127e+02,	 3.0368333583990002e+03,	 4.8437322217259123e+02,	 3.5571760312890368e+00 
1.2759970000000000e+00,	 2.6221749999999999e-01,	 1.7830678089159727e-02,	 1.7256350088686072e+03,	 -3.4642206835956621e+01,	 5.7886032418878142e+02,	 2.9694196655098940e+03,	 4.8285404985171510e+02,	 3.5745432732037021e+00 
1.2783709999999999e+00,	 2.6216729999999999e-01,	 1.7544570043895244e-02,	 1.7286155038940697e+03,	 -3.4719408081278218e+01,	 5.7522822634817044e+02,	 2.9034400003879755e+03,	 4.8133681608655570e+02,	 3.5920047714474967e+00 
1.2807649999999999e+00,	 2.6211669999999998e-01,	 1.7262968982001307e-02,	 1.7315942582216360e+03,	 -3.4780865845370677e+01,	 5.7161412509516140e+02,	 2.8388887888234135e+03,	 4.7982233804023127e+02,	 3.6095516831190699e+00 
1.2831790000000001e+00,	 2.6206570000000001e-01,	 1.6985325917479623e-02,	 1.7345735846716166e+03,	 -3.4837517123983055e+01,	 5.6801141077056172e+02,	 2.7756255872827751e+03,	 4.7830785898484135e+02,	 3.6272107149888595e+00 
1.2856129999999999e+00,	 2.6201429999999998e-01,	 1.6710847148306222e-02,	 1.7375587280256595e+03,	 -3.4907941280168728e+01,	 5.6441048902005980e+02,	 2.7134603528950488e+03,	 4.7678932648228158e+02,	 3.6450256964106309e+00 
1.2880670000000001e+00,	 2.6196239999999998e-01,	 1.6439309377078347e-02,	 1.7405484186870349e+03,	 -3.4994144471176767e+01,	 5.6081215160010936e+02,	 2.6523505441453435e+03,	 4.7526703717075264e+02,	 3.6629937063439333e+00 
1.2905409999999999e+00,	 2.6191009999999998e-01,	 1.6172488434208415e-02,	 1.7435390370528846e+03,	 -3.5059763103532603e+01,	 5.5723136100851968e+02,	 2.5926407168664964e+03,	 4.7374731529025769e+02,	 3.6810583254816378e+00 
1.2930349999999999e+00,	 2.6185739999999996e-01,	 1.5909759490394783e-02,	 1.7465327956557744e+03,	 -3.5114549683885954e+01,	 5.5366290529148466e+02,	 2.5341888700422292e+03,	 4.7222796295394153e+02,	 3.6992425081718596e+00 
1.2955500000000000e+00,	 2.6180429999999999e-01,	 1.5650346070347026e-02,	 1.7495359588308922e+03,	 -3.5178754867064200e+01,	 5.5009611525570472e+02,	 2.4768086791892547e+03,	 4.7070441907241133e+02,	 3.7175975627081366e+00 
1.2980849999999999e+00,	 2.6175070000000000e-01,	 1.5393963613032075e-02,	 1.7525473306475244e+03,	 -3.5257479758855354e+01,	 5.4653046403477981e+02,	 2.4204424889290576e+03,	 4.6917641666470070e+02,	 3.7361254419610770e+00 
1.3006420000000001e+00,	 2.6169670000000000e-01,	 1.5141782323722305e-02,	 1.7555680243331665e+03,	 -3.5325492107991352e+01,	 5.4297246864447106e+02,	 2.3652919041319619e+03,	 4.6764671849522426e+02,	 3.7548074822619326e+00 
1.3032189999999999e+00,	 2.6164219999999999e-01,	 1.4892594618918897e-02,	 1.7585969850687552e+03,	 -3.5403951876175519e+01,	 5.3941571901673842e+02,	 2.3111274907330585e+03,	 4.6611253838655580e+02,	 3.7736666127898721e+00 
1.3058179999999999e+00,	 2.6158729999999997e-01,	 1.4647776561110961e-02,	 1.7616346114305175e+03,	 -3.5466984488340501e+01,	 5.3586794751790922e+02,	 2.2581845145012721e+03,	 4.6457718378229583e+02,	 3.7926778695009116e+00 
1.3084389999999999e+00,	 2.6153189999999998e-01,	 1.4406060719370867e-02,	 1.7646822507634161e+03,	 -3.5535743941801215e+01,	 5.3231981407323826e+02,	 2.2062148842570300e+03,	 4.6303658080091787e+02,	 3.8118802762436670e+00 
1.3110809999999999e+00,	 2.6147609999999999e-01,	 1.4168023929429254e-02,	 1.7677425518675475e+03,	 -3.5603675737105121e+01,	 5.2877185551384378e+02,	 2.1552991142450501e+03,	 4.6149091114257362e+02,	 3.8312803466771470e+00 
1.3137440000000000e+00,	 2.6141979999999998e-01,	 1.3932693345905352e-02,	 1.7708168599679329e+03,	 -3.5689242811539998e+01,	 5.2521771840946803e+02,	 2.1052534355528614e+03,	 4.5993734185986824e+02,	 3.8509081667643916e+00 
1.3164300000000000e+00,	 2.6136300000000001e-01,	 1.3701396270017796e-02,	 1.7739020476183314e+03,	 -3.5760210420247176e+01,	 5.2166914457014423e+02,	 2.0563162836049728e+03,	 4.5838095131422335e+02,	 3.8707159452402018e+00 
1.3191379999999999e+00,	 2.6130579999999998e-01,	 1.3473963707750263e-02,	 1.7770010549046178e+03,	 -3.5820732239575612e+01,	 5.1812248765052527e+02,	 2.0084348692927497e+03,	 4.5682010321090132e+02,	 3.8907264420911747e+00 
1.3218680000000000e+00,	 2.6124809999999998e-01,	 1.3249192755954629e-02,	 1.7801174419156962e+03,	 -3.5897932225075934e+01,	 5.1456658144769904e+02,	 1.9613763460465279e+03,	 4.5524981222000105e+02,	 3.9109941773238344e+00 
1.3246210000000000e+00,	 2.6118989999999997e-01,	 1.3028266511940303e-02,	 1.7832490289283558e+03,	 -3.5964315938391920e+01,	 5.1101116928233648e+02,	 1.9153447882166063e+03,	 4.5367430535455321e+02,	 3.9314804313208445e+00 
1.3273969999999999e+00,	 2.6113130000000001e-01,	 1.2810784268639443e-02,	 1.7864004932066264e+03,	 -3.6030212443859526e+01,	 5.0744905592389512e+02,	 1.8702432851641790e+03,	 4.5209032295179361e+02,	 3.9522274980529151e+00 
1.3301959999999999e+00,	 2.6107209999999997e-01,	 1.2595819906006615e-02,	 1.7895707078048110e+03,	 -3.6114365179719229e+01,	 5.0387430587736844e+02,	 1.8259067447046873e+03,	 4.5049512226600274e+02,	 3.9732618280315610e+00 
1.3330180000000000e+00,	 2.6101249999999998e-01,	 1.2385247813366567e-02,	 1.7927594216412726e+03,	 -3.6175489065946657e+01,	 5.0029898644366392e+02,	 1.7826425200538847e+03,	 4.4889399743340033e+02,	 3.9945385352835148e+00 
1.3358630000000000e+00,	 2.6095239999999997e-01,	 1.2176995017548650e-02,	 1.7959719718576569e+03,	 -3.6262855020566583e+01,	 4.9670370450627121e+02,	 1.7400729862162386e+03,	 4.4727815323858249e+02,	 4.0161541919378747e+00 
1.3387309999999999e+00,	 2.6089170000000000e-01,	 1.1971959210784484e-02,	 1.7992032508511634e+03,	 -3.6350881282054473e+01,	 4.9309878464282986e+02,	 1.6983574399811625e+03,	 4.4565209516185524e+02,	 4.0380611855970097e+00 
1.3416239999999999e+00,	 2.6083059999999997e-01,	 1.1771567322004843e-02,	 1.8024527721957127e+03,	 -3.6404460399722083e+01,	 4.8949430622145587e+02,	 1.6577226547021278e+03,	 4.4402028250943499e+02,	 4.0602207588701260e+00 
1.3445400000000001e+00,	 2.6076899999999997e-01,	 1.1573434619268361e-02,	 1.8057267779458946e+03,	 -3.6482959524692404e+01,	 4.8586667043527291e+02,	 1.6177421768376341e+03,	 4.4237190860983901e+02,	 4.0827531238096668e+00 
1.3474809999999999e+00,	 2.6070680000000002e-01,	 1.1378531732930321e-02,	 1.8090218412717390e+03,	 -3.6562160141026453e+01,	 4.8222513139107571e+02,	 1.5785778424833711e+03,	 4.4071101636806151e+02,	 4.1056184562110278e+00 
1.3504460000000000e+00,	 2.6064419999999999e-01,	 1.1187491230656738e-02,	 1.8123387861947554e+03,	 -3.6625620429163277e+01,	 4.7857371689193525e+02,	 1.5403218958096211e+03,	 4.3903931125171579e+02,	 4.1288075719137796e+00 
1.3534360000000001e+00,	 2.6058100000000001e-01,	 1.0998755246922854e-02,	 1.8156793925470797e+03,	 -3.6710812380731547e+01,	 4.7489901347984102e+02,	 1.5027084992592868e+03,	 4.3735049286194629e+02,	 4.1523915214147475e+00 
1.3564499999999999e+00,	 2.6051730000000001e-01,	 1.0813581308111381e-02,	 1.8190406880582086e+03,	 -3.6786704150916329e+01,	 4.7121277105630497e+02,	 1.4659411635172246e+03,	 4.3564979377014737e+02,	 4.1763192529447544e+00 
1.3594889999999999e+00,	 2.6045309999999999e-01,	 1.0631444320499782e-02,	 1.8224239658319520e+03,	 -3.6864016611010477e+01,	 4.6751052176008977e+02,	 1.4299261090093441e+03,	 4.3393500079678819e+02,	 4.2006216766718305e+00 
1.3625540000000000e+00,	 2.6038829999999996e-01,	 1.0452038452772573e-02,	 1.8258278867592262e+03,	 -3.6948223041050412e+01,	 4.6379149661989106e+02,	 1.3946130285593772e+03,	 4.3220558788730733e+02,	 4.2253079311879080e+00 
1.3656440000000001e+00,	 2.6032299999999997e-01,	 1.0276149471213997e-02,	 1.8292494444329984e+03,	 -3.7016479106945710e+01,	 4.6006479637116468e+02,	 1.3601266587051891e+03,	 4.3046563646352473e+02,	 4.2503368020600911e+00 
1.3687600000000000e+00,	 2.6025719999999997e-01,	 1.0103030538552230e-02,	 1.8326918679936423e+03,	 -3.7089661696529021e+01,	 4.5632211634264047e+02,	 1.3263346673311239e+03,	 4.2871111714329879e+02,	 4.2757630090599754e+00 
1.3719010000000000e+00,	 2.6019080000000000e-01,	 9.9320625022752181e-03,	 1.8361551151428632e+03,	 -3.7187108065836718e+01,	 4.5255907153124781e+02,	 1.2931373511336519e+03,	 4.2693978194677510e+02,	 4.3016175206922593e+00 
1.3750690000000001e+00,	 2.6012380000000002e-01,	 9.8142533319083812e-03,	 1.8384145263756400e+03,	 -3.7251960002883784e+01,	 4.4990857074143281e+02,	 1.2703151222072211e+03,	 4.2568771781230777e+02,	 4.3195794255263875e+00 
1.1564880000000000e+00,	 2.6548889999999997e-01,	 4.5072157111385645e-02,	 1.5412380102292582e+03,	 -2.7302023171786423e+01,	 8.1225331626944921e+02,	 1.0532458925153915e+04,	 5.7197195265486653e+02,	 2.6950269201966277e+00 
1.1578970000000000e+00,	 2.6545979999999997e-01,	 4.4762613308064275e-02,	 1.5427221616710131e+03,	 -2.7153830256787423e+01,	 8.1016853325397926e+02,	 1.0433277100941790e+04,	 5.7123745054881533e+02,	 2.7010853582661571e+00 
1.1593160000000000e+00,	 2.6543040000000001e-01,	 4.4342298451983217e-02,	 1.5449941442000609e+03,	 -2.7003847709831184e+01,	 8.0731680860209326e+02,	 1.0298930630338524e+04,	 5.7023121056456694e+02,	 2.7098308335676426e+00 
1.1607460000000001e+00,	 2.6540079999999999e-01,	 4.3908101289400432e-02,	 1.5473397832281889e+03,	 -2.6878179185448129e+01,	 8.0435201669143373e+02,	 1.0160632645929774e+04,	 5.6918318835376022e+02,	 2.7189369643691288e+00 
1.1621880000000000e+00,	 2.6537089999999997e-01,	 4.3465450428801219e-02,	 1.5497493689236878e+03,	 -2.6736287071350560e+01,	 8.0130276330606205e+02,	 1.0020070159488258e+04,	 5.6810329315344097e+02,	 2.7283418310583647e+00 
1.1636409999999999e+00,	 2.6534079999999999e-01,	 4.3012067942768559e-02,	 1.5522316053974894e+03,	 -2.6620547684019023e+01,	 7.9815236037272655e+02,	 9.8765681080388513e+03,	 5.6698541550474101e+02,	 2.7380948705815422e+00 
1.1651050000000001e+00,	 2.6531050000000000e-01,	 4.2548456171098599e-02,	 1.5547772010812723e+03,	 -2.6535801991495291e+01,	 7.9490582967509044e+02,	 9.7303716019454241e+03,	 5.6583111759804524e+02,	 2.7481762368254095e+00 
1.1665820000000000e+00,	 2.6527990000000001e-01,	 4.2078288051823898e-02,	 1.5573718348478510e+03,	 -2.6448837517647021e+01,	 7.9158793557946410e+02,	 9.5826839855830622e+03,	 5.6464900849715377e+02,	 2.7585214628012351e+00 
1.1680690000000000e+00,	 2.6524910000000002e-01,	 4.1603077552177639e-02,	 1.5600181937321199e+03,	 -2.6364060898861531e+01,	 7.8820222121275197e+02,	 9.4339387065378960e+03,	 5.6344017954599678e+02,	 2.7691332792707488e+00 
1.1695690000000001e+00,	 2.6521810000000001e-01,	 4.1120622026165052e-02,	 1.5627192003035998e+03,	 -2.6311015661194901e+01,	 7.8473738892468623e+02,	 9.2835473779374479e+03,	 5.6220041148035625e+02,	 2.7800418638517490e+00 
1.1710799999999999e+00,	 2.6518670000000000e-01,	 4.0632908735995343e-02,	 1.5654628286284490e+03,	 -2.6279020572280675e+01,	 7.8120858063512128e+02,	 9.1321882420629936e+03,	 5.6093493539402550e+02,	 2.7912031928637528e+00 
1.1726040000000000e+00,	 2.6515519999999998e-01,	 4.0143071179110777e-02,	 1.5682393607292890e+03,	 -2.6236212210411786e+01,	 7.7763435395301451e+02,	 8.9808195721385164e+03,	 5.5965025473076241e+02,	 2.8025696306152339e+00 
1.1741400000000000e+00,	 2.6512340000000001e-01,	 3.9652130530231443e-02,	 1.5710475120172878e+03,	 -2.6190642625510797e+01,	 7.7402447211369099e+02,	 8.8298058924408524e+03,	 5.5834975834047475e+02,	 2.8141246289819697e+00 
1.1756869999999999e+00,	 2.6509129999999997e-01,	 3.9157997445248109e-02,	 1.5738938157322416e+03,	 -2.6168861189920769e+01,	 7.7036323267256648e+02,	 8.6785257842553874e+03,	 5.5702765848328897e+02,	 2.8259123749024204e+00 
1.1772469999999999e+00,	 2.6505899999999999e-01,	 3.8661366018997785e-02,	 1.5767688760503975e+03,	 -2.6169055802806568e+01,	 7.6665681653999741e+02,	 8.5272330760320729e+03,	 5.5568604097990249e+02,	 2.8379082861917411e+00 
1.1788200000000000e+00,	 2.6502650000000000e-01,	 3.8165389881620736e-02,	 1.5796649888932536e+03,	 -2.6161452782727093e+01,	 7.6292502782596364e+02,	 8.3768647394163308e+03,	 5.5433195887449142e+02,	 2.8500640884925277e+00 
1.1804049999999999e+00,	 2.6499360000000000e-01,	 3.7668581919094508e-02,	 1.5825853014056245e+03,	 -2.6174055047237527e+01,	 7.5915942908766010e+02,	 8.2270132913956149e+03,	 5.5296224774297298e+02,	 2.8624046880998226e+00 
1.1820029999999999e+00,	 2.6496049999999999e-01,	 3.7171598266082961e-02,	 1.5855211559425761e+03,	 -2.6198505921353203e+01,	 7.5536386775155870e+02,	 8.0778796631319210e+03,	 5.5157819587881693e+02,	 2.8749098491205300e+00 
1.1836130000000000e+00,	 2.6492719999999997e-01,	 3.6677447051958398e-02,	 1.5884681967283934e+03,	 -2.6204175841292702e+01,	 7.5155476519607350e+02,	 7.9303009539128752e+03,	 5.5018570583139660e+02,	 2.8875419769453781e+00 
1.1852370000000001e+00,	 2.6489360000000001e-01,	 3.6184017642057295e-02,	 1.5914310116263619e+03,	 -2.6226010597174437e+01,	 7.4772101843061955e+02,	 7.7837040113841749e+03,	 5.4878063893088597e+02,	 2.9003339039437090e+00 
1.1868730000000001e+00,	 2.6485969999999998e-01,	 3.5691858751691889e-02,	 1.5944087256883679e+03,	 -2.6262616905595809e+01,	 7.4386258333042815e+02,	 7.6382139168246003e+03,	 5.4736288208953340e+02,	 2.9132867027110376e+00 
1.1885230000000000e+00,	 2.6482549999999999e-01,	 3.5201445631675460e-02,	 1.5973940907808465e+03,	 -2.6306734869338705e+01,	 7.3998668038734888e+02,	 7.4940112245250739e+03,	 5.4593499995544141e+02,	 2.9263752880317369e+00 
1.1901850000000000e+00,	 2.6479110000000000e-01,	 3.4715331453634049e-02,	 1.6003848160817447e+03,	 -2.6331275901545190e+01,	 7.3610711300752723e+02,	 7.3517760309380801e+03,	 5.4450201811860347e+02,	 2.9395693011105335e+00 
1.1918620000000000e+00,	 2.6475640000000000e-01,	 3.4231601794146450e-02,	 1.6033857918344634e+03,	 -2.6364881555973660e+01,	 7.3221382588299628e+02,	 7.2109931674892996e+03,	 5.4306016736787171e+02,	 2.9529003152504796e+00 
1.1935510000000000e+00,	 2.6472140000000000e-01,	 3.3750481229192456e-02,	 1.6063949296943176e+03,	 -2.6413017345930804e+01,	 7.2830783905485964e+02,	 7.0717173092186576e+03,	 5.4160975615130997e+02,	 2.9663647002518205e+00 
1.1952540000000000e+00,	 2.6468609999999998e-01,	 3.3272257627251320e-02,	 1.6094109164460974e+03,	 -2.6476685517945626e+01,	 7.2438986205467791e+02,	 6.9340117180461011e+03,	 5.4015098004521394e+02,	 2.9799606912626571e+00 
1.1969710000000000e+00,	 2.6465060000000001e-01,	 3.2797625440846766e-02,	 1.6124283919027766e+03,	 -2.6549537856805529e+01,	 7.2046694197694785e+02,	 6.7980819809606874e+03,	 5.3868640562209350e+02,	 2.9936655849772569e+00 
1.1987019999999999e+00,	 2.6461469999999998e-01,	 3.2327938238483733e-02,	 1.6154373318443256e+03,	 -2.6610459627380664e+01,	 7.1655471217345837e+02,	 6.6643423910766032e+03,	 5.3722184587985612e+02,	 3.0074288697542242e+00 
1.2004459999999999e+00,	 2.6457860000000000e-01,	 3.1864251723077303e-02,	 1.6184447845733284e+03,	 -2.6659349841188060e+01,	 7.1265169506321377e+02,	 6.5329748186900124e+03,	 5.3575674553183114e+02,	 3.0212673051382892e+00 
1.2022050000000000e+00,	 2.6454220000000001e-01,	 3.1403173582088301e-02,	 1.6214557271129738e+03,	 -2.6743004235883511e+01,	 7.0873866566367099e+02,	 6.4030899655906633e+03,	 5.3428385378694509e+02,	 3.0352334991393266e+00 