TITLE = "Final State"
VARIABLES = "X", "Y", "rho", "u", "v", "T", "p", "c", "M"
ZONE I=76, J=11, DATAPACKING=POINT, STRANDID=30000, SOLUTIONTIME=0.001079
2.5990999999999997e-01,	 3.2182030000000000e-02,	 5.7526967125228168e-01,	 1.2593854421660990e+02,	 4.5363968357647533e+00,	 6.0064801439339237e+02,	 9.9408028647784435e+04,	 4.9185717315253009e+02,	 2.5621303652148508e-01 
2.6220460000000001e-01,	 3.2237580000000002e-02,	 5.8238202259241856e-01,	 1.2917540284483670e+02,	 3.7246808363337047e+00,	 5.9343752835671216e+02,	 9.9428961873979206e+04,	 4.8889600691983071e+02,	 2.6432838296838662e-01 
2.6451950000000002e-01,	 3.2293630000000004e-02,	 5.9495294377969543e-01,	 1.3377063471463634e+02,	 2.3457701212836497e+00,	 5.8092577950878513e+02,	 9.9433609443211477e+04,	 4.8371472847250413e+02,	 2.7659112425718579e-01 
2.6685490000000001e-01,	 3.2350170000000004e-02,	 6.0750582469783609e-01,	 1.3793668704874841e+02,	 1.3249024730640140e+00,	 5.6902852792719386e+02,	 9.9452206665113568e+04,	 4.7873591159773048e+02,	 2.8814017604122544e-01 
2.6921119999999998e-01,	 3.2407220000000000e-02,	 6.2032679725668061e-01,	 1.4172361457242147e+02,	 6.0372061569129765e-01,	 5.5739852489614009e+02,	 9.9475537626481222e+04,	 4.7381836971225664e+02,	 2.9911229598537153e-01 
2.7158840000000001e-01,	 3.2464770000000004e-02,	 6.3352494939429482e-01,	 1.4515555691506637e+02,	 1.3923401888582884e-01,	 5.4592772333231642e+02,	 9.9501312527161965e+04,	 4.6891762986894383e+02,	 3.0955463059182342e-01 
2.7398679999999997e-01,	 3.2522840000000004e-02,	 6.4708298648639340e-01,	 1.4826041379486588e+02,	 -1.2142635166519693e-01,	 5.3462706021208066e+02,	 9.9526986714659433e+04,	 4.6403897091016302e+02,	 3.1950002653568244e-01 
2.7640670000000001e-01,	 3.2581430000000002e-02,	 6.6092264393881861e-01,	 1.5106535934322793e+02,	 -2.3146307465202276e-01,	 5.2355027485309733e+02,	 9.9549472002041162e+04,	 4.5920666466079376e+02,	 3.2897069727664846e-01 
2.7884829999999999e-01,	 3.2640540000000003e-02,	 6.7494849017245928e-01,	 1.5360119144564067e+02,	 -2.4582914429493785e-01,	 5.1275203963097113e+02,	 9.9565290275832333e+04,	 4.5444641826592022e+02,	 3.3799669661551845e-01 
2.8131180000000000e-01,	 3.2700180000000002e-02,	 6.8907859915717173e-01,	 1.5589258007450525e+02,	 -2.0944441294747523e-01,	 5.0227300507421614e+02,	 9.9572299566309157e+04,	 4.4977872113583078e+02,	 3.4659870163907192e-01 
2.8379739999999998e-01,	 3.2760360000000002e-02,	 7.0325346150971568e-01,	 1.5796239956010703e+02,	 -1.5748349263017142e-01,	 4.9213923537304686e+02,	 9.9570297821299042e+04,	 4.4521827399502109e+02,	 3.5479783128774461e-01 
2.8630549999999999e-01,	 3.2821080000000002e-02,	 7.1742270434990396e-01,	 1.5983855251469933e+02,	 -1.1634716331361272e-01,	 4.8236791147198846e+02,	 9.9559673509945627e+04,	 4.4077625570689514e+02,	 3.6262977596910345e-01 
2.8883609999999998e-01,	 3.2882350000000005e-02,	 7.3153890504950791e-01,	 1.6154885321319040e+02,	 -1.0951557458945033e-01,	 4.7297349791641500e+02,	 9.9541497972409474e+04,	 4.3646295624106403e+02,	 3.7013196200048037e-01 
2.9138969999999997e-01,	 3.2944170000000002e-02,	 7.4555253116406317e-01,	 1.6311943002093267e+02,	 -1.5122250896114631e-01,	 4.6397526266556531e+02,	 9.9518314685236168e+04,	 4.3229120485788161e+02,	 3.7733707807259681e-01 
2.9396630000000001e-01,	 3.3006550000000003e-02,	 7.5939708425252883e-01,	 1.6457768670741621e+02,	 -2.5119669955326829e-01,	 4.5539956762198187e+02,	 9.9492759552642528e+04,	 4.2827753417594442e+02,	 3.8427857003073562e-01 
2.9656640000000001e-01,	 3.3069500000000002e-02,	 7.7297948924096560e-01,	 1.6594628550568353e+02,	 -4.1854843028601052e-01,	 4.4728122276653164e+02,	 9.9466898013598868e+04,	 4.2444294559037149e+02,	 3.9097554820665148e-01 
2.9919000000000001e-01,	 3.3133020000000006e-02,	 7.8618014664140301e-01,	 1.6723916139639533e+02,	 -6.6639341966222854e-01,	 4.3966255381640718e+02,	 9.9442375000386484e+04,	 4.2081259095360838e+02,	 3.9742273084598062e-01 
3.0183749999999998e-01,	 3.3197120000000004e-02,	 7.9886777491492111e-01,	 1.6845392374395627e+02,	 -9.9846348941817264e-01,	 4.3259389923306844e+02,	 9.9422626195993420e+04,	 4.1741608626523333e+02,	 4.0357065364121730e-01 
3.0450909999999998e-01,	 3.3261800000000001e-02,	 8.1089373098350115e-01,	 1.6958314001873137e+02,	 -1.3972563862497740e+00,	 4.2613557577560880e+02,	 9.9412655093824607e+04,	 4.1428850454023160e+02,	 4.0934975098524823e-01 
3.0720510000000001e-01,	 3.3327070000000000e-02,	 8.2206290585516384e-01,	 1.7062834425860893e+02,	 -1.8354299873911140e+00,	 4.2035922340578588e+02,	 9.9415836335943852e+04,	 4.1147104266654156e+02,	 4.1470285399582835e-01 
3.0992570000000003e-01,	 3.3392940000000003e-02,	 8.3211642720799595e-01,	 1.7159708120527227e+02,	 -2.2918585966161449e+00,	 4.1534919097377917e+02,	 9.9432280932673762e+04,	 4.0901164311450657e+02,	 4.1957824061194821e-01 
3.1267119999999998e-01,	 3.3459410000000002e-02,	 8.4074072319158866e-01,	 1.7249774242189559e+02,	 -2.7505964258067443e+00,	 4.1120459772092420e+02,	 9.9460350038286808e+04,	 4.0696585001730904e+02,	 4.2391682522465324e-01 
3.1544190000000000e-01,	 3.3526490000000006e-02,	 8.4758841527926032e-01,	 1.7334073345411707e+02,	 -3.1908907207310948e+00,	 4.0804638480167534e+02,	 9.9500321526142434e+04,	 4.0540000881767179e+02,	 4.2765193998850864e-01 
3.1823800000000002e-01,	 3.3594180000000001e-02,	 8.5224416461895414e-01,	 1.7414825676249484e+02,	 -3.6042470714014376e+00,	 4.0601324502537562e+02,	 9.9548375009770083e+04,	 4.0438877064478237e+02,	 4.3073785163176137e-01 
3.2105970000000000e-01,	 3.3662500000000005e-02,	 8.5425568232767213e-01,	 1.7491899121294045e+02,	 -3.9896088756872006e+00,	 4.0526615551062969e+02,	 9.9599727529366297e+04,	 4.0401654914764896e+02,	 4.3306266490957407e-01 
3.2390750000000001e-01,	 3.3731440000000001e-02,	 8.5319221121749278e-01,	 1.7564698664670067e+02,	 -4.3324077134085659e+00,	 4.0599147907363925e+02,	 9.9653771189967068e+04,	 4.0437793106683648e+02,	 4.3449554331406504e-01 
3.2678140000000000e-01,	 3.3801020000000001e-02,	 8.4865337623211756e-01,	 1.7633419076402424e+02,	 -4.6170388582288826e+00,	 4.0839849205532244e+02,	 9.9711307390727787e+04,	 4.0557488293549881e+02,	 4.3492492471978150e-01 
3.2968190000000003e-01,	 3.3871250000000006e-02,	 8.4029305541203803e-01,	 1.7697612886525309e+02,	 -4.8297159778385108e+00,	 4.1271754449286601e+02,	 9.9773140577228856e+04,	 4.0771383819502762e+02,	 4.3423107581658005e-01 
3.3260909999999999e-01,	 3.3942120000000006e-02,	 8.2789168255293921e-01,	 1.7756801881632794e+02,	 -4.9611939700810863e+00,	 4.1918060303530007e+02,	 9.9840014412384611e+04,	 4.1089378808697990e+02,	 4.3231929402904840e-01 
3.3556350000000001e-01,	 3.4013640000000005e-02,	 8.1141974064470646e-01,	 1.7810427029449710e+02,	 -5.0025499101760893e+00,	 4.2800137020962427e+02,	 9.9912693272039134e+04,	 4.1519447552112035e+02,	 4.2913507321897781e-01 
3.3854509999999999e-01,	 3.4085830000000004e-02,	 7.9109672786561991e-01,	 1.7857851854482095e+02,	 -4.9461306021637625e+00,	 4.3934869652412908e+02,	 9.9992831829628820e+04,	 4.2066236360494082e+02,	 4.2468026125483521e-01 
3.4155439999999998e-01,	 3.4158690000000005e-02,	 7.6742349552515676e-01,	 1.7898957419648571e+02,	 -4.7936007783340013e+00,	 4.5330355290641091e+02,	 1.0008157975451213e+05,	 4.2729080585091947e+02,	 4.1904424348618491e-01 
3.4459160000000000e-01,	 3.4232220000000001e-02,	 7.4119555572507245e-01,	 1.7934769374270195e+02,	 -4.5525396951807657e+00,	 4.6980458094140374e+02,	 1.0017976098988164e+05,	 4.3499835052410054e+02,	 4.1242792018514751e-01 
3.4765710000000000e-01,	 3.4306430000000006e-02,	 7.1347787607783975e-01,	 1.7967685468243613e+02,	 -4.2395163702890697e+00,	 4.8858600035069480e+02,	 1.0028857652816939e+05,	 4.4360812909742629e+02,	 4.0514781428037638e-01 
3.5075099999999998e-01,	 3.4381340000000003e-02,	 6.8552780171767891e-01,	 1.8001733759412355e+02,	 -3.8847937084085320e+00,	 5.0911611238755927e+02,	 1.0040881728552168e+05,	 4.5283231086711362e+02,	 3.9762897993179225e-01 
3.5387370000000001e-01,	 3.4456940000000005e-02,	 6.5868113453548283e-01,	 1.8042551481122933e+02,	 -3.5348915155252136e+00,	 5.3056051539484270e+02,	 1.0054027962373289e+05,	 4.6227078755960088e+02,	 3.9037755378888117e-01 
3.5702560000000000e-01,	 3.4533250000000001e-02,	 6.3422109291098594e-01,	 1.8097976982094326e+02,	 -3.2481225725361798e+00,	 5.5180908770543874e+02,	 1.0068376972981860e+05,	 4.7143672471620295e+02,	 3.8395166459871832e-01 
3.6020679999999999e-01,	 3.4610270000000005e-02,	 6.1322255413393267e-01,	 1.8177398935655646e+02,	 -3.0808056400022243e+00,	 5.7159405292999497e+02,	 1.0084067840964260e+05,	 4.7981391351278620e+02,	 3.7889708896927987e-01 
3.6341780000000001e-01,	 3.4688010000000005e-02,	 5.9642470060632780e-01,	 1.8291219595356586e+02,	 -3.0812118057771585e+00,	 5.8869792073587837e+02,	 1.0101318400711927e+05,	 4.8693976018467197e+02,	 3.7568948163187904e-01 
3.6665870000000000e-01,	 3.4766470000000001e-02,	 5.8413945672848766e-01,	 1.8449691699378181e+02,	 -3.2897086367460133e+00,	 6.0220379078525229e+02,	 1.0120220263463035e+05,	 4.9249375638388403e+02,	 3.7467732569228440e-01 
3.6992999999999998e-01,	 3.4845670000000002e-02,	 5.7624184671139445e-01,	 1.8660880108440892e+02,	 -3.7309573739461852e+00,	 6.1170094132932854e+02,	 1.0140838816214031e+05,	 4.9636204020858804e+02,	 3.7602814000574292e-01 
3.7323200000000001e-01,	 3.4925620000000004e-02,	 5.7222846275650108e-01,	 1.8929953103561371e+02,	 -4.4034495477937678e+00,	 6.1735243164952897e+02,	 1.0163248778315943e+05,	 4.9864970692263017e+02,	 3.7972696580722370e-01 
3.7656479999999998e-01,	 3.5006310000000006e-02,	 5.7132162889198712e-01,	 1.9259186171335449e+02,	 -5.2924206241655254e+00,	 6.1980233871988366e+02,	 1.0187410676335233e+05,	 4.9963815029929890e+02,	 3.8560819601739693e-01 
3.7992900000000002e-01,	 3.5087750000000001e-02,	 5.7260730484751166e-01,	 1.9649146172470594e+02,	 -6.3814662256438748e+00,	 6.1996736406484274e+02,	 1.0213054508373619e+05,	 4.9970466139913981e+02,	 3.9342250583453325e-01 
3.8332470000000002e-01,	 3.5169970000000002e-02,	 5.7517040125174779e-01,	 2.0098593761524927e+02,	 -7.6582563251642828e+00,	 6.1883126598706315e+02,	 1.0239970706366788e+05,	 4.9924659387629339e+02,	 4.0287062572148924e-01 
3.8675240000000000e-01,	 3.5252950000000005e-02,	 5.7818169699392530e-01,	 2.0604573869323818e+02,	 -9.1142137102733614e+00,	 6.1728262289618442e+02,	 1.0267821929045158e+05,	 4.9862151306064129e+02,	 4.1363481829221782e-01 
3.9021230000000001e-01,	 3.5336720000000002e-02,	 5.8096273898469353e-01,	 2.1164105986660593e+02,	 -1.0752352759438541e+01,	 6.1602483385835933e+02,	 1.0296187359529067e+05,	 4.9811325278003784e+02,	 4.2543340795104417e-01 
3.9370480000000002e-01,	 3.5421279999999999e-02,	 5.8300133279661925e-01,	 2.1774868231492769e+02,	 -1.2574890383167794e+01,	 6.1556693607446391e+02,	 1.0324636481930256e+05,	 4.9792809193725293e+02,	 4.3803810390373754e-01 
3.9723029999999998e-01,	 3.5506630000000004e-02,	 5.8404988606396691e-01,	 2.2432568420307882e+02,	 -1.4557425946250062e+01,	 6.1625642768275600e+02,	 1.0354791132127006e+05,	 4.9820687653230510e+02,	 4.5121322984422330e-01 
4.0078890000000000e-01,	 3.5592780000000004e-02,	 5.8350950140080349e-01,	 2.3138064898157924e+02,	 -1.6791414038646575e+01,	 6.1824570722864144e+02,	 1.0378604897716486e+05,	 4.9901033609529117e+02,	 4.6489844586379409e-01 
4.0438120000000000e-01,	 3.5679760000000005e-02,	 5.8178580617003106e-01,	 2.3892228359913545e+02,	 -1.9276654564550903e+01,	 6.2161502888365169e+02,	 1.0404340695453063e+05,	 5.0036824429053354e+02,	 4.7904450671133386e-01 
4.0800740000000002e-01,	 3.5767550000000002e-02,	 5.7847246047047518e-01,	 2.4695813139583123e+02,	 -2.2019689839688731e+01,	 6.2645733466248203e+02,	 1.0425673596098534e+05,	 5.0231336757712182e+02,	 4.9359201251017343e-01 
4.1166789999999998e-01,	 3.5856170000000000e-02,	 5.7359333130624945e-01,	 2.5549449080949137e+02,	 -2.5018341645801506e+01,	 6.3282717276920494e+02,	 1.0442852645354484e+05,	 5.0486067782145085e+02,	 5.0848975472971081e-01 
4.1536299999999998e-01,	 3.5945630000000006e-02,	 5.6711922266893566e-01,	 2.6455911342291949e+02,	 -2.8259209960804831e+01,	 6.4079695281133877e+02,	 1.0455017002264595e+05,	 5.0802982064110819e+02,	 5.2371749295031911e-01 
4.1909310000000000e-01,	 3.6035940000000002e-02,	 5.5899847831918581e-01,	 2.7419229685217692e+02,	 -3.1712836957458158e+01,	 6.5048665767686634e+02,	 1.0461138601701843e+05,	 5.1185645331562921e+02,	 5.3925303046689166e-01 
4.2285859999999997e-01,	 3.6127100000000002e-02,	 5.4915784780759047e-01,	 2.8444768439669218e+02,	 -3.5342415301252430e+01,	 6.6207095806020095e+02,	 1.0459999641150291e+05,	 5.1639408080030307e+02,	 5.5507009160394760e-01 
4.2665979999999998e-01,	 3.6219130000000002e-02,	 5.3752499928117015e-01,	 2.9539056890119002e+02,	 -3.9109620512380488e+01,	 6.7577466348508460e+02,	 1.0450342149150065e+05,	 5.2171093435506361e+02,	 5.7113691167053227e-01 
4.3049700000000002e-01,	 3.6312030000000002e-02,	 5.2405243658623135e-01,	 3.0710083490833927e+02,	 -4.2978853042379903e+01,	 6.9185615062377792e+02,	 1.0430868929102051e+05,	 5.2788204402015833e+02,	 5.8742991254266308e-01 
4.3437070000000000e-01,	 3.6405820000000005e-02,	 5.0874511998897343e-01,	 3.1968039359609168e+02,	 -4.6922123001399527e+01,	 7.1058432640033993e+02,	 1.0400298824069400e+05,	 5.3497907871355392e+02,	 6.0395935049224847e-01 
4.3828119999999998e-01,	 3.6500490000000003e-02,	 4.9167492805195445e-01,	 3.3326557969155795e+02,	 -5.0925570161074575e+01,	 7.3220878211045340e+02,	 1.0357213622650708e+05,	 5.4305829696022477e+02,	 6.2080634982034411e-01 
4.4222879999999998e-01,	 3.6596070000000001e-02,	 4.7298537922904083e-01,	 3.4804009786160719e+02,	 -5.4995442457520355e+01,	 7.5693351904583983e+02,	 1.0299956511540625e+05,	 5.5215099010137760e+02,	 6.3815579176973558e-01 
4.4621410000000000e-01,	 3.6692550000000004e-02,	 4.5287946184005923e-01,	 3.6425034159030110e+02,	 -5.9160858205515069e+01,	 7.8489095642399911e+02,	 1.0226379101817268e+05,	 5.6225541809092113e+02,	 6.5632709649739007e-01 
4.5023730000000001e-01,	 3.6789950000000002e-02,	 4.3160052403452998e-01,	 3.8223191870089283e+02,	 -6.3473975693312653e+01,	 8.1611226171324802e+02,	 1.0133554411765366e+05,	 5.7332903742210101e+02,	 6.7581849397556959e-01 
4.5429880000000000e-01,	 3.6888290000000004e-02,	 4.0939640593182436e-01,	 4.0242146849706529e+02,	 -6.7998098585685028e+01,	 8.5049913519600750e+02,	 1.0017234475519942e+05,	 5.8528302004305556e+02,	 6.9731381592332298e-01 
4.5839900000000000e-01,	 3.6987550000000001e-02,	 3.8649964520239238e-01,	 4.2537324289447344e+02,	 -7.2768232786394520e+01,	 8.8777458470299939e+02,	 9.8714680653311196e+04,	 5.9797130032655707e+02,	 7.2169443433977198e-01 
4.6253830000000001e-01,	 3.7087770000000006e-02,	 3.6312697331273885e-01,	 4.5174776232331595e+02,	 -7.7714729928171394e+01,	 9.2742255633072216e+02,	 9.6887132291663424e+04,	 6.1117814187066642e+02,	 7.5000015954241062e-01 
4.6671720000000000e-01,	 3.7188940000000004e-02,	 3.3947747476346957e-01,	 4.8227621032909497e+02,	 -8.2550037432130651e+01,	 9.6858684742478817e+02,	 9.4597458337004078e+04,	 6.2459466487070313e+02,	 7.8337228666873737e-01 
4.7093590000000002e-01,	 3.7291080000000004e-02,	 3.1575406567009567e-01,	 5.1767982776304370e+02,	 -8.6667694805543434e+01,	 1.0099624642200945e+03,	 9.1745362725430488e+04,	 6.3779572395108062e+02,	 8.2296640989472536e-01 
4.7519499999999998e-01,	 3.7394190000000001e-02,	 2.9220261554376059e-01,	 5.5850174094472925e+02,	 -8.9132651454837699e+01,	 1.0497562925689354e+03,	 8.8247522799026250e+04,	 6.5023932317584001e+02,	 8.6978662898251313e-01 
4.7949480000000000e-01,	 3.7498290000000004e-02,	 2.6914946791796779e-01,	 6.0511444712673347e+02,	 -8.8651280475951012e+01,	 1.0855783023688721e+03,	 8.4059077098301161e+04,	 6.6124067993444032e+02,	 9.2488838594401268e-01 
4.8383569999999998e-01,	 3.7603390000000000e-02,	 2.4727314938427541e-01,	 6.5804210935449623e+02,	 -8.2951461345803537e+01,	 1.1142709912228470e+03,	 7.9267967385490265e+04,	 6.6992224468582049e+02,	 9.9004004506692866e-01 
4.8821809999999999e-01,	 3.7709490000000005e-02,	 2.2759990440599795e-01,	 7.1556823123112804e+02,	 -6.9267668711290071e+01,	 1.1347379334247680e+03,	 7.4301500792196588e+04,	 6.7604681829302763e+02,	 1.0634071219231152e+00 
4.9264259999999999e-01,	 3.7816610000000001e-02,	 2.1045154793191023e-01,	 7.7295957355123005e+02,	 -4.8312776431485844e+01,	 1.1468021039938258e+03,	 6.9433737462616031e+04,	 6.7963107352847567e+02,	 1.1395417216920960e+00 
4.9710939999999998e-01,	 3.7924750000000000e-02,	 1.9615594490994775e-01,	 8.2673752287356581e+02,	 -2.2210960274987471e+01,	 1.1429623451834334e+03,	 6.4500537709611577e+04,	 6.7849233849288464e+02,	 1.2189317103258581e+00 
5.0161900000000004e-01,	 3.8033930000000001e-02,	 1.8452415209918083e-01,	 8.7416351401018414e+02,	 9.4314493540267286e+00,	 1.1355740396062390e+03,	 6.0283521144446000e+04,	 6.7629583739385100e+02,	 1.2926508528977076e+00 
5.0617190000000001e-01,	 3.8144160000000003e-02,	 1.7911307527718581e-01,	 8.9883123832253546e+02,	 2.8338942668659509e+01,	 1.1295851116902963e+03,	 5.8207130191747048e+04,	 6.7451011438915509e+02,	 1.3332311148289497e+00 
2.5990439999999998e-01,	 3.2637190000000003e-02,	 5.7670295316231379e-01,	 1.2903087697524660e+02,	 3.8136885628793209e+00,	 5.9904618543969502e+02,	 9.9389938037896340e+04,	 4.9120088442418881e+02,	 2.6279925021064982e-01 
2.6219890000000001e-01,	 3.2694190000000005e-02,	 5.8360862264887936e-01,	 1.3215640900773582e+02,	 2.9868489714410691e+00,	 5.9214265960135128e+02,	 9.9420968005744056e+04,	 4.8836233501677833e+02,	 2.7068049254280979e-01 
2.6451380000000002e-01,	 3.2751680000000005e-02,	 5.9592241685578351e-01,	 1.3657785785885631e+02,	 1.6977273832758968e+00,	 5.7996691305907189e+02,	 9.9431245147075329e+04,	 4.8331535785464723e+02,	 2.8260721909361142e-01 
2.6684930000000001e-01,	 3.2809690000000002e-02,	 6.0853439698367962e-01,	 1.4062753385084761e+02,	 7.5966754367962142e-01,	 5.6806346977999715e+02,	 9.9451635851443294e+04,	 4.7832977726180104e+02,	 2.9400131954251674e-01 
2.6920549999999999e-01,	 3.2868210000000002e-02,	 6.2164734418371914e-01,	 1.4431148143344353e+02,	 1.1507134065359124e-01,	 5.5622346950750648e+02,	 9.9477148953506228e+04,	 4.7331867645671406e+02,	 3.0489294948522261e-01 
2.7158270000000001e-01,	 3.2927260000000000e-02,	 6.3528087085610563e-01,	 1.4764573854698654e+02,	 -2.8107155764062863e-01,	 5.4443928065414877e+02,	 9.9505060322418489e+04,	 4.6827795416808647e+02,	 3.1529565884742300e-01 
2.7398109999999998e-01,	 3.2986830000000002e-02,	 6.4934631495987705e-01,	 1.5065375969660522e+02,	 -4.8189465102854712e-01,	 5.3279414085091094e+02,	 9.9532693751077430e+04,	 4.6324283063371854e+02,	 3.2521718728879323e-01 
2.7640100000000001e-01,	 3.3046940000000004e-02,	 6.6371271573662116e-01,	 1.5336189249647691e+02,	 -5.4086122267366343e-01,	 5.2138854075715244e+02,	 9.9556944104888171e+04,	 4.5825765406227072e+02,	 3.3466510567005192e-01 
2.7884260000000000e-01,	 3.3107580000000005e-02,	 6.7824985794829007e-01,	 1.5579883463217647e+02,	 -5.0959475301036550e-01,	 5.1030391953062900e+02,	 9.9574595993087758e+04,	 4.5336024946346811e+02,	 3.4365533418192001e-01 
2.8130600000000000e-01,	 3.3168770000000000e-02,	 6.9285297045474736e-01,	 1.5799050022835911e+02,	 -4.3234037820138449e-01,	 4.9959241036030255e+02,	 9.9583377720597418e+04,	 4.4857689722088361e+02,	 3.5220514644186357e-01 
2.8379159999999998e-01,	 3.3230500000000003e-02,	 7.0744935880540027e-01,	 1.5996104830939623e+02,	 -3.4606907307960222e-01,	 4.8928084167352017e+02,	 9.9582610207161531e+04,	 4.4392345510673471e+02,	 3.6033559574706148e-01 
2.8629969999999999e-01,	 3.3292800000000004e-02,	 7.2198812201431428e-01,	 1.6173676642010463e+02,	 -2.7807149134464304e-01,	 4.7938078647305269e+02,	 9.9572775705954133e+04,	 4.3940935456800656e+02,	 3.6807820266119962e-01 
2.8883029999999998e-01,	 3.3355650000000001e-02,	 7.3642862398590081e-01,	 1.6334545985614253e+02,	 -2.4983502231882393e-01,	 4.6989782828985244e+02,	 9.9555219889595362e+04,	 4.3504151786632235e+02,	 3.7547140722816008e-01 
2.9138380000000003e-01,	 3.3419080000000004e-02,	 7.5073004711015634e-01,	 1.6481417173315208e+02,	 -2.7536407268658508e-01,	 4.6084114824204903e+02,	 9.9532516801294420e+04,	 4.3082868525301495e+02,	 3.8255206166025535e-01 
2.9396040000000001e-01,	 3.3483080000000005e-02,	 7.6483528565258319e-01,	 1.6616985355799568e+02,	 -3.6271881791351712e-01,	 4.5222796016389930e+02,	 9.9507373593273340e+04,	 4.2678356976319822e+02,	 3.8935484213837385e-01 
2.9656040000000000e-01,	 3.3547660000000000e-02,	 7.7866107986578958e-01,	 1.6743618251749928e+02,	 -5.1935762570429889e-01,	 4.4408555064808900e+02,	 9.9482123698864976e+04,	 4.2292397739903265e+02,	 3.9590327562734717e-01 
2.9918410000000001e-01,	 3.3612820000000002e-02,	 7.9209377243904033e-01,	 1.6862746100371402e+02,	 -7.5549553617340282e-01,	 4.3645111528361247e+02,	 9.9458554693973958e+04,	 4.1927289806451722e+02,	 4.0219426102515238e-01 
3.0183149999999997e-01,	 3.3678580000000000e-02,	 8.0500290300220723e-01,	 1.6974278230729635e+02,	 -1.0729988729807514e+00,	 4.2937204927095530e+02,	 9.9440008750445122e+04,	 4.1585877650909612e+02,	 4.0818225620801979e-01 
3.0450310000000003e-01,	 3.3744940000000001e-02,	 8.1723598490940397e-01,	 1.7077578824501043e+02,	 -1.4553620442917952e+00,	 4.2290752435815858e+02,	 9.9431234406871954e+04,	 4.1271636768577230e+02,	 4.1379989466770845e-01 
3.0719910000000000e-01,	 3.3811900000000006e-02,	 8.2859112874960572e-01,	 1.7172782112277338e+02,	 -1.8769133452369990e+00,	 4.1712914458228033e+02,	 9.9435337360859368e+04,	 4.0988710340128608e+02,	 4.1898873209419885e-01 
3.0991970000000002e-01,	 3.3879470000000002e-02,	 8.3880315152630236e-01,	 1.7260689108478911e+02,	 -2.3170249321160732e+00,	 4.1212139975796015e+02,	 9.9452374618637390e+04,	 4.0741927318967458e+02,	 4.2369728994100359e-01 
3.1266519999999998e-01,	 3.3947670000000006e-02,	 8.4755830166675672e-01,	 1.7342209492173168e+02,	 -2.7578350147160191e+00,	 4.0798515457504635e+02,	 9.9481856229263212e+04,	 4.0536959111687088e+02,	 4.2786638537695465e-01 
3.1543579999999999e-01,	 3.4016480000000002e-02,	 8.5448669090837981e-01,	 1.7418957321044371e+02,	 -3.1907299088680823e+00,	 4.0483993998117342e+02,	 9.9521884725958182e+04,	 4.0380404259637237e+02,	 4.3144390742217736e-01 
3.1823190000000001e-01,	 3.4085930000000000e-02,	 8.5916291637004627e-01,	 1.7492041461259780e+02,	 -3.6031366546945400e+00,	 4.0282483262016473e+02,	 9.9568438504540929e+04,	 4.0279781332780442e+02,	 4.3435568637557531e-01 
3.2105359999999999e-01,	 3.4156020000000002e-02,	 8.6114176370219597e-01,	 1.7561289519629653e+02,	 -3.9775376130193933e+00,	 4.0210394195674638e+02,	 9.9619170302227401e+04,	 4.0243723077697041e+02,	 4.3648529641603323e-01 
3.2390130000000000e-01,	 3.4226750000000000e-02,	 8.5998280642010050e-01,	 1.7626669800319772e+02,	 -4.3055848274352817e+00,	 4.0286416747756800e+02,	 9.9673187500489134e+04,	 4.0281747895725880e+02,	 4.3771505615725587e-01 
3.2677529999999999e-01,	 3.4298130000000003e-02,	 8.5527784050814348e-01,	 1.7688182957266741e+02,	 -4.5754946494064939e+00,	 4.0531364151985997e+02,	 9.9730587717078990e+04,	 4.0404021824925297e+02,	 4.3792917150143462e-01 
3.2967570000000002e-01,	 3.4370170000000005e-02,	 8.4668079551237430e-01,	 1.7745454505873889e+02,	 -4.7733338833818513e+00,	 4.0968158787388882e+02,	 9.9792084108663083e+04,	 4.0621149564252420e+02,	 4.3701060677583753e-01 
3.3260289999999998e-01,	 3.4442880000000002e-02,	 8.3397724661375694e-01,	 1.7798019102967987e+02,	 -4.8899785154986715e+00,	 4.1619906870928236e+02,	 9.9858547227262621e+04,	 4.0942988427217961e+02,	 4.3486653246996726e-01 
3.3555720000000000e-01,	 3.4516260000000000e-02,	 8.1714669668742068e-01,	 1.7845216082177276e+02,	 -4.9165037847399651e+00,	 4.2507850538348896e+02,	 9.9930741919292210e+04,	 4.1377434419146903e+02,	 4.3144259024743103e-01 
3.3853889999999998e-01,	 3.4590320000000001e-02,	 7.9642462616637366e-01,	 1.7886468019795632e+02,	 -4.8460282641641905e+00,	 4.3648586057385415e+02,	 1.0001031556963894e+05,	 4.1928958661004407e+02,	 4.2674638539707016e-01 
3.4154820000000002e-01,	 3.4665060000000004e-02,	 7.7233588639491213e-01,	 1.7921837566761286e+02,	 -4.6811820636111108e+00,	 4.5049656791587751e+02,	 1.0009851597699012e+05,	 4.2596579814130422e+02,	 4.2087769074106307e-01 
3.4458539999999999e-01,	 3.4740500000000001e-02,	 7.4570358166542283e-01,	 1.7952391953263088e+02,	 -4.4311145563463983e+00,	 4.6704035451698417e+02,	 1.0019604377393427e+05,	 4.3371674544778807e+02,	 4.1404580010728093e-01 
3.4765079999999998e-01,	 3.4816640000000003e-02,	 7.1762271073721873e-01,	 1.7980468168779947e+02,	 -4.1147099086184564e+00,	 4.8583828563810209e+02,	 1.0030390647602752e+05,	 4.4235898652538447e+02,	 4.0657421279151784e-01 
3.5074470000000002e-01,	 3.4893480000000004e-02,	 6.8938180178459996e-01,	 1.8010188608622303e+02,	 -3.7644269100078835e+00,	 5.0634022140675631e+02,	 1.0042276604525076e+05,	 4.5159611816946079e+02,	 3.9889896284038195e-01 
3.5386740000000000e-01,	 3.4971050000000004e-02,	 6.6234528144414695e-01,	 1.8047226997579116e+02,	 -3.4285257615945697e+00,	 5.2769072215555411e+02,	 1.0055272456857657e+05,	 4.6101888478029497e+02,	 3.9153457643986900e-01 
3.5701919999999998e-01,	 3.5049330000000004e-02,	 6.3781369253850184e-01,	 1.8099234016004689e+02,	 -3.1662304316340206e+00,	 5.4876049401505236e+02,	 1.0069470044711148e+05,	 4.7013264181956941e+02,	 3.8504034079604749e-01 
3.6020039999999998e-01,	 3.5128350000000003e-02,	 6.1686711572969233e-01,	 1.8175529884179704e+02,	 -3.0344297605467947e+00,	 5.6827143143909871e+02,	 1.0085034312444605e+05,	 4.7841732483080744e+02,	 3.7996246739764683e-01 
3.6341140000000000e-01,	 3.5208100000000006e-02,	 6.0023431510485770e-01,	 1.8286311164409233e+02,	 -3.0811115793369641e+00,	 5.8501212484205894e+02,	 1.0102192153268283e+05,	 4.8541301909118573e+02,	 3.7677000793821880e-01 
3.6665229999999999e-01,	 3.5288600000000003e-02,	 5.8820401445728876e-01,	 1.8441489168155911e+02,	 -3.3442480385315614e+00,	 5.9809138031296948e+02,	 1.0121047546715979e+05,	 4.9080927175261729e+02,	 3.7579814139914303e-01 
3.6992360000000002e-01,	 3.5369850000000001e-02,	 5.8061810085779531e-01,	 1.8648738423438033e+02,	 -3.8448221354611523e+00,	 6.0713919044840327e+02,	 1.0141653668939594e+05,	 4.9450777034063128e+02,	 3.7719733779906323e-01 
3.7322549999999999e-01,	 3.5451860000000002e-02,	 5.7693608302024735e-01,	 1.8913139069952567e+02,	 -4.5780878456949026e+00,	 6.1236278558548258e+02,	 1.0164041487666276e+05,	 4.9663049291984720e+02,	 3.8094074680885415e-01 
3.7655830000000001e-01,	 3.5534640000000006e-02,	 5.7634862841911993e-01,	 1.9236613162732371e+02,	 -5.5264640941542771e+00,	 6.1444362369085582e+02,	 1.0188194871264383e+05,	 4.9747356444090769e+02,	 3.8684568101751260e-01 
3.7992250000000000e-01,	 3.5618200000000003e-02,	 5.7791217237768044e-01,	 1.9619389080671516e+02,	 -6.6713895832000141e+00,	 6.1431979600015973e+02,	 1.0213775077136634e+05,	 4.9742343444997874e+02,	 3.9464824457455233e-01 
3.8331820000000000e-01,	 3.5702540000000005e-02,	 5.8069527423043710e-01,	 2.0060398792031287e+02,	 -7.9976543031040475e+00,	 6.1298103862681614e+02,	 1.0240596864161291e+05,	 4.9688113343867633e+02,	 4.0404703628961397e-01 
3.8674579999999997e-01,	 3.5787680000000002e-02,	 5.8386114527840116e-01,	 2.0556447734365361e+02,	 -9.4966229805552711e+00,	 6.1130858403279080e+02,	 1.0268334471020341e+05,	 4.9620282637188677e+02,	 4.1471694829207184e-01 
3.9020569999999999e-01,	 3.5873620000000002e-02,	 5.8672909375318305e-01,	 2.1104496898246759e+02,	 -1.1172862706467924e+01,	 6.0999062858835669e+02,	 1.0296526088290718e+05,	 4.9566764160695647e+02,	 4.2637544544519296e-01 
3.9369820000000000e-01,	 3.5960360000000004e-02,	 5.8879446945291125e-01,	 2.1702860333675176e+02,	 -1.3028168968460625e+01,	 6.0951812649692192e+02,	 1.0324767605566556e+05,	 4.9547563097774577e+02,	 4.3880925083095634e-01 
3.9722360000000001e-01,	 3.6047930000000006e-02,	 5.8979237646584237e-01,	 2.2346757854117070e+02,	 -1.5038209800423045e+01,	 6.1022613331299465e+02,	 1.0354279756313037e+05,	 4.9576331586914591e+02,	 4.5177405546202781e-01 
4.0078229999999998e-01,	 3.6136320000000000e-02,	 5.8924188564665236e-01,	 2.3037048496673395e+02,	 -1.7299968890855361e+01,	 6.1224473069667977e+02,	 1.0378834915076650e+05,	 4.9658261894300489e+02,	 4.6521796102365948e-01 
4.0437450000000003e-01,	 3.6225540000000001e-02,	 5.8738877918934240e-01,	 2.3775606977342747e+02,	 -1.9817662854700181e+01,	 6.1565422215935325e+02,	 1.0403810800138132e+05,	 4.9796339325913380e+02,	 4.7911266857324075e-01 
4.0800069999999999e-01,	 3.6315610000000005e-02,	 5.8394653556887199e-01,	 2.4562166670497396e+02,	 -2.2584837627850689e+01,	 6.2054383767041361e+02,	 1.0424986250884313e+05,	 4.9993693137927909e+02,	 4.9337786472167089e-01 
4.1166120000000000e-01,	 3.6406529999999999e-02,	 5.7890965978111508e-01,	 2.5397941574118585e+02,	 -2.5608644479198780e+01,	 6.2696723216164401e+02,	 1.0442045403345070e+05,	 5.0251775199310811e+02,	 5.0797649368789222e-01 
4.1535630000000001e-01,	 3.6498310000000006e-02,	 5.7224403532568058e-01,	 2.6285793243835985e+02,	 -2.8876583177821363e+01,	 6.3500339001875375e+02,	 1.0454114582294779e+05,	 5.0572801065777753e+02,	 5.2288840319675411e-01 
4.1908630000000002e-01,	 3.6590950000000004e-02,	 5.6388988173624499e-01,	 2.7229851874899816e+02,	 -3.2360953552190814e+01,	 6.4478313344686376e+02,	 1.0460149887333722e+05,	 5.0960751152980453e+02,	 5.3809003473317885e-01 
4.2285180000000000e-01,	 3.6684480000000005e-02,	 5.5376488276683888e-01,	 2.8235477332020804e+02,	 -3.6026630059296231e+01,	 6.5649587870329196e+02,	 1.0458932323938639e+05,	 5.1421529298154235e+02,	 5.5355000092357598e-01 