TITLE = "Final State"
VARIABLES = "X", "Y", "rho", "u", "v", "T", "p", "c", "M"
ZONE I=75, J=50, DATAPACKING=POINT, STRANDID=16000, SOLUTIONTIME=0.000573
5.0621919999999998e-01,	 1.0000000000000000e-04,	 1.1743537864916895e+00,	 2.0007097924973169e+02,	 4.4565190961806406e-04,	 3.0003100777365739e+02,	 1.0136663520872318e+05,	 3.4762584452252497e+02,	 5.7553539934590248e-01 
5.1081560000000004e-01,	 1.0000000000000000e-04,	 1.1743047071038937e+00,	 2.0008277453898825e+02,	 -1.4671629330839639e-04,	 3.0002701826087150e+02,	 1.0136105100976076e+05,	 3.4762353332413915e+02,	 5.7557315704652312e-01 
5.1545609999999997e-01,	 1.0000000000000000e-04,	 1.1742276870294217e+00,	 2.0009373622728327e+02,	 -1.6327971119885285e-04,	 3.0002198588769500e+02,	 1.0135270293620907e+05,	 3.4762061795556599e+02,	 5.7560951765216217e-01 
5.2014119999999997e-01,	 1.0000000000000000e-04,	 1.1741896860865446e+00,	 2.0008773961111029e+02,	 -8.0831214220557633e-06,	 3.0002013413923260e+02,	 1.0134879737646546e+05,	 3.4761954518928832e+02,	 5.7559404348842713e-01 
5.2487130000000004e-01,	 1.0000000000000000e-04,	 1.1741830517087770e+00,	 2.0007039542552988e+02,	 8.6378037952213900e-05,	 3.0002045535310833e+02,	 1.0134833324554726e+05,	 3.4761973127711843e+02,	 5.7554384122705260e-01 
5.2964690000000003e-01,	 1.0000000000000000e-04,	 1.1741944097905901e+00,	 2.0004780378178836e+02,	 1.2699504971405720e-04,	 3.0002188073474980e+02,	 1.0134979511136640e+05,	 3.4762055703780544e+02,	 5.7547748466461512e-01 
5.3446839999999995e-01,	 1.0000000000000000e-04,	 1.1742133025599397e+00,	 2.0002422853034017e+02,	 1.4265124556520460e-04,	 3.0002371858382162e+02,	 1.0135204667808609e+05,	 3.4762162174871611e+02,	 5.7540790335240366e-01 
5.3933629999999999e-01,	 1.0000000000000000e-04,	 1.1742340363277903e+00,	 2.0000205230058936e+02,	 1.4679680943461304e-04,	 3.0002562313643222e+02,	 1.0135447970502004e+05,	 3.4762272509917727e+02,	 5.7534228305581103e-01 
5.4425100000000004e-01,	 1.0000000000000000e-04,	 1.1742541224237417e+00,	 1.9998244910988711e+02,	 1.4528693625974511e-04,	 3.0002748526713833e+02,	 1.0135684251907375e+05,	 3.4762380387028253e+02,	 5.7528410564359478e-01 
5.4921310000000001e-01,	 1.0000000000000000e-04,	 1.1742726586309273e+00,	 1.9996589833995967e+02,	 1.3933540512346237e-04,	 3.0002930783954702e+02,	 1.0135905820971995e+05,	 3.4762485972120027e+02,	 5.7523474730887636e-01 
5.5422289999999996e-01,	 1.0000000000000000e-04,	 1.1742895345455739e+00,	 1.9995247387164801e+02,	 1.3178209883782664e-04,	 3.0003113953476986e+02,	 1.0136113369037016e+05,	 3.4762592085390702e+02,	 5.7519437382727079e-01 
5.5928100000000003e-01,	 1.0000000000000000e-04,	 1.1743049723841263e+00,	 1.9994202021829204e+02,	 1.2618281335058569e-04,	 3.0003303623242562e+02,	 1.0136310701806433e+05,	 3.4762701964023330e+02,	 5.7516248427770700e-01 
5.6438790000000005e-01,	 1.0000000000000000e-04,	 1.1743192450026094e+00,	 1.9993425771443302e+02,	 1.2328754324547690e-04,	 3.0003503366192467e+02,	 1.0136501381469137e+05,	 3.4762817677832174e+02,	 5.7513823984977674e-01 
5.6954400000000005e-01,	 1.0000000000000000e-04,	 1.1743326376883703e+00,	 1.9992883080241839e+02,	 1.2603131298364128e-04,	 3.0003713446014240e+02,	 1.0136687959598171e+05,	 3.4762939379515961e+02,	 5.7512061514644541e-01 
5.7474979999999998e-01,	 1.0000000000000000e-04,	 1.1743455144419706e+00,	 1.9992533342146260e+02,	 1.3443475502382597e-04,	 3.0003929775892107e+02,	 1.0136872197445710e+05,	 3.4763064701484666e+02,	 5.7510848119489699e-01 
5.8000589999999996e-01,	 1.0000000000000000e-04,	 1.1743583704736156e+00,	 1.9992332835586382e+02,	 1.4568357429325132e-04,	 3.0004144389022235e+02,	 1.0137055678012117e+05,	 3.4763189028478547e+02,	 5.7510065659435505e-01 
5.8531279999999997e-01,	 1.0000000000000000e-04,	 1.1743720497530881e+00,	 1.9992236819538448e+02,	 1.5865008208090173e-04,	 3.0004347911450725e+02,	 1.0137242519393413e+05,	 3.4763306930135127e+02,	 5.7509594411497589e-01 
5.9067090000000000e-01,	 1.0000000000000000e-04,	 1.1743863179160527e+00,	 1.9992217258525039e+02,	 1.7207761670380892e-04,	 3.0004521418394654e+02,	 1.0137424304556630e+05,	 3.4763407443341481e+02,	 5.7509371862112202e-01 
5.9608070000000002e-01,	 1.0000000000000000e-04,	 1.1744010396966544e+00,	 1.9992263594764478e+02,	 1.8467309120031043e-04,	 3.0004652337720512e+02,	 1.0137595617871081e+05,	 3.4763483285192763e+02,	 5.7509379686610862e-01 
6.0154280000000004e-01,	 1.0000000000000000e-04,	 1.1744170633502198e+00,	 1.9992349244088322e+02,	 1.9478222741819713e-04,	 3.0004742027573548e+02,	 1.0137764240007567e+05,	 3.4763535242624931e+02,	 5.7509540110248647e-01 
6.0705770000000003e-01,	 1.0000000000000000e-04,	 1.1744343072880143e+00,	 1.9992473508028405e+02,	 2.0111201778212737e-04,	 3.0004793515450490e+02,	 1.0137930489129554e+05,	 3.4763565069574537e+02,	 5.7509848221913695e-01 
6.1262600000000000e-01,	 1.0000000000000000e-04,	 1.1744524361757396e+00,	 1.9992648417090527e+02,	 2.0328276555620146e-04,	 3.0004818672938819e+02,	 1.0138095481253420e+05,	 3.4763579643309208e+02,	 5.7510327251206306e-01 
6.1824809999999997e-01,	 1.0000000000000000e-04,	 1.1744711223550943e+00,	 1.9992892756899016e+02,	 2.0156943229331068e-04,	 3.0004836398886141e+02,	 1.0138262773264741e+05,	 3.4763589911948009e+02,	 5.7511013124791688e-01 
6.2392470000000000e-01,	 1.0000000000000000e-04,	 1.1744900757740311e+00,	 1.9993230637030979e+02,	 1.9697950937811338e-04,	 3.0004867919069574e+02,	 1.0138437033308805e+05,	 3.4763608171578363e+02,	 5.7511954853370262e-01 
6.2965610000000005e-01,	 1.0000000000000000e-04,	 1.1745091423048089e+00,	 1.9993687178968671e+02,	 1.9097162654857161e-04,	 3.0004932487430801e+02,	 1.0138623437033681e+05,	 3.4763645575975687e+02,	 5.7513206246685888e-01 
6.3544310000000004e-01,	 1.0000000000000000e-04,	 1.1745283944997109e+00,	 1.9994285885518229e+02,	 1.8492309404588702e-04,	 3.0005044433265948e+02,	 1.0138827453206822e+05,	 3.4763710426008402e+02,	 5.7514821175613340e-01 
6.4128609999999997e-01,	 1.0000000000000000e-04,	 1.1745481727369520e+00,	 1.9995046086753877e+02,	 1.7988790717302251e-04,	 3.0005211852636262e+02,	 1.0139054756618546e+05,	 3.4763807411540347e+02,	 5.7516847478922362e-01 
6.4718569999999997e-01,	 1.0000000000000000e-04,	 1.1745690524518950e+00,	 1.9995978782344454e+02,	 1.7652359850722896e-04,	 3.0005436946078032e+02,	 1.0139311059256617e+05,	 3.4763937807060000e+02,	 5.7519314679855915e-01 
6.5314249999999996e-01,	 1.0000000000000000e-04,	 1.1745917530914805e+00,	 1.9997085268014149e+02,	 1.7503257264080000e-04,	 3.0005717460930998e+02,	 1.0139601811738682e+05,	 3.4764100307245019e+02,	 5.7522228653374108e-01 
6.5915710000000005e-01,	 1.0000000000000000e-04,	 1.1746169833317530e+00,	 1.9998357913772037e+02,	 1.7517544658609240e-04,	 3.0006048090498984e+02,	 1.0139931339979153e+05,	 3.4764291837539508e+02,	 5.7525572524923096e-01 
6.6522990000000004e-01,	 1.0000000000000000e-04,	 1.1746452487043653e+00,	 1.9999780868941599e+02,	 1.7588891594832377e-04,	 3.0006421199885949e+02,	 1.0140301429750821e+05,	 3.4764507974687183e+02,	 5.7529308004334823e-01 
6.7136169999999995e-01,	 1.0000000000000000e-04,	 1.1746766735344258e+00,	 2.0001329930596501e+02,	 1.7630277836468887e-04,	 3.0006826990784390e+02,	 1.0140709845031168e+05,	 3.4764743042260500e+02,	 5.7533374851326757e-01 
6.7755290000000001e-01,	 1.0000000000000000e-04,	 1.1747108920287692e+00,	 2.0002973245115390e+02,	 1.7540009067923597e-04,	 3.0007253609105749e+02,	 1.0141149423792391e+05,	 3.4764990173081907e+02,	 5.7537692792478135e-01 
6.8380430000000003e-01,	 1.0000000000000000e-04,	 1.1747469930168544e+00,	 2.0004671725329001e+02,	 1.7132108346373879e-04,	 3.0007687042906537e+02,	 1.0141607565951959e+05,	 3.4765241250164951e+02,	 5.7542162821152354e-01 
6.9011630000000002e-01,	 1.0000000000000000e-04,	 1.1747834562065627e+00,	 2.0006378240540673e+02,	 1.6176824991628847e-04,	 3.0008110094986091e+02,	 1.0142065335263828e+05,	 3.4765486311634521e+02,	 5.7546665854784640e-01 
6.9648960000000004e-01,	 1.0000000000000000e-04,	 1.1748180945070104e+00,	 2.0008037247984913e+02,	 1.4438117791634400e-04,	 3.0008500757353761e+02,	 1.0142496411396388e+05,	 3.4765712609174585e+02,	 5.7551063235534117e-01 
7.0292480000000002e-01,	 1.0000000000000000e-04,	 1.1748481345608002e+00,	 2.0009584224293269e+02,	 1.1774853616206726e-04,	 3.0008831908033403e+02,	 1.0142867682275176e+05,	 3.4765904432446445e+02,	 5.7555195387415603e-01 
7.0942249999999996e-01,	 1.0000000000000000e-04,	 1.1748704741332066e+00,	 2.0010949002032476e+02,	 7.9611665815642238e-05,	 3.0009073835100645e+02,	 1.0143142319437045e+05,	 3.4766044571129174e+02,	 5.7558888993232737e-01 
7.1598329999999999e-01,	 1.0000000000000000e-04,	 1.1748820194580383e+00,	 2.0012061619504297e+02,	 2.8510089023959408e-05,	 3.0009197064621037e+02,	 1.0143283647294105e+05,	 3.4766115952848980e+02,	 5.7561971106135523e-01 
7.2260789999999997e-01,	 1.0000000000000000e-04,	 1.1748800428120756e+00,	 2.0012859719017564e+02,	 -3.7168094031842399e-05,	 3.0009173844752803e+02,	 1.0143258733584886e+05,	 3.4766102502559295e+02,	 5.7564289001174840e-01 
7.2929679999999997e-01,	 1.0000000000000000e-04,	 1.1748625558291936e+00,	 2.0013292447235352e+02,	 -1.0667751256551616e-04,	 3.0008985623067724e+02,	 1.0143044141758549e+05,	 3.4765993473488862e+02,	 5.7565714215817021e-01 
7.3605080000000001e-01,	 1.0000000000000000e-04,	 1.1748286609285694e+00,	 2.0013337674218008e+02,	 -1.6773910219169318e-04,	 3.0008626133538814e+02,	 1.0142630009895412e+05,	 3.4765785235059832e+02,	 5.7566189110673183e-01 
7.4287049999999999e-01,	 1.0000000000000000e-04,	 1.1747786967044116e+00,	 2.0012976738912960e+02,	 -2.2090725145600546e-04,	 3.0008100077048437e+02,	 1.0142020860010941e+05,	 3.4765480508561581e+02,	 5.7565655489779932e-01 
7.4975660000000000e-01,	 1.0000000000000000e-04,	 1.1747143442144075e+00,	 2.0012241997537751e+02,	 -2.6283467551959310e-04,	 3.0007426178292553e+02,	 1.0141237547196964e+05,	 3.4765090138202612e+02,	 5.7564188437308228e-01 
7.5670959999999998e-01,	 1.0000000000000000e-04,	 1.1746386064571048e+00,	 2.0011188499209211e+02,	 -2.9114754741787021e-04,	 3.0006636504856704e+02,	 1.0140316848812824e+05,	 3.4764632697290659e+02,	 5.7561915506128558e-01 
7.6373029999999997e-01,	 1.0000000000000000e-04,	 1.1745552164520174e+00,	 2.0009891543458781e+02,	 -3.0440315414880631e-04,	 3.0005770432764217e+02,	 1.0139304310919667e+05,	 3.4764130993351978e+02,	 5.7559015490156995e-01 
7.7081929999999999e-01,	 1.0000000000000000e-04,	 1.1744684037112449e+00,	 2.0008441231152469e+02,	 -3.0270911107996919e-04,	 3.0004871972484204e+02,	 1.0138251325253736e+05,	 3.4763610519719231e+02,	 5.7555705325330997e-01 
7.7797729999999998e-01,	 1.0000000000000000e-04,	 1.1743824442743294e+00,	 2.0006932521730485e+02,	 -2.8769914444336215e-04,	 3.0003985217483500e+02,	 1.0137209704909805e+05,	 3.4763096819256452e+02,	 5.7552215862047873e-01 
7.8520500000000004e-01,	 1.0000000000000000e-04,	 1.1743012139884255e+00,	 2.0005455639912907e+02,	 -2.6207368617358977e-04,	 3.0003149811430688e+02,	 1.0136226296673760e+05,	 3.4762612858485238e+02,	 5.7548768619234913e-01 
7.9250310000000002e-01,	 1.0000000000000000e-04,	 1.1742278239014239e+00,	 2.0004087111255046e+02,	 -2.2925406049856197e-04,	 3.0002397272848111e+02,	 1.0135338594006318e+05,	 3.4762176898067565e+02,	 5.7545553519061154e-01 
7.9987229999999998e-01,	 1.0000000000000000e-04,	 1.1741644092382764e+00,	 2.0002883612934781e+02,	 -1.9307230998238533e-04,	 3.0001748940590880e+02,	 1.0134572224585029e+05,	 3.4761801302041590e+02,	 5.7542713161326631e-01 
8.0731330000000001e-01,	 1.0000000000000000e-04,	 1.1741120399514502e+00,	 2.0001878941665831e+02,	 -1.5701370623241202e-04,	 3.0001215170255955e+02,	 1.0133939910002408e+05,	 3.4761492071721557e+02,	 5.7540334863656506e-01 
8.1482670000000001e-01,	 1.0000000000000000e-04,	 1.1740707837628237e+00,	 2.0001083515801793e+02,	 -1.2358326404960342e-04,	 3.0000796122090850e+02,	 1.0133442278628799e+05,	 3.4761249301716197e+02,	 5.7538448466574921e-01 
8.2241339999999996e-01,	 1.0000000000000000e-04,	 1.1740399459346036e+00,	 2.0000486572875275e+02,	 -9.4330537003819138e-05,	 3.0000484373303090e+02,	 1.0133070818967870e+05,	 3.4761068693084366e+02,	 5.7537030145613877e-01 
8.3007410000000004e-01,	 1.0000000000000000e-04,	 1.1740183846057004e+00,	 2.0000059953188992e+02,	 -6.9855622249871842e-05,	 3.0000268278348341e+02,	 1.0132811736722336e+05,	 3.4760943500020818e+02,	 5.7536010071700827e-01 
8.3780940000000004e-01,	 1.0000000000000000e-04,	 1.1740048254655906e+00,	 1.9999761862833532e+02,	 -5.0395233411097560e-05,	 3.0000135301982652e+02,	 1.0132649796182894e+05,	 3.4760866460892134e+02,	 5.7535280040660053e-01 
8.4562020000000004e-01,	 1.0000000000000000e-04,	 1.1739981044102934e+00,	 1.9999539384081146e+02,	 -3.4993075375069096e-05,	 3.0000075216114806e+02,	 1.0132571493724434e+05,	 3.4760831650417896e+02,	 5.7534697630978626e-01 
8.5350709999999996e-01,	 1.0000000000000000e-04,	 1.1739976958838476e+00,	 1.9999331049064799e+02,	 -2.2804367793074873e-05,	 3.0000082171582443e+02,	 1.0132570317023477e+05,	 3.4760835680038218e+02,	 5.7534091622974870e-01 
8.6147090000000004e-01,	 1.0000000000000000e-04,	 1.1740031791145003e+00,	 1.9999066945412585e+02,	 -1.2347738001188409e-05,	 3.0000156158114675e+02,	 1.0132642631008342e+05,	 3.4760878543789210e+02,	 5.7533260904839512e-01 
8.6951250000000002e-01,	 1.0000000000000000e-04,	 1.1740151078479470e+00,	 1.9998668221634250e+02,	 -1.9236691821238215e-06,	 3.0000303929848673e+02,	 1.0132795496942948e+05,	 3.4760964154493121e+02,	 5.7531972164958700e-01 
8.7763250000000004e-01,	 1.0000000000000000e-04,	 1.1740343744416908e+00,	 1.9998051478816086e+02,	 1.1088252349671678e-05,	 3.0000536744172416e+02,	 1.0133040420623065e+05,	 3.4761099033704352e+02,	 5.7529974697940400e-01 
8.8583170000000000e-01,	 1.0000000000000000e-04,	 1.1740619264259016e+00,	 1.9997136503798953e+02,	 2.8982396794938474e-05,	 3.0000864867174607e+02,	 1.0133389050691990e+05,	 3.4761289128386397e+02,	 5.7527027924488894e-01 
8.9411099999999999e-01,	 1.0000000000000000e-04,	 1.1740980466844388e+00,	 1.9995863399921288e+02,	 5.5726827653775784e-05,	 3.0001289510481280e+02,	 1.0133844242645550e+05,	 3.4761535139569605e+02,	 5.7522958406864078e-01 
9.0247100000000002e-01,	 1.0000000000000000e-04,	 1.1741414195975772e+00,	 1.9994213390345311e+02,	 9.6430060551404734e-05,	 3.0001792649021911e+02,	 1.0134388558354872e+05,	 3.4761826623619413e+02,	 5.7517729453153321e-01 
9.1091270000000002e-01,	 1.0000000000000000e-04,	 1.1741881864945558e+00,	 1.9992228767633009e+02,	 1.5707783842244799e-04,	 3.0002328078344709e+02,	 1.0134973089694532e+05,	 3.4762136812054894e+02,	 5.7511507062207490e-01 
9.1943680000000005e-01,	 1.0000000000000000e-04,	 1.1742313879755608e+00,	 1.9990020511606417e+02,	 2.4501414285794037e-04,	 3.0002817968398460e+02,	 1.0135511476088388e+05,	 3.4762420615956893e+02,	 5.7504685109429554e-01 
9.2804410000000004e-01,	 1.0000000000000000e-04,	 1.1742614117595762e+00,	 1.9987749818880096e+02,	 3.6742371129359815e-04,	 3.0003160704017023e+02,	 1.0135886415231746e+05,	 3.4762619168734830e+02,	 5.7497824665900488e-01 
9.3673550000000005e-01,	 1.0000000000000000e-04,	 1.1742677995968058e+00,	 1.9985580895422532e+02,	 5.2863162864270050e-04,	 3.0003251219625361e+02,	 1.0135972132012378e+05,	 3.4762671605831025e+02,	 5.7491498703281774e-01 
9.4551180000000001e-01,	 1.0000000000000000e-04,	 1.1742421204827398e+00,	 1.9983624316126054e+02,	 7.2709414716638310e-04,	 3.0003007602654435e+02,	 1.0135668177515983e+05,	 3.4762530474560168e+02,	 5.7486103696860325e-01 
9.5437390000000000e-01,	 1.0000000000000000e-04,	 1.1741809735342885e+00,	 1.9981895519750461e+02,	 9.5089323876947182e-04,	 3.0002395661411811e+02,	 1.0134933661066348e+05,	 3.4762175964524920e+02,	 5.7481716738239863e-01 
9.6332249999999997e-01,	 1.0000000000000000e-04,	 1.1740882033070394e+00,	 1.9980324564723992e+02,	 1.1736116112604352e-03,	 3.0001439486143840e+02,	 1.0133809941142848e+05,	 3.4761622025464078e+02,	 5.7478113508145268e-01 
9.7235850000000001e-01,	 1.0000000000000000e-04,	 1.1739749918574194e+00,	 1.9978852069510373e+02,	 1.3530212196100969e-03,	 3.0000206331046519e+02,	 1.0132416296736765e+05,	 3.4760907611212252e+02,	 5.7475058745371410e-01 
9.8148290000000005e-01,	 1.0000000000000000e-04,	 1.1738558666236227e+00,	 1.9977627207103461e+02,	 1.4449057721841840e-03,	 2.9998758622682499e+02,	 1.0130899236785286e+05,	 3.4760068879250525e+02,	 5.7472921808711708e-01 
9.9069640000000003e-01,	 1.0000000000000000e-04,	 1.1737078003641856e+00,	 1.9977049657942143e+02,	 1.5999012316109552e-03,	 2.9997113985832920e+02,	 1.0129066017718360e+05,	 3.4759116031926965e+02,	 5.7472835731016481e-01 
1.0000000000000000e+00,	 1.0000000000000000e-04,	 1.1736144674848017e+00,	 1.9976759132400736e+02,	 2.0995910085968190e-03,	 2.9996211269296134e+02,	 1.0127955763273225e+05,	 3.4758593017197455e+02,	 5.7472864691675574e-01 
5.0621930000000004e-01,	 7.0671750000000000e-04,	 1.1743535677839645e+00,	 2.0007094835674542e+02,	 -2.1984899528985839e-03,	 3.0003102903821036e+02,	 1.0136662351484981e+05,	 3.4762585684143181e+02,	 5.7553529011533255e-01 
5.1081569999999998e-01,	 7.0830680000000007e-04,	 1.1743047356244736e+00,	 2.0008279502835342e+02,	 -1.2622449584896677e-03,	 3.0002704654164415e+02,	 1.0136106302590668e+05,	 3.4762354970776676e+02,	 5.7557318887209030e-01 
5.1545620000000003e-01,	 7.0991130000000002e-04,	 1.1742277166884707e+00,	 2.0009383262567059e+02,	 -5.6365982896605009e-04,	 3.0002198911632649e+02,	 1.0135270658689922e+05,	 3.4762061982599374e+02,	 5.7560979186627137e-01 
5.2014130000000003e-01,	 7.1153120000000002e-04,	 1.1741897436957556e+00,	 2.0008784126013020e+02,	 7.0359726483202082e-05,	 3.0002011992303267e+02,	 1.0134879754660938e+05,	 3.4761953695345937e+02,	 5.7559434954005795e-01 
5.2487139999999999e-01,	 7.1316670000000002e-04,	 1.1741831214187317e+00,	 2.0007048048658396e+02,	 4.2008703960427611e-04,	 3.0002043030151430e+02,	 1.0134833079993838e+05,	 3.4761971676406040e+02,	 5.7554410995282701e-01 
5.2964699999999998e-01,	 7.1481790000000006e-04,	 1.1741944820412191e+00,	 2.0004787603266251e+02,	 5.6787963609900851e-04,	 3.0002185773742224e+02,	 1.0134979357894852e+05,	 3.4762054371487056e+02,	 5.7547771456670349e-01 
5.3446850000000001e-01,	 7.1648500000000000e-04,	 1.1742133697406483e+00,	 2.0002429431648829e+02,	 6.1312734993770608e-04,	 3.0002369673822795e+02,	 1.0135204509704323e+05,	 3.4762160909304862e+02,	 5.7540811354994637e-01 
5.3933640000000005e-01,	 7.1816810000000007e-04,	 1.1742340859455378e+00,	 2.0000211800028168e+02,	 6.1134487915545622e-04,	 3.0002560203617804e+02,	 1.0135447685971996e+05,	 3.4762271287534134e+02,	 5.7534249228685308e-01 
5.4425109999999999e-01,	 7.1986740000000004e-04,	 1.1742541498447063e+00,	 1.9998252161989393e+02,	 5.9015965423035244e-04,	 3.0002746486278500e+02,	 1.0135683799283522e+05,	 3.4762379204963378e+02,	 5.7528433379557398e-01 
5.4921319999999996e-01,	 7.2158310000000007e-04,	 1.1742726886985744e+00,	 1.9996598411534632e+02,	 5.6572350380030092e-04,	 3.0002928865986371e+02,	 1.0135905432557016e+05,	 3.4762484861006106e+02,	 5.7523501244427178e-01 
5.5422300000000002e-01,	 7.2331530000000008e-04,	 1.1742895821825108e+00,	 1.9995257784095253e+02,	 5.4551811544259108e-04,	 3.0003112295544111e+02,	 1.0136113220116294e+05,	 3.4762591124922983e+02,	 5.7519468880540670e-01 
5.5928109999999998e-01,	 7.2506420000000005e-04,	 1.1743050269549662e+00,	 1.9994214575849765e+02,	 5.3302381574489468e-04,	 3.0003302477658463e+02,	 1.0136310785824510e+05,	 3.4762701300369758e+02,	 5.7516285639482634e-01 
5.6438800000000000e-01,	 7.2682990000000000e-04,	 1.1743192953789041e+00,	 1.9993440587180424e+02,	 5.2971838347129051e-04,	 3.0003502929347189e+02,	 1.0136501668722244e+05,	 3.4762817424762181e+02,	 5.7513867023358434e-01 
5.6954410000000000e-01,	 7.2861270000000003e-04,	 1.1743326741806523e+00,	 1.9992900016527412e+02,	 5.3729224742222635e-04,	 3.0003713287679773e+02,	 1.0136688221101895e+05,	 3.4762939287791130e+02,	 5.7512110385962634e-01 
5.7474990000000004e-01,	 7.3041270000000008e-04,	 1.1743455293749283e+00,	 1.9992551949477752e+02,	 5.5566248807407156e-04,	 3.0003929435128470e+02,	 1.0136872211218505e+05,	 3.4763064504077386e+02,	 5.7510901972436956e-01 
5.8000600000000002e-01,	 7.3223000000000006e-04,	 1.1743583584555455e+00,	 1.9992352280053927e+02,	 5.8392416277878469e-04,	 3.0004143880497043e+02,	 1.0137055402464325e+05,	 3.4763188733886619e+02,	 5.7510122081093684e-01 
5.8531290000000002e-01,	 7.3406490000000007e-04,	 1.1743720144048826e+00,	 1.9992256029513163e+02,	 6.2338917198525548e-04,	 3.0004347278321535e+02,	 1.0137242000357344e+05,	 3.4763306563360544e+02,	 5.7509650277863889e-01 
5.9067090000000000e-01,	 7.3591750000000006e-04,	 1.1743862679276020e+00,	 1.9992236810787131e+02,	 6.7152535619022496e-04,	 3.0004520691095206e+02,	 1.0137423627323422e+05,	 3.4763407022014860e+02,	 5.7509428803221996e-01 
5.9608079999999997e-01,	 7.3778800000000007e-04,	 1.1744009875501094e+00,	 1.9992281984816390e+02,	 7.2269541741516567e-04,	 3.0004651579650812e+02,	 1.0137594911607668e+05,	 3.4763482846041808e+02,	 5.7509433313938929e-01 
6.0154289999999999e-01,	 7.3967660000000008e-04,	 1.1744170238440588e+00,	 1.9992365302152012e+02,	 7.7148250780128234e-04,	 3.0004741279033306e+02,	 1.0137763646072957e+05,	 3.4763534808995053e+02,	 5.7509587020270014e-01 
6.0705779999999998e-01,	 7.4158340000000001e-04,	 1.1744342933789720e+00,	 1.9992486486451099e+02,	 8.1096384998432765e-04,	 3.0004792807016429e+02,	 1.0137930129700579e+05,	 3.4763564659178547e+02,	 5.7509886234687391e-01 
6.1262609999999995e-01,	 7.4350870000000006e-04,	 1.1744524552640538e+00,	 1.9992657850993166e+02,	 8.3681961141143118e-04,	 3.0004818013787440e+02,	 1.0138095423311804e+05,	 3.4763579261462849e+02,	 5.7510355020695902e-01 
6.1824820000000003e-01,	 7.4545260000000006e-04,	 1.1744711760741220e+00,	 1.9992898507103345e+02,	 8.4735995673475522e-04,	 3.0004835776600112e+02,	 1.0138263026715063e+05,	 3.4763589551457852e+02,	 5.7511030262536533e-01 
6.2392479999999995e-01,	 7.4741540000000000e-04,	 1.1744901604889773e+00,	 1.9993232874750203e+02,	 8.4386860025704752e-04,	 3.0004867306368925e+02,	 1.0138437557558119e+05,	 3.4763607816641201e+02,	 5.7511961878012008e-01 
6.2965620000000000e-01,	 7.4939710000000010e-04,	 1.1745092508497208e+00,	 1.9993687099216129e+02,	 8.3024776463688690e-04,	 3.0004931846333602e+02,	 1.0138624157391599e+05,	 3.4763645204588812e+02,	 5.7513206632166802e-01 
6.3544319999999999e-01,	 7.5139800000000002e-04,	 1.1745285184730718e+00,	 1.9994285197124870e+02,	 8.1139631410301967e-04,	 3.0005043727537100e+02,	 1.0138828284907668e+05,	 3.4763710017181251e+02,	 5.7514819872239598e-01 
6.4128620000000003e-01,	 7.5341830000000005e-04,	 1.1745483042255278e+00,	 1.9995045410550176e+02,	 7.9215152717851032e-04,	 3.0005211052383231e+02,	 1.0139055621254303e+05,	 3.4763806947956840e+02,	 5.7516846301213997e-01 
6.4718580000000003e-01,	 7.5545810000000001e-04,	 1.1745691853492093e+00,	 1.9995978002370839e+02,	 7.7658748178246171e-04,	 3.0005436031863900e+02,	 1.0139311897547569e+05,	 3.4763937277461253e+02,	 5.7519313312896159e-01 
6.5314260000000002e-01,	 7.5751770000000000e-04,	 1.1745918825866064e+00,	 1.9997084277911927e+02,	 7.6698376173638593e-04,	 3.0005716424013201e+02,	 1.0139602579200864e+05,	 3.4764099706567583e+02,	 5.7522226799623388e-01 
6.5915720000000000e-01,	 7.5959730000000009e-04,	 1.1746171051608825e+00,	 1.9998356639576716e+02,	 7.6308149269397967e-04,	 3.0006046931078572e+02,	 1.0139931999871825e+05,	 3.4764291165901079e+02,	 5.7525569971459389e-01 
6.6522999999999999e-01,	 7.6169710000000002e-04,	 1.1746453589852539e+00,	 1.9999779266549746e+02,	 7.6219033938576379e-04,	 3.0006419927233924e+02,	 1.0140301951689988e+05,	 3.4764507237459611e+02,	 5.7529304615440446e-01 
6.7136180000000001e-01,	 7.6381720000000004e-04,	 1.1746767698653247e+00,	 2.0001328579482660e+02,	 7.6043718130321515e-04,	 3.0006825623565192e+02,	 1.0140710214586026e+05,	 3.4764742250256990e+02,	 5.7533372275985628e-01 
6.7755299999999996e-01,	 7.6595790000000003e-04,	 1.1747109729356360e+00,	 2.0002972919052763e+02,	 7.5341484365477223e-04,	 3.0007252176351801e+02,	 1.0141149638043751e+05,	 3.4764989343121289e+02,	 5.7537693228582854e-01 
6.8380439999999998e-01,	 7.6811930000000004e-04,	 1.1747470553586841e+00,	 2.0004672449165631e+02,	 7.3366455738847313e-04,	 3.0007685579213694e+02,	 1.0141607609469979e+05,	 3.4765240402288282e+02,	 5.7542166306962850e-01 
6.9011639999999996e-01,	 7.7030180000000009e-04,	 1.1747834952930294e+00,	 2.0006379649364820e+02,	 6.9116029329011302e-04,	 3.0008108643706646e+02,	 1.0142065182202829e+05,	 3.4765485470954519e+02,	 5.7546671299035690e-01 
6.9648969999999999e-01,	 7.7250540000000007e-04,	 1.1748180958955872e+00,	 2.0008038885686707e+02,	 6.1480755715285270e-04,	 3.0008499479972369e+02,	 1.0142495991645449e+05,	 3.4765711869233007e+02,	 5.7551069171369107e-01 
7.0292489999999996e-01,	 7.7473040000000009e-04,	 1.1748480824107932e+00,	 2.0009585534484813e+02,	 4.9823191427107293e-04,	 3.0008831020684681e+02,	 1.0142866932125863e+05,	 3.4765903918439750e+02,	 5.7555200007136331e-01 
7.0942249999999996e-01,	 7.7697710000000002e-04,	 1.1748703876509130e+00,	 2.0010949374563486e+02,	 3.4046518295192442e-04,	 3.0009073070097929e+02,	 1.0143141314226846e+05,	 3.4766044127994559e+02,	 5.7558890798505002e-01 
7.1598340000000005e-01,	 7.7924560000000001e-04,	 1.1748819430373896e+00,	 2.0012060879387070e+02,	 1.4326039468829505e-04,	 3.0009195943379541e+02,	 1.0143282608534214e+05,	 3.4766115303361221e+02,	 5.7561970052654721e-01 
7.2260800000000003e-01,	 7.8153610000000003e-04,	 1.1748799993695185e+00,	 2.0012858823898358e+02,	 -8.7144676593841708e-05,	 3.0009173530843259e+02,	 1.0143258252423014e+05,	 3.4766102320724707e+02,	 5.7564286727564018e-01 
7.2929690000000003e-01,	 7.8384890000000006e-04,	 1.1748625500214600e+00,	 2.0013292227355291e+02,	 -3.3000069121404921e-04,	 3.0008986390511092e+02,	 1.0143044351014166e+05,	 3.4765993918037890e+02,	 5.7565712847343220e-01 
7.3605089999999995e-01,	 7.8618410000000003e-04,	 1.1748286944803568e+00,	 2.0013338460484488e+02,	 -5.6088027061896543e-04,	 3.0008626925840355e+02,	 1.0142630567347923e+05,	 3.4765785694010953e+02,	 5.7566190612544521e-01 
7.4287060000000005e-01,	 7.8854210000000007e-04,	 1.1747787686349422e+00,	 2.0012978245877474e+02,	 -7.6447870471148651e-04,	 3.0008100953641582e+02,	 1.0142021777264345e+05,	 3.4765481016344171e+02,	 5.7565658984021695e-01 
7.4975670000000005e-01,	 7.9092300000000002e-04,	 1.1747144504082512e+00,	 2.0012244258626129e+02,	 -9.2682918548727690e-04,	 3.0007427298861887e+02,	 1.0141238842666915e+05,	 3.4765090787320156e+02,	 5.7564193866968982e-01 
7.5670970000000004e-01,	 7.9332710000000006e-04,	 1.1746387401927099e+00,	 2.0011191369867396e+02,	 -1.0398723602162083e-03,	 3.0006637899322595e+02,	 1.0140318474553800e+05,	 3.4764633505080195e+02,	 5.7561922426748202e-01 
7.6373040000000003e-01,	 7.9575460000000007e-04,	 1.1745553695602999e+00,	 2.0009894847206118e+02,	 -1.0981575706998409e-03,	 3.0005772017093551e+02,	 1.0139306167984904e+05,	 3.4764131911139305e+02,	 5.7559023474697446e-01 
7.7081940000000004e-01,	 7.9820570000000010e-04,	 1.1744685669750017e+00,	 2.0008444773759481e+02,	 -1.1017455974849520e-03,	 3.0004873651871651e+02,	 1.0138253302022850e+05,	 3.4763611492587410e+02,	 5.7555713905988104e-01 
7.7797740000000004e-01,	 8.0068070000000003e-04,	 1.1743826084260161e+00,	 2.0006936099739613e+02,	 -1.0553940968140300e-03,	 3.0003986897470753e+02,	 1.0137211689462955e+05,	 3.4763097792486479e+02,	 5.7552224544103137e-01 
7.8520509999999999e-01,	 8.0317980000000006e-04,	 1.1743013704558445e+00,	 2.0005459067708549e+02,	 -9.6857747966507608e-04,	 3.0003151405576102e+02,	 1.0136228185819129e+05,	 3.4762613781999261e+02,	 5.7548776951583036e-01 
7.9250319999999996e-01,	 8.0570320000000002e-04,	 1.1742279660578079e+00,	 2.0004090240129665e+02,	 -8.5363306555418211e-04,	 3.0002398715274018e+02,	 1.0135340308305026e+05,	 3.4762177733698525e+02,	 5.7545561137039447e-01 
7.9987240000000004e-01,	 8.0825120000000002e-04,	 1.1741645325108108e+00,	 2.0002886308576126e+02,	 -7.2384255098726508e-04,	 3.0001750185460952e+02,	 1.0134573709104370e+05,	 3.4761802023231638e+02,	 5.7542719722467139e-01 
8.0731339999999996e-01,	 8.1082400000000003e-04,	 1.1741121414914741e+00,	 2.0001881080701759e+02,	 -5.9295771497824661e-04,	 3.0001216174550615e+02,	 1.0133941125644837e+05,	 3.4761492653544332e+02,	 5.7540340054270456e-01 
8.1482679999999996e-01,	 8.1342190000000003e-04,	 1.1740708612735391e+00,	 2.0001085083011088e+02,	 -4.7117835009008013e-04,	 3.0000796862972106e+02,	 1.0133443197875540e+05,	 3.4761249730937442e+02,	 5.7538452264751749e-01 
8.2241359999999997e-01,	 8.1604520000000001e-04,	 1.1740400005792937e+00,	 2.0000487653967892e+02,	 -3.6377838061765603e-04,	 3.0000484878421173e+02,	 1.0133071461213523e+05,	 3.4761068985720379e+02,	 5.7537032771394470e-01 
8.3007419999999998e-01,	 8.1869400000000002e-04,	 1.1740184210378242e+00,	 2.0000060639393746e+02,	 -2.7301836420799653e-04,	 3.0000268597411400e+02,	 1.0132812158929526e+05,	 3.4760943684868045e+02,	 5.7536011739861670e-01 
8.3780949999999998e-01,	 8.2136870000000008e-04,	 1.1740048486481700e+00,	 1.9999762236072021e+02,	 -1.9881544308013286e-04,	 3.0000135524778034e+02,	 1.0132650071517981e+05,	 3.4760866589967560e+02,	 5.7535280900776209e-01 
8.4562029999999999e-01,	 8.2407000000000010e-04,	 1.1739981143745348e+00,	 1.9999539533383503e+02,	 -1.3861127879400111e-04,	 3.0000075410888928e+02,	 1.0132571645509312e+05,	 3.4760831763259455e+02,	 5.7534697873734042e-01 
8.5350720000000002e-01,	 8.2679760000000009e-04,	 1.1739977101342949e+00,	 1.9999331230002849e+02,	 -8.9699796494034271e-05,	 3.0000082291016957e+02,	 1.0132570480355791e+05,	 3.4760835749232086e+02,	 5.7534092028977390e-01 