TITLE = "Final State"
VARIABLES = "X", "Y", "rho", "u", "v", "T", "p", "c", "M"
ZONE I=30, J=50, DATAPACKING=POINT, STRANDID=15000, SOLUTIONTIME=0.000537
-5.0000000000000003e-02,	 1.0000000000000000e-04,	 4.0549706269137022e+00,	 1.7559860378278540e+02,	 1.1409680970923597e-02,	 3.0859083121710005e+03,	 3.5999848107762965e+06,	 1.1148604158397154e+03,	 1.5750725531070309e-01 
-4.8275859999999997e-02,	 1.0000000000000000e-04,	 4.0581571819935078e+00,	 1.7636536610369640e+02,	 -2.4446420300081633e-02,	 3.0863265507212473e+03,	 3.6033021158009032e+06,	 1.1149359627709748e+03,	 1.5818430267480091e-01 
-4.6551719999999998e-02,	 1.0000000000000000e-04,	 4.0582120379529130e+00,	 1.8168337216646538e+02,	 -5.7686703549493470e-02,	 3.0858624174085089e+03,	 3.6028089379234621e+06,	 1.1148521255019830e+03,	 1.6296634967868720e-01 
-4.4827590000000000e-02,	 1.0000000000000000e-04,	 4.0541793348011543e+00,	 1.8993301207244431e+02,	 -5.6920587927363903e-02,	 3.0841597743731754e+03,	 3.5972428793318635e+06,	 1.1145445199030426e+03,	 1.7041313039533587e-01 
-4.3103450000000001e-02,	 1.0000000000000000e-04,	 4.0464800080674657e+00,	 1.9862627944437037e+02,	 -5.1750585572808844e-02,	 3.0822866175455652e+03,	 3.5882306970811212e+06,	 1.1142060105652363e+03,	 1.7826711066225576e-01 
-4.1379310000000002e-02,	 1.0000000000000000e-04,	 4.0375934809925482e+00,	 2.0595257338287070e+02,	 -4.5553112866062132e-02,	 3.0806095747145951e+03,	 3.5784025025718873e+06,	 1.1139028548773895e+03,	 1.8489276467768548e-01 
-3.9655169999999997e-02,	 1.0000000000000000e-04,	 4.0293764418252964e+00,	 2.1112712128913134e+02,	 -3.0650064776086835e-02,	 3.0792708988615777e+03,	 3.5695681513885795e+06,	 1.1136608058853901e+03,	 1.8957937856676957e-01 
-3.7931029999999998e-02,	 1.0000000000000000e-04,	 4.0227096742348696e+00,	 2.1416687819302410e+02,	 -1.1177823077472285e-02,	 3.0783980326509095e+03,	 3.5626519810738973e+06,	 1.1135029526440230e+03,	 1.9233615678896943e-01 
-3.6206900000000000e-02,	 1.0000000000000000e-04,	 4.0177685361870319e+00,	 2.1552097797253413e+02,	 1.1525284495191340e-02,	 3.0778788928398130e+03,	 3.5576758706659707e+06,	 1.1134090583393354e+03,	 1.9356855116856322e-01 
-3.4482760000000001e-02,	 1.0000000000000000e-04,	 4.0142420533422341e+00,	 2.1571992998393370e+02,	 2.3063940516568432e-02,	 3.0776293775099457e+03,	 3.5542650631319536e+06,	 1.1133639268918760e+03,	 1.9375509301716129e-01 
-3.2758620000000002e-02,	 1.0000000000000000e-04,	 4.0115937267057014e+00,	 2.1532418003420452e+02,	 3.4087408437728152e-02,	 3.0776847702529758e+03,	 3.5519841276153992e+06,	 1.1133739462926610e+03,	 1.9339789964489501e-01 
-3.1034480000000000e-02,	 1.0000000000000000e-04,	 4.0095023239205059e+00,	 2.1464997923587234e+02,	 3.2566723275505367e-02,	 3.0777459586430300e+03,	 3.5502029187923842e+06,	 1.1133850139012343e+03,	 1.9279043549747940e-01 
-2.9310340000000001e-02,	 1.0000000000000000e-04,	 4.0076182818777877e+00,	 2.1388620549154143e+02,	 2.9511764089505864e-02,	 3.0779335693773155e+03,	 3.5487510075853588e+06,	 1.1134189477930622e+03,	 1.9209858782400827e-01 
-2.7586210000000000e-02,	 1.0000000000000000e-04,	 4.0057580657803387e+00,	 2.1323982874370080e+02,	 2.9012872759711636e-02,	 3.0781649325977551e+03,	 3.5473704138777126e+06,	 1.1134607939451826e+03,	 1.9151085685007788e-01 
-2.5862070000000001e-02,	 1.0000000000000000e-04,	 4.0039466613344228e+00,	 2.1278596699102059e+02,	 2.8224450349339576e-02,	 3.0784497709085044e+03,	 3.5460944002531986e+06,	 1.1135123098583799e+03,	 1.9109440190199908e-01 
-2.4137929999999998e-02,	 1.0000000000000000e-04,	 4.0021891077372400e+00,	 2.1258754611167666e+02,	 2.4370204831554217e-02,	 3.0787723193064026e+03,	 3.5449092066838369e+06,	 1.1135706431480066e+03,	 1.9090620681913376e-01 
-2.2413789999999999e-02,	 1.0000000000000000e-04,	 4.0005727680729120e+00,	 2.1273632347989695e+02,	 2.0959260437563403e-02,	 3.0791375355036066e+03,	 3.5438978872358361e+06,	 1.1136366892750391e+03,	 1.9102848043814166e-01 
-2.0689659999999999e-02,	 1.0000000000000000e-04,	 3.9992564588017667e+00,	 2.1340098197395704e+02,	 1.3594216909197356e-02,	 3.0795611971076933e+03,	 3.5432192858000137e+06,	 1.1137132998312079e+03,	 1.9161213432513893e-01 
-1.8965520000000000e-02,	 1.0000000000000000e-04,	 3.9984226353621595e+00,	 2.1491736488302257e+02,	 -5.6318755186354763e-03,	 3.0800079558129364e+03,	 3.5429944590870333e+06,	 1.1137940813185267e+03,	 1.9295969386225442e-01 
-1.7241380000000001e-02,	 1.0000000000000000e-04,	 3.9975572842363363e+00,	 2.1795761710115170e+02,	 -1.9287730258293258e-02,	 3.0802314055399584e+03,	 3.5424846561904345e+06,	 1.1138344825891168e+03,	 1.9568223228995604e-01 
-1.5517240000000000e-02,	 1.0000000000000000e-04,	 3.9966117673168102e+00,	 2.2264340679060217e+02,	 -2.1514587063397872e-02,	 3.0804409109595626e+03,	 3.5418876638262896e+06,	 1.1138723613005009e+03,	 1.9988233442668341e-01 
-1.3793100000000001e-02,	 1.0000000000000000e-04,	 3.9955218184847192e+00,	 2.3022569476266020e+02,	 -3.3374701417247354e-02,	 3.0801337361693045e+03,	 3.5405686336165043e+06,	 1.1138168234653385e+03,	 2.0669978431952546e-01 
-1.2068970000000000e-02,	 1.0000000000000000e-04,	 3.9933559804749832e+00,	 2.4285896082263071e+02,	 -1.1016208578898901e-01,	 3.0786372426882062e+03,	 3.5369301455430705e+06,	 1.1135462147410201e+03,	 2.1809511144910923e-01 
-1.0344829999999999e-02,	 1.0000000000000000e-04,	 3.9866354988193970e+00,	 2.6325736177026999e+02,	 -2.3719240983254630e-01,	 3.0752146429937675e+03,	 3.5270523118714350e+06,	 1.1129270637203754e+03,	 2.3654512250270757e-01 
-8.6206900000000003e-03,	 1.0000000000000000e-04,	 3.9709740814260255e+00,	 2.9409800465906261e+02,	 -3.7310241583326620e-01,	 3.0685191937713871e+03,	 3.5055473216858860e+06,	 1.1117148545150417e+03,	 2.6454467180099667e-01 
-6.8965520000000002e-03,	 1.0000000000000000e-04,	 3.9394265876064427e+00,	 3.3800204743660208e+02,	 -5.4891447464811005e-01,	 3.0566975048329709e+03,	 3.4642993441055855e+06,	 1.1095713076172301e+03,	 3.0462439938179459e-01 
-5.1724140000000002e-03,	 1.0000000000000000e-04,	 3.8817810508258819e+00,	 3.9804408774289527e+02,	 -7.1711674088879196e-01,	 3.0368961199976943e+03,	 3.3914928814115147e+06,	 1.1059715489823498e+03,	 3.5990503922804373e-01 
-3.4482760000000001e-03,	 1.0000000000000000e-04,	 3.7819507586899381e+00,	 4.7797342731722574e+02,	 -1.0328278734162306e+00,	 3.0047800574328944e+03,	 3.2693280127312811e+06,	 1.1001080197324702e+03,	 4.3447964621158436e-01 
-1.7241380000000001e-03,	 1.0000000000000000e-04,	 3.6129038726233458e+00,	 5.8240668623679323e+02,	 -1.1372343564126060e+00,	 2.9519806705590609e+03,	 3.0683143661147133e+06,	 1.0903997450514423e+03,	 5.3412319581621015e-01 
0.0000000000000000e+00,	 1.0000000000000000e-04,	 3.4927445080565027e+00,	 6.6752666797707730e+02,	 -4.7692347677998059e-01,	 2.8946585542730822e+03,	 2.9086676372742066e+06,	 1.0797610520907249e+03,	 6.1821718523441371e-01 
-5.0000000000000003e-02,	 4.0612240000000000e-04,	 4.0550679702134662e+00,	 1.7558930729146340e+02,	 -1.0311922138647120e-01,	 3.0857683869103294e+03,	 3.5999079926198050e+06,	 1.1148351398290706e+03,	 1.5750251431620299e-01 
-4.8274079999999997e-02,	 4.0247640000000000e-04,	 4.0581054955060267e+00,	 1.7636436076270923e+02,	 -3.2881791154882212e-01,	 3.0864624461770914e+03,	 3.6034148791716639e+06,	 1.1149605086284191e+03,	 1.5818019196695113e-01 
-4.6548369999999999e-02,	 3.9874269999999997e-04,	 4.0581857122545779e+00,	 1.8169446891214955e+02,	 -6.8064275832958576e-01,	 3.0859819156181088e+03,	 3.6029250821885858e+06,	 1.1148737112898807e+03,	 1.6297428304230249e-01 
-4.4822200000000000e-02,	 3.9495010000000001e-04,	 4.0541390761592773e+00,	 1.8994845218913309e+02,	 -8.0277020701954482e-01,	 3.0842118840496123e+03,	 3.5972679362185164e+06,	 1.1145539354834980e+03,	 1.7042705829587007e-01 
-4.3095000000000001e-02,	 3.9112169999999999e-04,	 4.0464274511847762e+00,	 1.9864179438841228e+02,	 -6.9684025618816714e-01,	 3.0823330256955137e+03,	 3.5882381172226970e+06,	 1.1142143985011089e+03,	 1.7828078412752227e-01 
-4.1366370000000000e-02,	 3.8725680000000000e-04,	 4.0375088793200753e+00,	 2.0596524237227487e+02,	 -4.7433980971473821e-01,	 3.0806620710059915e+03,	 3.5783885003948817e+06,	 1.1139123457781870e+03,	 1.8490304857164513e-01 
-3.9636970000000001e-02,	 3.8335239999999997e-04,	 4.0292942194230603e+00,	 2.1113539327416015e+02,	 -2.2142216593330741e-01,	 3.0793230103927394e+03,	 3.5695557194769434e+06,	 1.1136702292726404e+03,	 1.8958530436526641e-01 
-3.7906660000000002e-02,	 3.7940279999999999e-04,	 4.0226313909601465e+00,	 2.1417318059469505e+02,	 -1.3359066323040146e-02,	 3.0784032543780031e+03,	 3.5625886937000183e+06,	 1.1135038970323069e+03,	 1.9234165374916276e-01 
-3.6176479999999997e-02,	 3.7541359999999999e-04,	 4.0176747586002657e+00,	 2.1552385463882891e+02,	 1.3793891867867958e-01,	 3.0778396326183683e+03,	 3.5575474527054206e+06,	 1.1134019572110735e+03,	 1.9357240876449164e-01 
-3.4446430000000000e-02,	 3.7138809999999998e-04,	 4.0141458704553106e+00,	 2.1572149462516705e+02,	 2.2906216931062115e-01,	 3.0775903607119153e+03,	 3.5541348431917042e+06,	 1.1133568695064960e+03,	 1.9375783465968360e-01 
-3.2716540000000002e-02,	 3.6732049999999998e-04,	 4.0114998199934506e+00,	 2.1532522533492102e+02,	 2.7675157467705241e-01,	 3.0776484826345695e+03,	 3.5518591009339765e+06,	 1.1133673826237000e+03,	 1.9340013597129771e-01 
-3.0986900000000001e-02,	 3.6320839999999998e-04,	 4.0094097135940574e+00,	 2.1464985745374381e+02,	 2.8260902009729327e-01,	 3.0777120216760586e+03,	 3.5500817715905905e+06,	 1.1133788754780003e+03,	 1.9279155391168770e-01 
-2.9257410000000001e-02,	 3.5905399999999998e-04,	 4.0075256809412227e+00,	 2.1388681260187516e+02,	 2.6673637453454579e-01,	 3.0779014109290897e+03,	 3.5486319326176313e+06,	 1.1134131312414206e+03,	 1.9210028418259617e-01 
-2.7528250000000001e-02,	 3.5485610000000000e-04,	 4.0056703736635075e+00,	 2.1324025011006034e+02,	 2.4526385148595709e-01,	 3.0781357814911789e+03,	 3.5472591626796057e+06,	 1.1134555215358362e+03,	 1.9151226702275395e-01 
-2.5799249999999999e-02,	 3.5061439999999999e-04,	 4.0038693373673775e+00,	 2.1278566006087337e+02,	 2.0867943478291781e-01,	 3.0784251103621377e+03,	 3.5459975121403863e+06,	 1.1135078498413284e+03,	 1.9109498187856938e-01 
-2.4070510000000000e-02,	 3.4629929999999999e-04,	 4.0021240403337384e+00,	 2.1258735592155148e+02,	 1.5795226151041308e-01,	 3.0787521478215162e+03,	 3.5448283485750146e+06,	 1.1135669951987820e+03,	 1.9090671285817537e-01 
-2.2341810000000000e-02,	 3.4231069999999999e-04,	 4.0005219940072703e+00,	 2.1273549665272151e+02,	 9.4710251679529345e-02,	 3.0791142805971785e+03,	 3.5438261445232928e+06,	 1.1136324839471506e+03,	 1.9102847734945308e-01 
-2.0612800000000001e-02,	 3.3857570000000000e-04,	 3.9992152470367230e+00,	 2.1339858710890564e+02,	 9.6689832637459582e-03,	 3.0795420611050895e+03,	 3.5431607565444610e+06,	 1.1137098395892531e+03,	 1.9161057911336898e-01 
-1.8883839999999999e-02,	 3.3487230000000000e-04,	 3.9983828806956252e+00,	 2.1487706709984013e+02,	 -1.3520629063891715e-01,	 3.0800000071761715e+03,	 3.5429500891707703e+06,	 1.1137926441225156e+03,	 1.9292380028851511e-01 
-1.7151079999999999e-02,	 3.3242240000000000e-04,	 3.9975301741714384e+00,	 2.1793813345296843e+02,	 -2.9881992372392047e-01,	 3.0802263547407083e+03,	 3.5424548235342065e+06,	 1.1138335693855395e+03,	 1.9566508345810776e-01 
-1.5432649999999999e-02,	 3.2597639999999998e-04,	 3.9965575697096680e+00,	 2.2266907562871154e+02,	 -4.9547649954329070e-01,	 3.0804371486359878e+03,	 3.5418353068251219e+06,	 1.1138716810813951e+03,	 1.9990599516051996e-01 
-1.3716080000000000e-02,	 3.1918369999999998e-04,	 3.9954960605999119e+00,	 2.3026782473896702e+02,	 -8.3144163184502129e-01,	 3.0801265047176662e+03,	 3.5405374962789956e+06,	 1.1138155159706141e+03,	 2.0673919738055399e-01 
-1.1999970000000000e-02,	 3.1226810000000002e-04,	 3.9934718843592467e+00,	 2.4275938392031583e+02,	 -1.3371522051382132e+00,	 3.0786703873433721e+03,	 3.5370708817902729e+06,	 1.1135522089525903e+03,	 2.1800779932017086e-01 
-1.0284470000000000e-02,	 3.0567670000000003e-04,	 3.9869408385674099e+00,	 2.6270781900154566e+02,	 -2.0307024375205374e+00,	 3.0753344732424284e+03,	 3.5274598990511685e+06,	 1.1129487469267740e+03,	 2.3605369803648193e-01 
-8.5693650000000007e-03,	 2.9903170000000003e-04,	 3.9713440433140472e+00,	 2.9286507948746566e+02,	 -2.8669003324706512e+00,	 3.0687923971389946e+03,	 3.5061860643029939e+06,	 1.1117643437739853e+03,	 2.6343632357958713e-01 
-6.8551920000000004e-03,	 2.9217710000000000e-04,	 3.9398980909419619e+00,	 3.3596393657530575e+02,	 -3.7791194702304152e+00,	 3.0572266983165209e+03,	 3.4653138119612974e+06,	 1.1096673512219493e+03,	 3.0278009928789201e-01 
-5.1415300000000001e-03,	 2.8519489999999999e-04,	 3.8822808389158059e+00,	 3.9511222319512746e+02,	 -4.7766612555527503e+00,	 3.0378815590647491e+03,	 3.3930301872612447e+06,	 1.1061509721713917e+03,	 3.5722166821200863e-01 
-3.4276810000000001e-03,	 2.7878689999999998e-04,	 3.7827576683331436e+00,	 4.7416848073127608e+02,	 -5.6566889804067539e+00,	 3.0061489682036909e+03,	 3.2715153008853015e+06,	 1.1003585835355198e+03,	 4.3095244398964838e-01 
-1.7143670000000001e-03,	 2.7222109999999999e-04,	 3.6135020634631205e+00,	 5.7785760253950707e+02,	 -5.8921156297253754e+00,	 2.9538657515207233e+03,	 3.0707820828661509e+06,	 1.0907478441727110e+03,	 5.2980864851268805e-01 
0.0000000000000000e+00,	 2.6326529999999999e-04,	 3.4930979688738364e+00,	 6.6255814091618504e+02,	 -4.8955078936391647e+00,	 2.8971886519237160e+03,	 2.9115045900104973e+06,	 1.0802328355759175e+03,	 6.1336427185550801e-01 
-5.0000000000000003e-02,	 7.1224490000000010e-04,	 4.0552228129529748e+00,	 1.7559022736609575e+02,	 -2.0764764374700240e-01,	 3.0855893887888797e+03,	 3.5998366249619378e+06,	 1.1148028048860804e+03,	 1.5750799098758911e-01 
-4.8269279999999998e-02,	 7.0685670000000009e-04,	 4.0580513311554114e+00,	 1.7643007795798962e+02,	 -6.0607859282942411e-01,	 3.0865132101247436e+03,	 3.6034260492921816e+06,	 1.1149696776309836e+03,	 1.5823849070107981e-01 
-4.6538900000000001e-02,	 7.0132030000000006e-04,	 4.0581184721074006e+00,	 1.8187686335363361e+02,	 -1.2569550197202428e+00,	 3.0859831166030099e+03,	 3.6028667874051002e+06,	 1.1148739282299666e+03,	 1.6314060461749971e-01 
-4.4807710000000001e-02,	 6.9566000000000007e-04,	 4.0540788680705546e+00,	 1.9022982484847034e+02,	 -1.4906294006004603e+00,	 3.0841663406274511e+03,	 3.5971613943876596e+06,	 1.1145457063491672e+03,	 1.7068448957815369e-01 
-4.3075090000000003e-02,	 6.8993330000000010e-04,	 4.0463249045217884e+00,	 1.9898253403032669e+02,	 -1.2969083287934131e+00,	 3.0822822081050372e+03,	 3.5880880254198369e+06,	 1.1142052135876177e+03,	 1.7859076406041954e-01 
-4.1340189999999999e-02,	 6.8410690000000006e-04,	 4.0373456469582303e+00,	 2.0632106829762975e+02,	 -8.7159319666265545e-01,	 3.0806037543650245e+03,	 3.5781760939847198e+06,	 1.1139018026007366e+03,	 1.8522540210364222e-01 
-3.9604420000000001e-02,	 6.7820780000000006e-04,	 4.0291257694695020e+00,	 2.1147283331040708e+02,	 -3.9781933808507192e-01,	 3.0792776104253171e+03,	 3.5693538639888922e+06,	 1.1136620195495425e+03,	 1.8988993409448068e-01 
-3.7867510000000000e-02,	 6.7220700000000008e-04,	 4.0225028580300819e+00,	 2.1447918835540344e+02,	 -9.9994120234339970e-03,	 3.0783836698976070e+03,	 3.5624521961679687e+06,	 1.1135003550288518e+03,	 1.9261708145835441e-01 
-3.6130770000000000e-02,	 6.6613170000000006e-04,	 4.0176139182916994e+00,	 2.1579205997390292e+02,	 2.6328844554722891e-01,	 3.0778331037114972e+03,	 3.5574860338012283e+06,	 1.1134007763013428e+03,	 1.9381360709137183e-01 
-3.4394260000000003e-02,	 6.5995300000000002e-04,	 4.0141462499918434e+00,	 2.1595740827886812e+02,	 4.2699221980278029e-01,	 3.0775855985093326e+03,	 3.5541296796356752e+06,	 1.1133560081129397e+03,	 1.9397014865911177e-01 
-3.2657970000000001e-02,	 6.5369340000000003e-04,	 4.0115403975662636e+00,	 2.1554116715865490e+02,	 5.1008264043706808e-01,	 3.0776394796544128e+03,	 3.5518846388138751e+06,	 1.1133657541674550e+03,	 1.9359475528287443e-01 
-3.0922089999999999e-02,	 6.4732560000000001e-04,	 4.0094743329279439e+00,	 2.1485452283813837e+02,	 5.2049708376443760e-01,	 3.0777103038521263e+03,	 3.5501370064640939e+06,	 1.1133785647619341e+03,	 1.9297583059701265e-01 
-2.9186440000000001e-02,	 6.4087490000000003e-04,	 4.0075940701839041e+00,	 2.1409251415947614e+02,	 4.9267238290110094e-01,	 3.0778976109192295e+03,	 3.5486881094914102e+06,	 1.1134124439253537e+03,	 1.9228551126649449e-01 
-2.7451340000000001e-02,	 6.3430940000000003e-04,	 4.0057493065350691e+00,	 2.1345085109158254e+02,	 4.5312372370059401e-01,	 3.0781286621093554e+03,	 3.5473208578550480e+06,	 1.1134542338864035e+03,	 1.9170193578807185e-01 
-2.5716500000000000e-02,	 6.2765910000000006e-04,	 4.0039531634802161e+00,	 2.1301156516252445e+02,	 3.8022130168495510e-01,	 3.0784103978281391e+03,	 3.5460548045926229e+06,	 1.1135051889772365e+03,	 1.9129852883895740e-01 
-2.3982050000000001e-02,	 6.2092190000000006e-04,	 4.0022118962331987e+00,	 2.1284703751508769e+02,	 2.8269089910118472e-01,	 3.0787313284340353e+03,	 3.5448821941220569e+06,	 1.1135632300658906e+03,	 1.9114067301693480e-01 
-2.2247590000000001e-02,	 6.1470330000000007e-04,	 4.0005959905181721e+00,	 2.1304263265439542e+02,	 1.6085476420040434e-01,	 3.0790945500159060e+03,	 3.5438689848445952e+06,	 1.1136289159322232e+03,	 1.9130492243152797e-01 
-2.0512240000000001e-02,	 6.0918940000000003e-04,	 3.9992589748942891e+00,	 2.1375204155839617e+02,	 -3.2473217887128763e-03,	 3.0795183457860267e+03,	 3.5431722119425745e+06,	 1.1137055512836357e+03,	 1.9192868468393312e-01 
-1.8776689999999999e-02,	 6.0385800000000009e-04,	 3.9984077339427593e+00,	 2.1532682889569560e+02,	 -2.8033952384438476e-01,	 3.0799569022976975e+03,	 3.5429225273125838e+06,	 1.1137848502808865e+03,	 1.9332908984345096e-01 
-1.7033540000000000e-02,	 6.0126280000000003e-04,	 3.9975633869219616e+00,	 2.1853702261858578e+02,	 -5.7859489966187094e-01,	 3.0801780521538785e+03,	 3.5424287038874724e+06,	 1.1138248360576238e+03,	 1.9620480840574403e-01 
-1.5323790000000000e-02,	 5.8577970000000005e-04,	 3.9965031079303999e+00,	 2.2328395424648991e+02,	 -9.4336918774298306e-01,	 3.0803905128965498e+03,	 3.5417334213591018e+06,	 1.1138632494167337e+03,	 2.0046082605765933e-01 
-1.3618000000000000e-02,	 5.6865669999999998e-04,	 3.9953830254333784e+00,	 2.3075685375329962e+02,	 -1.5745232316812747e+00,	 3.0800754672334947e+03,	 3.5403786673814668e+06,	 1.1138062880091707e+03,	 2.0718344643699113e-01 
-1.1913000000000000e-02,	 5.5124700000000004e-04,	 3.9929553203318804e+00,	 2.4307643677599037e+02,	 -2.5040952961772214e+00,	 3.0786447400044858e+03,	 3.5365838918936090e+06,	 1.1135475706336479e+03,	 2.1830170621968359e-01 
-1.0209060000000001e-02,	 5.3426610000000007e-04,	 3.9860238833741066e+00,	 2.6274705753674237e+02,	 -3.7297738640074711e+00,	 3.0753504813787122e+03,	 3.5266669771020031e+06,	 1.1129516435567484e+03,	 2.3610507281065263e-01 
-8.5057280000000006e-03,	 5.1716290000000003e-04,	 3.9699702256308425e+00,	 2.9235759338206947e+02,	 -5.1891848357370041e+00,	 3.0689109203205599e+03,	 3.5051085293605309e+06,	 1.1117858128989437e+03,	 2.6300357401289592e-01 
-6.8039939999999998e-03,	 4.9962810000000004e-04,	 3.9379286497446668e+00,	 3.3477161793105967e+02,	 -6.7851898296970568e+00,	 3.0575219684140684e+03,	 3.4639161180020217e+06,	 1.1097209363349491e+03,	 3.0173385164952093e-01 
-5.1029780000000002e-03,	 4.8187229999999999e-04,	 3.8798308641264585e+00,	 3.9320815736988214e+02,	 -8.4091038166149747e+00,	 3.0384166167592566e+03,	 3.3914861942205247e+06,	 1.1062483802696192e+03,	 3.5552419525551326e-01 
-3.4014549999999998e-03,	 4.6530569999999997e-04,	 3.7794789982512724e+00,	 4.7153715520289802e+02,	 -1.0023981295247472e+01,	 3.0070722413872491e+03,	 3.2696836491719685e+06,	 1.1005275461501280e+03,	 4.2856145690131370e-01 
-1.7006840000000000e-03,	 4.4840640000000002e-04,	 3.6097874122071660e+00,	 5.7458568945365801e+02,	 -1.0555096479888318e+01,	 2.9552528546459434e+03,	 3.0690658668031711e+06,	 1.0910039157569895e+03,	 5.2674662404577022e-01 
0.0000000000000000e+00,	 4.2653059999999999e-04,	 3.4900234494869427e+00,	 6.5879866489157234e+02,	 -8.8261370308060538e+00,	 2.8991161642293528e+03,	 2.9108773033999531e+06,	 1.0805921176474199e+03,	 6.0971922224241615e-01 
-5.0000000000000003e-02,	 1.0183672999999999e-03,	 4.0552709422773159e+00,	 1.7558302607268217e+02,	 -3.2228848324093851e-01,	 3.0855735797683897e+03,	 3.5998609055594988e+06,	 1.1147999490357486e+03,	 1.5750208995786094e-01 
-4.8262790000000000e-02,	 1.0122824999999999e-03,	 4.0581287994379718e+00,	 1.7648558227767239e+02,	 -8.9580532105784383e-01,	 3.0864769734713395e+03,	 3.6034525325855878e+06,	 1.1149631325612561e+03,	 1.5829030626459414e-01 
-4.6525930000000000e-02,	 1.0060274000000000e-03,	 4.0581675802855379e+00,	 1.8203050212419936e+02,	 -1.8419479801033536e+00,	 3.0859302672881986e+03,	 3.6028486844782927e+06,	 1.1148643817461971e+03,	 1.6328427395076683e-01 
-4.4788090000000003e-02,	 9.9959989999999998e-04,	 4.0540273969233684e+00,	 1.9046560841347622e+02,	 -2.1787802245735524e+00,	 3.0841024712697190e+03,	 3.5970412324084714e+06,	 1.1145341658420884e+03,	 1.7090375120785337e-01 
-4.3048830000000003e-02,	 9.9309490000000001e-04,	 4.0461760694937654e+00,	 1.9926245213050015e+02,	 -1.8881148800735463e+00,	 3.0822159920311260e+03,	 3.5878789662449919e+06,	 1.1141932453955378e+03,	 1.7884814702130189e-01 
-4.1306770000000000e-02,	 9.8643920000000005e-04,	 4.0371456409615902e+00,	 2.0660571118357666e+02,	 -1.2543550061622533e+00,	 3.0805462569629544e+03,	 3.5779320538331689e+06,	 1.1138914074373583e+03,	 1.8548443548503876e-01 
-3.9564030000000000e-02,	 9.7969870000000001e-04,	 4.0289484364316301e+00,	 2.1173516155950813e+02,	 -5.6288577540677154e-01,	 3.0792100635984812e+03,	 3.5691184731315481e+06,	 1.1136498048749272e+03,	 1.9012790989689152e-01 
-3.7820079999999999e-02,	 9.7281720000000002e-04,	 4.0223940970221683e+00,	 2.1470881611996299e+02,	 5.0084597848879669e-03,	 3.0783089810853312e+03,	 3.5622694429619359e+06,	 1.1134868468810118e+03,	 1.9282564206285818e-01 
-3.6076310000000000e-02,	 9.6584720000000000e-04,	 4.0175688558275606e+00,	 2.1598990539728274e+02,	 4.0031886337549633e-01,	 3.0777750046119495e+03,	 3.5573789796606959e+06,	 1.1133902676276050e+03,	 1.9399332170885938e-01 
-3.4332799999999997e-02,	 9.5871800000000001e-04,	 4.0141543287114789e+00,	 2.1612924475242281e+02,	 6.3476933472668895e-01,	 3.0775552545380806e+03,	 3.5541017899352270e+06,	 1.1133505194392869e+03,	 1.9412590476422023e-01 
-3.2589519999999997e-02,	 9.5149090000000002e-04,	 4.0115868645555288e+00,	 2.1569800948423222e+02,	 7.5171173926469348e-01,	 3.0776132522997991e+03,	 3.5518955122816628e+06,	 1.1133610101581494e+03,	 1.9373708741120585e-01 
-3.0846740000000001e-02,	 9.4410950000000000e-04,	 4.0095345140413690e+00,	 2.1500240518392204e+02,	 7.5885743350290791e-01,	 3.0777014370361881e+03,	 3.5501800650294120e+06,	 1.1133769609511560e+03,	 1.9310956839011881e-01 
-2.9104209999999998e-02,	 9.3662760000000009e-04,	 4.0076450479689072e+00,	 2.1424465512286753e+02,	 7.2005710661386013e-01,	 3.0778943835435502e+03,	 3.5487295287790610e+06,	 1.1134118601825464e+03,	 1.9242283363863416e-01 
-2.7362379999999999e-02,	 9.2897630000000008e-04,	 4.0058085203559068e+00,	 2.1360751896390670e+02,	 6.5486200832797337e-01,	 3.0781392892896329e+03,	 3.5473855423294338e+06,	 1.1134561559744575e+03,	 1.9184277856739654e-01 
-2.5620810000000001e-02,	 9.2122800000000006e-04,	 4.0040060311125520e+00,	 2.1317616168950110e+02,	 5.4386730705453368e-01,	 3.0784347638148147e+03,	 3.5461296940183830e+06,	 1.1135095957319254e+03,	 1.9144590785592103e-01 
-2.3879689999999999e-02,	 9.1342550000000000e-04,	 4.0022597312764594e+00,	 2.1303106034283695e+02,	 3.9623225396287209e-01,	 3.0787601947702269e+03,	 3.5449578004782577e+06,	 1.1135684504654309e+03,	 1.9130519434556822e-01 
-2.2138470000000000e-02,	 9.0623760000000005e-04,	 4.0006611965454315e+00,	 2.1324864960435681e+02,	 2.0757393295698787e-01,	 3.0791214320254312e+03,	 3.5439576868658084e+06,	 1.1136337771856370e+03,	 1.9148911877328764e-01 
-2.0395630000000001e-02,	 9.0023820000000000e-04,	 3.9993592650239305e+00,	 2.1406049361413147e+02,	 -4.4989401254828185e-02,	 3.0795311711362392e+03,	 3.5432758214148111e+06,	 1.1137078704204705e+03,	 1.9220524881543516e-01 
-1.8652209999999999e-02,	 8.9462210000000001e-04,	 3.9984575717293014e+00,	 2.1590515920542393e+02,	 -4.4881855962351247e-01,	 3.0799348265428257e+03,	 3.5429412933434071e+06,	 1.1137808587176646e+03,	 1.9384928732769302e-01 
-1.6897949999999998e-02,	 8.9287019999999999e-04,	 3.9976066060277171e+00,	 2.1922903775513566e+02,	 -8.9323994051091804e-01,	 3.0801513353231308e+03,	 3.5424362757373163e+06,	 1.1138200055034072e+03,	 1.9682790432884459e-01 
-1.5199280000000001e-02,	 8.6649720000000000e-04,	 3.9964957910265686e+00,	 2.2391515263128653e+02,	 -1.4348058447801448e+00,	 3.0803717452546325e+03,	 3.5417053586712638e+06,	 1.1138598562400630e+03,	 2.0103045128304711e-01 
-1.3506550000000001e-02,	 8.3673750000000000e-04,	 3.9953383209967432e+00,	 2.3134766980136484e+02,	 -2.3716363998822230e+00,	 3.0800387726424769e+03,	 3.5402968760415362e+06,	 1.1137996533035644e+03,	 2.0772122265151224e-01 
-1.1814830000000000e-02,	 8.0649020000000005e-04,	 3.9926238864781438e+00,	 2.4357957874342091e+02,	 -3.7519607680397455e+00,	 3.0786040549761210e+03,	 3.5362436060652989e+06,	 1.1135402127102752e+03,	 2.1876935451434951e-01 
-1.0124550000000000e-02,	 7.7655800000000000e-04,	 3.9852552733052500e+00,	 2.6314814892669716e+02,	 -5.5260422441593784e+00,	 3.0752967037068693e+03,	 3.5259252852986180e+06,	 1.1129419125992069e+03,	 2.3649586943568160e-01 
-8.4348909999999999e-03,	 7.4647960000000008e-04,	 3.9686966589719659e+00,	 2.9269435626488297e+02,	 -7.5895240668860176e+00,	 3.0688352522810433e+03,	 3.5038976950170891e+06,	 1.1117721065429141e+03,	 2.6335679377183663e-01 
-6.7472430000000000e-03,	 7.1582860000000005e-04,	 3.9361693778151485e+00,	 3.3483611656490427e+02,	 -9.8319549864071440e+00,	 3.0574709122185345e+03,	 3.4623107948995014e+06,	 1.1097116709288084e+03,	 3.0186258689134543e-01 
-5.0602939999999999e-03,	 6.8494830000000000e-04,	 3.8773570599616001e+00,	 3.9275548739751673e+02,	 -1.2160826391092794e+01,	 3.0384814935542236e+03,	 3.3893961310635279e+06,	 1.1062601906095588e+03,	 3.5520008087557259e-01 
-3.3723709999999999e-03,	 6.5591580000000003e-04,	 3.7767592494608038e+00,	 4.7052643064646742e+02,	 -1.4290454240690444e+01,	 3.0073328562843394e+03,	 3.2676139247358455e+06,	 1.1005752350042833e+03,	 4.2772486133196791e-01 
-1.6851870000000001e-03,	 6.2646750000000008e-04,	 3.6071639794030705e+00,	 5.7304875214688036e+02,	 -1.4821424861704729e+01,	 2.9558174517105499e+03,	 3.0674213211087780e+06,	 1.0911081281917614e+03,	 5.2537450427382115e-01 
0.0000000000000000e+00,	 5.8979590000000004e-04,	 3.4877012107155085e+00,	 6.5699457761787698e+02,	 -1.2570977216016070e+01,	 2.9000432820701499e+03,	 2.9098706842585132e+06,	 1.0807648868798049e+03,	 6.0800905131114313e-01 
-5.0000000000000003e-02,	 1.3244900000000000e-03,	 4.0553150621831824e+00,	 1.7561759782589621e+02,	 -4.4247531683227215e-01,	 3.0855621271612554e+03,	 3.5998867091527204e+06,	 1.1147978801533568e+03,	 1.5753362862304082e-01 
-4.8255010000000001e-02,	 1.3184840000000000e-03,	 4.0582023803639053e+00,	 1.7661319524366675e+02,	 -1.2019584795338725e+00,	 3.0864395548660000e+03,	 3.6034741825401457e+06,	 1.1149563739668727e+03,	 1.5840735058653643e-01 
-4.6510320000000001e-02,	 1.3123130000000001e-03,	 4.0582261289126862e+00,	 1.8233058608087754e+02,	 -2.4424529982977572e+00,	 3.0858634377571061e+03,	 3.6028226389110312e+06,	 1.1148523098163748e+03,	 1.6356152557004813e-01 
-4.4764510000000000e-02,	 1.3059480000000001e-03,	 4.0539553078834363e+00,	 1.9091814996404287e+02,	 -2.8746478413111936e+00,	 3.0840228477219057e+03,	 3.5968844048847314e+06,	 1.1145197785546916e+03,	 1.7132023508877714e-01 
-4.3017479999999997e-02,	 1.2995070000000001e-03,	 4.0459811119083504e+00,	 1.9978572391119016e+02,	 -2.4698050536442073e+00,	 3.0821245535186445e+03,	 3.5875996562397750e+06,	 1.1141767181747239e+03,	 1.7932612149148244e-01 
-4.1267520000000002e-02,	 1.2928770000000000e-03,	 4.0369126325959392e+00,	 2.0711732942738590e+02,	 -1.6227250492682206e+00,	 3.0804421069357900e+03,	 3.5776045903562848e+06,	 1.1138725775300559e+03,	 1.8594917442068037e-01 
-3.9517040000000003e-02,	 1.2861640000000000e-03,	 4.0287381133511433e+00,	 2.1218156304597852e+02,	 -7.1368410880185085e-01,	 3.0791203644105863e+03,	 3.5688281894630613e+06,	 1.1136335841221153e+03,	 1.9053193646930758e-01 
-3.7765600000000003e-02,	 1.2792890000000001e-03,	 4.0222503509996086e+00,	 2.1507141227252401e+02,	 3.1332441801655050e-02,	 3.0782456064033277e+03,	 3.5620688045573523e+06,	 1.1134753848675375e+03,	 1.9315327260730214e-01 
-3.6014329999999997e-02,	 1.2723270000000000e-03,	 4.0175198641521357e+00,	 2.1627498232573623e+02,	 5.4553356134715458e-01,	 3.0777309314261929e+03,	 3.5572846592982356e+06,	 1.1133822958246494e+03,	 1.9425104132209159e-01 
-3.4263349999999998e-02,	 1.2651600000000000e-03,	 4.0141645201964176e+00,	 2.1635590693901457e+02,	 8.4664335354985198e-01,	 3.0775383717204395e+03,	 3.5540913162979656e+06,	 1.1133474656322853e+03,	 1.9433067407311905e-01 
-3.2512569999999998e-02,	 1.2578950000000000e-03,	 4.0116485689970274e+00,	 2.1588850073255253e+02,	 9.9316800508638892e-01,	 3.0775960619470547e+03,	 3.5519303061411581e+06,	 1.1133579007526371e+03,	 1.9390960000106261e-01 
-3.0762319999999999e-02,	 1.2504480000000001e-03,	 4.0096500065381688e+00,	 2.1517001689707843e+02,	 9.9280795915849374e-01,	 3.0777094410789441e+03,	 3.5502915591301252e+06,	 1.1133784087054601e+03,	 1.9326071499283079e-01 