TITLE = "Final State"
VARIABLES = "X", "Y", "rho", "u", "v", "T", "p", "c", "M"
ZONE I=76, J=11, DATAPACKING=POINT, STRANDID=5000, SOLUTIONTIME=0.000179
1.3189049999999999e-01,	 2.9082609999999998e-02,	 1.9804721626207802e+00,	 3.8148202757886418e+02,	 1.2800990037541280e+02,	 3.8530766541117362e+02,	 2.1953629415911861e+05,	 3.9394247682104208e+02,	 1.0214352172934249e+00 
1.3317570000000001e-01,	 2.9113730000000001e-02,	 1.9662952086693171e+00,	 3.7473348972700063e+02,	 1.2376224013484011e+02,	 3.8371947998707208e+02,	 2.1706635104075729e+05,	 3.9312975000205483e+02,	 1.0038466049175059e+00 
1.3446880000000000e-01,	 2.9145029999999999e-02,	 1.9111339455191587e+00,	 3.6071313902466250e+02,	 1.1258054599257417e+02,	 3.7825831197694981e+02,	 2.0797423912091204e+05,	 3.9032217635048983e+02,	 9.6810654865391632e-01 
1.3577000000000000e-01,	 2.9176540000000001e-02,	 1.7681780054970324e+00,	 3.3396983464695444e+02,	 9.0877767882318963e+01,	 3.6452962879052683e+02,	 1.8543373880101263e+05,	 3.8317344466709289e+02,	 9.0328178441965434e-01 
1.3707949999999999e-01,	 2.9208240000000000e-02,	 1.5386917028474456e+00,	 2.8668869650410517e+02,	 5.7086370143435559e+01,	 3.4061452889909339e+02,	 1.5078033998215030e+05,	 3.7039112419440426e+02,	 7.8921183268120987e-01 
1.3839720000000000e-01,	 2.9240139999999998e-02,	 1.3152791656101215e+00,	 2.3380621017983623e+02,	 2.3038036936922691e+01,	 3.1545125457794006e+02,	 1.1936586162101214e+05,	 3.5644712491129502e+02,	 6.5911176067537980e-01 
1.3972350000000000e-01,	 2.9272250000000000e-02,	 1.1955229673308798e+00,	 2.0368354108137981e+02,	 4.6854485602395259e+00,	 3.0225984418256479e+02,	 1.0396048942713480e+05,	 3.4891465717884194e+02,	 5.8391764514238698e-01 
1.4105830000000000e-01,	 2.9304569999999999e-02,	 1.1593924034987666e+00,	 1.9480122925016929e+02,	 -7.8274692374532084e-01,	 2.9851070302458538e+02,	 9.9568117286075038e+04,	 3.4674398830590252e+02,	 5.6180585222439772e-01 
1.4240190000000000e-01,	 2.9337099999999998e-02,	 1.1531329498480418e+00,	 1.9342297901855443e+02,	 -1.7090078050679873e+00,	 2.9787183417121753e+02,	 9.8818614163214312e+04,	 3.4637274100276795e+02,	 5.5844616514772483e-01 
1.4375430000000000e-01,	 2.9369839999999998e-02,	 1.1535927252441480e+00,	 1.9367426726708004e+02,	 -1.6247791216623417e+00,	 2.9792273560107083e+02,	 9.8874908188682297e+04,	 3.4640233445977577e+02,	 5.5912175874020520e-01 
1.4511569999999999e-01,	 2.9402800000000000e-02,	 1.1553290978649458e+00,	 1.9425484854099528e+02,	 -1.3887811071071670e+00,	 2.9810060961496333e+02,	 9.9082855270988322e+04,	 3.4650572834704832e+02,	 5.6062511229602985e-01 
1.4648620000000001e-01,	 2.9435980000000000e-02,	 1.1572810423634641e+00,	 1.9488194310962552e+02,	 -1.1572606985520557e+00,	 2.9830174109361519e+02,	 9.9317222272522413e+04,	 3.4662260408554590e+02,	 5.6224082573626921e-01 
1.4786589999999999e-01,	 2.9469389999999998e-02,	 1.1593058404437091e+00,	 1.9552582489636200e+02,	 -9.5080660387410043e-01,	 2.9850985903427727e+02,	 9.9560401796823833e+04,	 3.4674349812452976e+02,	 5.6389849482471865e-01 
1.4925500000000000e-01,	 2.9503019999999998e-02,	 1.1613403395859629e+00,	 1.9616720603326476e+02,	 -7.6876602964279517e-01,	 2.9871880642162193e+02,	 9.9804934615211620e+04,	 3.4686483159456634e+02,	 5.6554800178717413e-01 
1.5065360000000000e-01,	 2.9536879999999998e-02,	 1.1633235779013658e+00,	 1.9678818421302486e+02,	 -6.1123400883681822e-01,	 2.9892201732745400e+02,	 1.0004338373566078e+05,	 3.4698279325550686e+02,	 5.6714378147169486e-01 
1.5206190000000000e-01,	 2.9570969999999999e-02,	 1.1651936418235329e+00,	 1.9737053732046161e+02,	 -4.7775587223179389e-01,	 2.9911332966943746e+02,	 1.0026833675018669e+05,	 3.4709381129549109e+02,	 5.6863910886738978e-01 
1.5347990000000000e-01,	 2.9605300000000001e-02,	 1.1669037898620207e+00,	 1.9789977593697756e+02,	 -3.6706251750300523e-01,	 2.9928790032980191e+02,	 1.0047410522626528e+05,	 3.4719508320746229e+02,	 5.6999688624728606e-01 
1.5490789999999999e-01,	 2.9639869999999999e-02,	 1.1684165941248834e+00,	 1.9836545288769665e+02,	 -2.7790418224242580e-01,	 2.9944198844219306e+02,	 1.0065615852328048e+05,	 3.4728444824825527e+02,	 5.7119070132851091e-01 
1.5634580000000001e-01,	 2.9674690000000000e-02,	 1.1697156721728841e+00,	 1.9876189472730113e+02,	 -2.0851171714494593e-01,	 2.9957386916953095e+02,	 1.0081245127585343e+05,	 3.4736091562034147e+02,	 5.7220601155488549e-01 
1.5779399999999999e-01,	 2.9709750000000000e-02,	 1.1707916594968111e+00,	 1.9908650793752705e+02,	 -1.5670923902292525e-01,	 2.9968308793346648e+02,	 1.0094197376282405e+05,	 3.4742423034249322e+02,	 5.7303593769906036e-01 
1.5925249999999999e-01,	 2.9745060000000000e-02,	 1.1716571412220820e+00,	 1.9934383948685451e+02,	 -1.2022445680444900e-01,	 2.9977046150403316e+02,	 1.0104604458787726e+05,	 3.4747487297879110e+02,	 5.7369292355352552e-01 
1.6072149999999999e-01,	 2.9780620000000001e-02,	 1.1723282319132120e+00,	 1.9954076881014322e+02,	 -9.6828841172353158e-02,	 2.9983742919408337e+02,	 1.0112650705335877e+05,	 3.4751368315714507e+02,	 5.7419549783142154e-01 
1.6220100000000001e-01,	 2.9816449999999998e-02,	 1.1728354436901900e+00,	 1.9968563579669470e+02,	 -8.4206412820086868e-02,	 2.9988708588991904e+02,	 1.0118701479451802e+05,	 3.4754245819517575e+02,	 5.7456477285793928e-01 
1.6369130000000001e-01,	 2.9852529999999999e-02,	 1.1732011026383469e+00,	 1.9978549802961362e+02,	 -7.9512220249897264e-02,	 2.9992281631845697e+02,	 1.0123062203325996e+05,	 3.4756316177276858e+02,	 5.7481786283979752e-01 
1.6519249999999999e-01,	 2.9888869999999998e-02,	 1.1734584334920437e+00,	 1.9985281453321704e+02,	 -8.0348930033942750e-02,	 2.9994727154817645e+02,	 1.0126108203210655e+05,	 3.4757733135781518e+02,	 5.7498810381060161e-01 
1.6670470000000001e-01,	 2.9925480000000001e-02,	 1.1736341566438027e+00,	 1.9989619236570360e+02,	 -8.3956850235931871e-02,	 2.9996312899507166e+02,	 1.0128159990178872e+05,	 3.4758651899969675e+02,	 5.7509770681558037e-01 
1.6822809999999999e-01,	 2.9962369999999999e-02,	 1.1737505379437274e+00,	 1.9992147272294346e+02,	 -8.8886118394118988e-02,	 2.9997343294068168e+02,	 1.0129512274730370e+05,	 3.4759248886979748e+02,	 5.7516056555941086e-01 
1.6976289999999999e-01,	 2.9999519999999998e-02,	 1.1738204539021106e+00,	 1.9993479416490720e+02,	 -9.3149768971805866e-02,	 2.9997969166346985e+02,	 1.0130327009475653e+05,	 3.4759611498038731e+02,	 5.7519289556921638e-01 
1.7130899999999999e-01,	 3.0036959999999998e-02,	 1.1738660617087104e+00,	 1.9994202884477551e+02,	 -9.5986539298968443e-02,	 2.9998349362532554e+02,	 1.0130849012215354e+05,	 3.4759831770113772e+02,	 5.7521006777973083e-01 
1.7286679999999999e-01,	 3.0074669999999998e-02,	 1.1738888406142336e+00,	 1.9994411472384104e+02,	 -9.6704022808625167e-02,	 2.9998595550562425e+02,	 1.0131128744285528e+05,	 3.4759974401910631e+02,	 5.7521370930167925e-01 
1.7443639999999999e-01,	 3.0112670000000001e-02,	 1.1739019948111271e+00,	 1.9994539410629235e+02,	 -9.5211466508180714e-02,	 2.9998743784640772e+02,	 1.0131292332438532e+05,	 3.4760060282704535e+02,	 5.7521596668526231e-01 
1.7601790000000000e-01,	 3.0150960000000001e-02,	 1.1739081547772154e+00,	 1.9994591930410314e+02,	 -9.1913148715709020e-02,	 2.9998852601523481e+02,	 1.0131382245918014e+05,	 3.4760123326643969e+02,	 5.7521642990438204e-01 
1.7761150000000001e-01,	 3.0189540000000001e-02,	 1.1739100092563532e+00,	 1.9994647826357726e+02,	 -8.7255091720789046e-02,	 2.9998928228838588e+02,	 1.0131423792274666e+05,	 3.4760167141872142e+02,	 5.7521730688527983e-01 
1.7921730000000000e-01,	 3.0228419999999999e-02,	 1.1739102232070215e+00,	 1.9994714805669184e+02,	 -8.1837383484879539e-02,	 2.9998996788426865e+02,	 1.0131448793147603e+05,	 3.4760206862314283e+02,	 5.7521856989086417e-01 
1.8083540000000001e-01,	 3.0267590000000000e-02,	 1.1739085821068591e+00,	 1.9994777062861323e+02,	 -7.6020225748106407e-02,	 2.9999047227348086e+02,	 1.0131451664133507e+05,	 3.4760236084401458e+02,	 5.7521987075858605e-01 
1.8246609999999999e-01,	 3.0307069999999998e-02,	 1.1739076761987830e+00,	 1.9994959537426169e+02,	 -7.0246366825157225e-02,	 2.9999077445231575e+02,	 1.0131454051018329e+05,	 3.4760253591299119e+02,	 5.7522482449265244e-01 
1.8410950000000001e-01,	 3.0346860000000000e-02,	 1.1739066472561055e+00,	 1.9995173745758805e+02,	 -6.4818178966860263e-02,	 2.9999097152074529e+02,	 1.0131451826188079e+05,	 3.4760265008562658e+02,	 5.7523079272945354e-01 
1.8576570000000001e-01,	 3.0386960000000001e-02,	 1.1739059280693043e+00,	 1.9995360561417138e+02,	 -5.9827784015419626e-02,	 2.9999115733618584e+02,	 1.0131451894667745e+05,	 3.4760275773874895e+02,	 5.7523598450544455e-01 
1.8743489999999999e-01,	 3.0427369999999999e-02,	 1.1739048243371264e+00,	 1.9995508047523333e+02,	 -5.5237875516913074e-02,	 2.9999133130719258e+02,	 1.0131448244284405e+05,	 3.4760285852970810e+02,	 5.7524005685906854e-01 
1.8911729999999999e-01,	 3.0468099999999998e-02,	 1.1739041381131050e+00,	 1.9995749467445586e+02,	 -5.1144676406320241e-02,	 2.9999125460512687e+02,	 1.0131439731374659e+05,	 3.4760281409199234e+02,	 5.7524707254634688e-01 
1.9081300000000001e-01,	 3.0509160000000000e-02,	 1.1739040190580778e+00,	 1.9996018173611765e+02,	 -4.7557259712648549e-02,	 2.9999116234762550e+02,	 1.0131435588102593e+05,	 3.4760276064215162e+02,	 5.7525488871859076e-01 
1.9252210000000000e-01,	 3.0550540000000001e-02,	 1.1739038120692400e+00,	 1.9996169347611328e+02,	 -4.4319855964001731e-02,	 2.9999116845035496e+02,	 1.0131434007779458e+05,	 3.4760276417779841e+02,	 5.7525922977240151e-01 
1.9424500000000000e-01,	 3.0592249999999998e-02,	 1.1739032648542662e+00,	 1.9996280000247117e+02,	 -4.1305274328853434e-02,	 2.9999126154173393e+02,	 1.0131432428935611e+05,	 3.4760281811074969e+02,	 5.7526232196675897e-01 
1.9598160000000001e-01,	 3.0634289999999998e-02,	 1.1739033120170161e+00,	 1.9996484401207238e+02,	 -3.8462303860963970e-02,	 2.9999110668797107e+02,	 1.0131427606188820e+05,	 3.4760272839545092e+02,	 5.7526834911262315e-01 
1.9773220000000000e-01,	 3.0676679999999998e-02,	 1.1739051677953758e+00,	 1.9996674883766701e+02,	 -3.5819157258590348e-02,	 2.9999115890072346e+02,	 1.0131445385925144e+05,	 3.4760275864517166e+02,	 5.7527377753021181e-01 
1.9949700000000001e-01,	 3.0719400000000001e-02,	 1.1739049917784352e+00,	 1.9996706241796943e+02,	 -3.3188252807117673e-02,	 2.9999144970586786e+02,	 1.0131453688011839e+05,	 3.4760292712454668e+02,	 5.7527439951742632e-01 
2.0127610000000001e-01,	 3.0762470000000000e-02,	 1.1739068734488036e+00,	 1.9996898064710308e+02,	 -3.0539326308950572e-02,	 2.9999147582308314e+02,	 1.0131470809919210e+05,	 3.4760294225567839e+02,	 5.7527989171047988e-01 
2.0306969999999999e-01,	 3.0805900000000001e-02,	 1.1739101418125732e+00,	 1.9997121064714310e+02,	 -2.8062380715956230e-02,	 2.9999150665332047e+02,	 1.0131500058938745e+05,	 3.4760296011732083e+02,	 5.7528627647093833e-01 
2.0487790000000000e-01,	 3.0849680000000001e-02,	 1.1739123170487655e+00,	 1.9997183793783506e+02,	 -2.5690263291757390e-02,	 2.9999187718461735e+02,	 1.0131531346278769e+05,	 3.4760317478629139e+02,	 5.7528772489199909e-01 
2.0670100000000000e-01,	 3.0893810000000001e-02,	 1.1739134371001205e+00,	 1.9997224969138625e+02,	 -2.3261923416921605e-02,	 2.9999222099420956e+02,	 1.0131552624343699e+05,	 3.4760337397380385e+02,	 5.7528857892914764e-01 
2.0853910000000001e-01,	 3.0938310000000000e-02,	 1.1739166249286557e+00,	 1.9997395707724061e+02,	 -2.0923278556232640e-02,	 2.9999234862961134e+02,	 1.0131584447755732e+05,	 3.4760344791987387e+02,	 5.7529336768241190e-01 
2.1039230000000000e-01,	 3.0983179999999999e-02,	 1.1739196165135091e+00,	 1.9997495535328611e+02,	 -1.8755380100062502e-02,	 2.9999264623333511e+02,	 1.0131620317815532e+05,	 3.4760362033769604e+02,	 5.7529595358797403e-01 
2.1226100000000001e-01,	 3.1028420000000001e-02,	 1.1739215240157386e+00,	 1.9997572232922863e+02,	 -1.6632591388149133e-02,	 2.9999289287341958e+02,	 1.0131645110450852e+05,	 3.4760376322947980e+02,	 5.7529792302306315e-01 
2.1414510000000000e-01,	 3.1074040000000001e-02,	 1.1739251869263641e+00,	 1.9997706666215285e+02,	 -1.4669584451407196e-02,	 2.9999308258504948e+02,	 1.0131683130702542e+05,	 3.4760387313952702e+02,	 5.7530160810359032e-01 
2.1604499999999999e-01,	 3.1120039999999998e-02,	 1.1739282329621337e+00,	 1.9997732204412964e+02,	 -1.2866802659948811e-02,	 2.9999349039694118e+02,	 1.0131723192919834e+05,	 3.4760410940654975e+02,	 5.7530195140522411e-01 
2.1796080000000001e-01,	 3.1166420000000000e-02,	 1.1739316929245631e+00,	 1.9997732228216006e+02,	 -1.1113211514719532e-02,	 2.9999397952367013e+02,	 1.0131769573921061e+05,	 3.4760439278335144e+02,	 5.7530148278532256e-01 
2.1989259999999999e-01,	 3.1213189999999998e-02,	 1.1739375901896536e+00,	 1.9997774607694510e+02,	 -9.4619643582868583e-03,	 2.9999449976124333e+02,	 1.0131838041229741e+05,	 3.4760469418404563e+02,	 5.7530220289519474e-01 
2.2184080000000000e-01,	 3.1260360000000001e-02,	 1.1739457333985612e+00,	 1.9997722277918933e+02,	 -7.9184375096193749e-03,	 2.9999542409823886e+02,	 1.0131939540602507e+05,	 3.4760522969991575e+02,	 5.7529981096256733e-01 
2.2380539999999999e-01,	 3.1307920000000003e-02,	 1.1739555251600269e+00,	 1.9997618942338210e+02,	 -6.3534280228779196e-03,	 2.9999652485919023e+02,	 1.0132061227097263e+05,	 3.4760586742616357e+02,	 5.7529578256266634e-01 
2.2578660000000000e-01,	 3.1355890000000004e-02,	 1.1739700856042217e+00,	 1.9997476649299313e+02,	 -4.8419221059150331e-03,	 2.9999804888879930e+02,	 1.0132238367069300e+05,	 3.4760675037132717e+02,	 5.7529022764370996e-01 
2.2778470000000001e-01,	 3.1404260000000003e-02,	 1.1739861644064993e+00,	 1.9997222192381906e+02,	 -3.2752900711505608e-03,	 2.9999991454652491e+02,	 1.0132440151373408e+05,	 3.4760783123537522e+02,	 5.7528111849480945e-01 
2.2979980000000000e-01,	 3.1453050000000003e-02,	 1.1740074838664549e+00,	 1.9996923668666165e+02,	 -1.6430178061767071e-03,	 3.0000213107788426e+02,	 1.0132699019660299e+05,	 3.4760911537280020e+02,	 5.7527040531992524e-01 
2.3183210000000001e-01,	 3.1502250000000002e-02,	 1.1740294915548741e+00,	 1.9996537502051450e+02,	 1.3442065676982391e-04,	 3.0000452488984018e+02,	 1.0132969818555871e+05,	 3.4761050221160940e+02,	 5.7525700100634436e-01 
2.3388180000000000e-01,	 3.1551880000000004e-02,	 1.1740542553950462e+00,	 1.9996164045688198e+02,	 1.9721469171891659e-03,	 3.0000695733651287e+02,	 1.0133265713789397e+05,	 3.4761191142751358e+02,	 5.7524392546112335e-01 
2.3594909999999999e-01,	 3.1601930000000000e-02,	 1.1740773590453291e+00,	 1.9995654474624860e+02,	 4.0372999127362107e-03,	 3.0000948257714310e+02,	 1.0133550417610646e+05,	 3.4761337439671081e+02,	 5.7522684544009584e-01 
2.3803430000000000e-01,	 3.1652410000000006e-02,	 1.1740983083818568e+00,	 1.9995212034297714e+02,	 6.3565382606789412e-03,	 3.0001164414242515e+02,	 1.0133804246348327e+05,	 3.4761462666987529e+02,	 5.7521204547559779e-01 
2.4013740000000000e-01,	 3.1703330000000002e-02,	 1.1741172061376426e+00,	 1.9994832066861721e+02,	 8.8136345656649011e-03,	 3.0001346245515174e+02,	 1.0134028775504018e+05,	 3.4761568008089159e+02,	 5.7519937195105519e-01 
2.4225880000000000e-01,	 3.1754690000000002e-02,	 1.1741327554562471e+00,	 1.9994338812726193e+02,	 1.1683539839049295e-02,	 3.0001523583642296e+02,	 1.0134222887723061e+05,	 3.4761670745849767e+02,	 5.7518348278036313e-01 
2.4439859999999999e-01,	 3.1806490000000000e-02,	 1.1741459486916397e+00,	 1.9993851177496927e+02,	 1.5140166721877658e-02,	 3.0001670098911535e+02,	 1.0134386253707668e+05,	 3.4761755626694503e+02,	 5.7516805104822977e-01 
2.4655700000000000e-01,	 3.1858750000000005e-02,	 1.1741601817510956e+00,	 1.9993315932170273e+02,	 1.9311707542981393e-02,	 3.0001819932690921e+02,	 1.0134559716850986e+05,	 3.4761842429840851e+02,	 5.7515121834491589e-01 
2.4873419999999999e-01,	 3.1911460000000003e-02,	 1.1741754343442312e+00,	 1.9992560987604739e+02,	 2.5076405922691052e-02,	 3.0001998900206047e+02,	 1.0134751822643542e+05,	 3.4761946110739160e+02,	 5.7512778718373825e-01 
2.5093040000000000e-01,	 3.1964630000000001e-02,	 1.1741963638708812e+00,	 1.9991794474673532e+02,	 3.4308405846233334e-02,	 3.0002177133519831e+02,	 1.0134992682037658e+05,	 3.4762049365986718e+02,	 5.7510403252065345e-01 
2.5314589999999998e-01,	 3.2018270000000001e-02,	 1.1742272419910225e+00,	 1.9991413865309141e+02,	 5.2230764253920557e-02,	 3.0002283043897523e+02,	 1.0135294982717402e+05,	 3.4762110722509482e+02,	 5.7509207962651732e-01 
2.5538080000000002e-01,	 3.2072380000000004e-02,	 1.1742776552930549e+00,	 1.9992886008536695e+02,	 9.4795536009695258e-02,	 3.0002036873254053e+02,	 1.0135646958785146e+05,	 3.4761968109550560e+02,	 5.7513683324482090e-01 
2.5763550000000002e-01,	 3.2126960000000003e-02,	 1.1742461671164151e+00,	 2.0001126549338946e+02,	 1.6489046883596409e-01,	 3.0000497865759570e+02,	 1.0134855260112640e+05,	 3.4761076509827382e+02,	 5.7538877832270396e-01 
2.5990999999999997e-01,	 3.2182030000000000e-02,	 1.1741713676060466e+00,	 2.0009676423089456e+02,	 2.5504221552531930e-01,	 2.9998659516727594e+02,	 1.0133588672732330e+05,	 3.4760011461330214e+02,	 5.7565264899616697e-01 
1.3188630000000001e-01,	 2.9457479999999998e-02,	 1.9779222975201001e+00,	 3.8077963463721068e+02,	 1.2773059620785708e+02,	 3.8481501000768128e+02,	 2.1897330209679785e+05,	 3.9369054831803368e+02,	 1.0201717231490701e+00 
1.3317150000000000e-01,	 2.9489399999999999e-02,	 1.9602060907863974e+00,	 3.7359831618179476e+02,	 1.2293131954134077e+02,	 3.8295919939511964e+02,	 2.1596540014485482e+05,	 3.9274009410498167e+02,	 1.0014350955315960e+00 
1.3446459999999999e-01,	 2.9521519999999999e-02,	 1.8948951547920250e+00,	 3.5805352599678156e+02,	 1.1026738684017977e+02,	 3.7653293851177773e+02,	 2.0526650905215889e+05,	 3.8943095833187294e+02,	 9.6203993461980208e-01 
1.3576579999999999e-01,	 2.9553839999999998e-02,	 1.7380257678166635e+00,	 3.2905512583768819e+02,	 8.6118403294741427e+01,	 3.6118394391379195e+02,	 1.8059868525897583e+05,	 3.8141099163184504e+02,	 8.9178788197476488e-01 
1.3707520000000001e-01,	 2.9586359999999999e-02,	 1.5028623651372361e+00,	 2.8044656004742450e+02,	 5.0826554634625204e+01,	 3.3634472956420478e+02,	 1.4542322552843369e+05,	 3.6806226973947122e+02,	 7.7436654412913408e-01 
1.3839299999999999e-01,	 2.9619090000000001e-02,	 1.2910377390021752e+00,	 2.2938926318451422e+02,	 1.8664864394971879e+01,	 3.1257622622120516e+02,	 1.1609802146443632e+05,	 3.5481907417471427e+02,	 6.4863302243473675e-01 
1.3971919999999999e-01,	 2.9652040000000001e-02,	 1.1864916434706161e+00,	 2.0209139980453503e+02,	 3.0797077534510122e+00,	 3.0126532749398007e+02,	 1.0283566789181420e+05,	 3.4834017241208863e+02,	 5.8022266899974662e-01 
1.4105409999999999e-01,	 2.9685190000000000e-02,	 1.1573833200347683e+00,	 1.9445506630605496e+02,	 -1.1589982019981537e+00,	 2.9829725278615217e+02,	 9.9324505207204449e+04,	 3.4661999639933674e+02,	 5.6101356600066132e-01 
1.4239760000000001e-01,	 2.9718559999999998e-02,	 1.1529312694391556e+00,	 1.9339227240254465e+02,	 -1.7799485253256451e+00,	 2.9785087617227470e+02,	 9.8794379431298556e+04,	 3.4636055554848758e+02,	 5.5837900793783535e-01 
1.4374999999999999e-01,	 2.9752149999999998e-02,	 1.1537311825689718e+00,	 1.9371106602626435e+02,	 -1.6391700238908882e+00,	 2.9793629065815850e+02,	 9.8891274629513384e+04,	 3.4641021477478591e+02,	 5.5921561464739289e-01 
1.4511140000000000e-01,	 2.9785960000000000e-02,	 1.1554927297031448e+00,	 1.9429146809259890e+02,	 -1.3956580477349054e+00,	 2.9811739195967482e+02,	 9.9102467512489384e+04,	 3.4651548192779802e+02,	 5.6071515095690738e-01 
1.4648190000000000e-01,	 2.9819999999999999e-02,	 1.1574298628058086e+00,	 1.9491484036244196e+02,	 -1.1648566344950764e+00,	 2.9831705896921528e+02,	 9.9335094583223938e+04,	 3.4663150355383345e+02,	 5.6232142508887684e-01 
1.4786160000000001e-01,	 2.9854269999999999e-02,	 1.1594366528772775e+00,	 1.9555473413680946e+02,	 -9.5877339253671512e-01,	 2.9852338350538054e+02,	 9.9576147133899824e+04,	 3.4675135292255959e+02,	 5.6396920395632166e-01 
1.4925069999999999e-01,	 2.9888780000000000e-02,	 1.1614545169114610e+00,	 1.9619274331325175e+02,	 -7.7659696115972421e-01,	 2.9873052190624446e+02,	 9.9818661595421057e+04,	 3.4687163339222775e+02,	 5.6561062201808443e-01 
1.5064930000000001e-01,	 2.9923510000000000e-02,	 1.1634214459869450e+00,	 1.9681017549758266e+02,	 -6.1833167950851409e-01,	 2.9893202518088754e+02,	 1.0005514990103955e+05,	 3.4698860166651866e+02,	 5.6719772890785991e-01 
1.5205750000000001e-01,	 2.9958490000000001e-02,	 1.1652766151026090e+00,	 1.9738912502180497e+02,	 -4.8361554788668260e-01,	 2.9912177866570300e+02,	 1.0027830930662916e+05,	 3.4709871340669065e+02,	 5.6868467050068949e-01 
1.5347549999999999e-01,	 2.9993710000000000e-02,	 1.1669722775228311e+00,	 1.9791509161202387e+02,	 -3.7149357930491239e-01,	 2.9929487115455061e+02,	 1.0048234254712056e+05,	 3.4719912650821630e+02,	 5.7003438417429964e-01 
1.5490340000000000e-01,	 3.0029179999999999e-02,	 1.1684720145555390e+00,	 1.9837751283092675e+02,	 -2.8096547057722787e-01,	 2.9944769533062686e+02,	 1.0066285129176745e+05,	 3.4728775757733155e+02,	 5.7121999687754255e-01 
1.5634139999999999e-01,	 3.0064899999999999e-02,	 1.1697584127669352e+00,	 1.9877097397412268e+02,	 -2.1029826622551559e-01,	 2.9957838908044062e+02,	 1.0081765598621957e+05,	 3.4736353606663471e+02,	 5.7222783793573173e-01 
1.5778950000000000e-01,	 3.0100869999999998e-02,	 1.1708247861234595e+00,	 1.9909368264413254e+02,	 -1.5742597762930965e-01,	 2.9968647423839548e+02,	 1.0094597047455220e+05,	 3.4742619321778983e+02,	 5.7305335282739289e-01 
1.5924800000000000e-01,	 3.0137089999999998e-02,	 1.1716816528235561e+00,	 1.9934929154860353e+02,	 -1.2022237212427216e-01,	 2.9977283473462796e+02,	 1.0104895849788250e+05,	 3.4747624842512960e+02,	 5.7370634310576929e-01 
1.6071690000000000e-01,	 3.0173579999999998e-02,	 1.1723460036446556e+00,	 1.9954424662936174e+02,	 -9.6251635306120104e-02,	 2.9983917947304110e+02,	 1.0112863039275640e+05,	 3.4751469744845809e+02,	 5.7420382881158039e-01 
1.6219649999999999e-01,	 3.0210319999999999e-02,	 1.1728465736931821e+00,	 1.9968743203982532e+02,	 -8.2949121217346780e-02,	 2.9988834359903490e+02,	 1.0118839941809255e+05,	 3.4754318698090896e+02,	 5.7456873490404681e-01 
1.6368679999999999e-01,	 3.0247340000000001e-02,	 1.1732094298322047e+00,	 1.9978718342064343e+02,	 -7.7773718513976908e-02,	 2.9992349373445131e+02,	 1.0123156919662014e+05,	 3.4756355428160600e+02,	 5.7482206087913301e-01 
1.6518790000000000e-01,	 3.0284630000000000e-02,	 1.1734642244754041e+00,	 1.9985337049528835e+02,	 -7.8430118588925832e-02,	 2.9994757695095808e+02,	 1.0126168485596239e+05,	 3.4757750830734409e+02,	 5.7498940842875157e-01 
1.6670009999999999e-01,	 3.0322189999999999e-02,	 1.1736373786532885e+00,	 1.9989564331360131e+02,	 -8.1999931901133194e-02,	 2.9996333255460132e+02,	 1.0128194668431379e+05,	 3.4758663693841902e+02,	 5.7509592973150869e-01 
1.6822350000000000e-01,	 3.0360019999999998e-02,	 1.1737514941243177e+00,	 1.9992066723268712e+02,	 -8.6876647410621496e-02,	 2.9997348427389022e+02,	 1.0129522260028437e+05,	 3.4759251861082618e+02,	 5.7515819646535593e-01 
1.6975820000000000e-01,	 3.0398140000000001e-02,	 1.1738212046799257e+00,	 1.9993412582455784e+02,	 -9.1407959240805192e-02,	 2.9997971188830417e+02,	 1.0130334171846205e+05,	 3.4759612669797008e+02,	 5.7519095111695961e-01 
1.7130440000000000e-01,	 3.0436550000000000e-02,	 1.1738648717966120e+00,	 1.9994128028054158e+02,	 -9.4413744190280299e-02,	 2.9998354699707852e+02,	 1.0130840545318366e+05,	 3.4759834862272356e+02,	 5.7520786092394571e-01 
1.7286219999999999e-01,	 3.0475240000000001e-02,	 1.1738885472185356e+00,	 1.9994392751246073e+02,	 -9.5386078381299061e-02,	 2.9998597345430733e+02,	 1.0131126818326628e+05,	 3.4759975441785571e+02,	 5.7521315168923337e-01 
1.7443170000000000e-01,	 3.0514219999999998e-02,	 1.1739015123439001e+00,	 1.9994520355911567e+02,	 -9.4199443772206320e-02,	 2.9998746010785840e+02,	 1.0131288920355475e+05,	 3.4760061572440793e+02,	 5.7521539578502034e-01 
1.7601320000000001e-01,	 3.0553500000000001e-02,	 1.1739076672519964e+00,	 1.9994576135486844e+02,	 -9.1151502492930706e-02,	 2.9998854853020282e+02,	 1.0131378798732859e+05,	 3.4760124631065611e+02,	 5.7521595291778282e-01 
1.7760680000000001e-01,	 3.0593079999999998e-02,	 1.1739096265520250e+00,	 1.9994642661710759e+02,	 -8.6741899271045517e-02,	 2.9998931156600702e+02,	 1.0131421478128720e+05,	 3.4760168838091039e+02,	 5.7521712959412696e-01 
1.7921250000000000e-01,	 3.0632969999999999e-02,	 1.1739097658105264e+00,	 1.9994750420134716e+02,	 -8.1492206678301163e-02,	 2.9998994831324046e+02,	 1.0131444184615936e+05,	 3.4760205728454702e+02,	 5.7521961282432155e-01 
1.8083060000000001e-01,	 3.0673159999999998e-02,	 1.1739086266279768e+00,	 1.9994865400222778e+02,	 -7.5864053177110813e-02,	 2.9999046548054923e+02,	 1.0131451818959467e+05,	 3.4760235690849112e+02,	 5.7522241843413768e-01 
1.8246129999999999e-01,	 3.0713660000000000e-02,	 1.1739076858821482e+00,	 1.9995040965537902e+02,	 -7.0243389687182023e-02,	 2.9999078666633091e+02,	 1.0131454547089439e+05,	 3.4760254298924644e+02,	 5.7522715534321678e-01 
1.8410470000000001e-01,	 3.0754480000000001e-02,	 1.1739067269241907e+00,	 1.9995239887148622e+02,	 -6.4884472765978210e-02,	 2.9999097857408645e+02,	 1.0131452751976055e+05,	 3.4760265417201629e+02,	 5.7523268881609046e-01 
1.8576090000000001e-01,	 3.0795619999999999e-02,	 1.1739058824861004e+00,	 1.9995442509599448e+02,	 -5.9917611901159407e-02,	 2.9999112773343484e+02,	 1.0131450501500776e+05,	 3.4760274058824655e+02,	 5.7523837048855986e-01 
1.8743009999999999e-01,	 3.0837079999999999e-02,	 1.1739048465565105e+00,	 1.9995635618375445e+02,	 -5.5399615965858004e-02,	 2.9999124908521890e+02,	 1.0131445659210792e+05,	 3.4760281089400655e+02,	 5.7524380583675627e-01 
1.8911240000000001e-01,	 3.0878860000000001e-02,	 1.1739043063574752e+00,	 1.9995846552158810e+02,	 -5.1348870237417923e-02,	 2.9999122170219016e+02,	 1.0131440072203352e+05,	 3.4760279502951380e+02,	 5.7524989722175723e-01 
1.9080810000000001e-01,	 3.0920980000000001e-02,	 1.1739041568709854e+00,	 1.9996060928323089e+02,	 -4.7703467032684285e-02,	 2.9999117119427615e+02,	 1.0131437076276653e+05,	 3.4760276576750289e+02,	 5.7525611032436041e-01 
1.9251730000000000e-01,	 3.0963430000000000e-02,	 1.1739038574329954e+00,	 1.9996232737358872e+02,	 -4.4391764864868649e-02,	 2.9999116831122740e+02,	 1.0131434394594880e+05,	 3.4760276409719421e+02,	 5.7526105357774637e-01 
1.9424010000000000e-01,	 3.1006220000000001e-02,	 1.1739037619237853e+00,	 1.9996384996520544e+02,	 -4.1343305583632646e-02,	 2.9999120776016593e+02,	 1.0131434902584879e+05,	 3.4760278695213304e+02,	 5.7526539413703381e-01 
1.9597670000000000e-01,	 3.1049359999999998e-02,	 1.1739041586340249e+00,	 1.9996553906508561e+02,	 -3.8472036021739688e-02,	 2.9999115224142827e+02,	 1.0131436451408526e+05,	 3.4760275478707564e+02,	 5.7527030500220344e-01 
1.9772729999999999e-01,	 3.1092840000000000e-02,	 1.1739055969158141e+00,	 1.9996717652827823e+02,	 -3.5720097716255686e-02,	 2.9999122172177533e+02,	 1.0131451211093352e+05,	 3.4760279504086060e+02,	 5.7527494764565734e-01 
1.9949210000000001e-01,	 3.1136669999999998e-02,	 1.1739064414355562e+00,	 1.9996821006347159e+02,	 -3.3082541850956562e-02,	 2.9999141730168333e+02,	 1.0131465104989079e+05,	 3.4760290835102882e+02,	 5.7527773213595756e-01 
2.0127110000000001e-01,	 3.1180859999999998e-02,	 1.1739082675844221e+00,	 1.9996967311613218e+02,	 -3.0479707740490330e-02,	 2.9999152867312409e+02,	 1.0131484626968532e+05,	 3.4760297287459662e+02,	 5.7528183313656001e-01 
2.0306469999999999e-01,	 3.1225409999999999e-02,	 1.1739108418352586e+00,	 1.9997122561640109e+02,	 -2.7914573443778106e-02,	 2.9999166431804900e+02,	 1.0131511425280040e+05,	 3.4760305146110545e+02,	 5.7528616830084245e-01 
2.0487290000000000e-01,	 3.1270320000000004e-02,	 1.1739133453790069e+00,	 1.9997230788465029e+02,	 -2.5451672526787785e-02,	 2.9999195546248376e+02,	 1.0131542865010041e+05,	 3.4760322013690785e+02,	 5.7528900171172770e-01 
2.0669599999999999e-01,	 3.1315599999999999e-02,	 1.1739153641984119e+00,	 1.9997321116009246e+02,	 -2.3082900578853930e-02,	 2.9999224017957164e+02,	 1.0131569904260572e+05,	 3.4760338508891954e+02,	 5.7529132646728109e-01 
2.0853400000000000e-01,	 3.1361260000000002e-02,	 1.1739181029442642e+00,	 1.9997443585038252e+02,	 -2.0766403837185012e-02,	 2.9999244253755745e+02,	 1.0131600375430759e+05,	 3.4760350232580032e+02,	 5.7529465494624954e-01 
2.1038720000000000e-01,	 3.1407290000000004e-02,	 1.1739208967121249e+00,	 1.9997541964664302e+02,	 -1.8578444796699727e-02,	 2.9999271629961027e+02,	 1.0131633733030022e+05,	 3.4760366093084025e+02,	 5.7529722205495704e-01 
2.1225579999999999e-01,	 3.1453700000000001e-02,	 1.1739230875085795e+00,	 1.9997621108824688e+02,	 -1.6517314229033096e-02,	 2.9999296578362890e+02,	 1.0131661066725675e+05,	 3.4760380547024988e+02,	 5.7529925916618718e-01 
2.1414000000000000e-01,	 3.1500500000000001e-02,	 1.1739260865213672e+00,	 1.9997708956331246e+02,	 -1.4556931210829960e-02,	 2.9999320808422715e+02,	 1.0131695133244542e+05,	 3.4760394584786303e+02,	 5.7530155362694990e-01 
2.1603980000000000e-01,	 3.1547690000000003e-02,	 1.1739291853486291e+00,	 1.9997756197850572e+02,	 -1.2743892589395671e-02,	 2.9999356829290895e+02,	 1.0131734043395305e+05,	 3.4760415453579020e+02,	 5.7530256694322124e-01 
2.1795560000000000e-01,	 3.1595270000000002e-02,	 1.1739329148451987e+00,	 1.9997781242350101e+02,	 -1.1049531098174508e-02,	 2.9999401869928499e+02,	 1.0131781442954359e+05,	 3.4760441547983254e+02,	 5.7530285526642755e-01 