TITLE = "Final State"
VARIABLES = "X", "Y", "rho", "u", "v", "T", "p", "c", "M"
ZONE I=80, J=27, DATAPACKING=POINT, STRANDID=50000, SOLUTIONTIME=0.001206
9.5440280000000000e-01,	 2.5583319999999998e-01,	 2.7825628825381251e-02,	 1.5848851944554701e+03,	 4.2433302323438119e+02,	 4.6007607361607086e+02,	 3.6830242074962534e+03,	 4.3047091228194881e+02,	 3.8114237086288014e+00 
9.5517879999999999e-01,	 2.5604109999999997e-01,	 2.7826725956594953e-02,	 1.5848801438942824e+03,	 4.2427330179276231e+02,	 4.6008872156610823e+02,	 3.6832706787292796e+03,	 4.3047682927859853e+02,	 3.8113241084154232e+00 
9.5593890000000004e-01,	 2.5624479999999999e-01,	 2.7828000787217803e-02,	 1.5848807672859580e+03,	 4.2421918693089822e+02,	 4.6010772324752583e+02,	 3.6835915472336815e+03,	 4.3048571854139675e+02,	 3.8112143006698993e+00 
9.5669899999999997e-01,	 2.5644839999999997e-01,	 2.7829885298559759e-02,	 1.5848751008971635e+03,	 4.2417799725073741e+02,	 4.6012765019693757e+02,	 3.6840005445609231e+03,	 4.3049504046083513e+02,	 3.8110943196013491e+00 
9.5744370000000001e-01,	 2.5664799999999999e-01,	 2.7835396537162153e-02,	 1.5848586620835108e+03,	 4.2417444448811079e+02,	 4.6016061670345334e+02,	 3.6849940964096195e+03,	 4.3051046190242778e+02,	 3.8109187814716545e+00 
9.5818840000000005e-01,	 2.5684750000000001e-01,	 2.7836525631613263e-02,	 1.5848609514421091e+03,	 4.2412506524256105e+02,	 4.6017475971065647e+02,	 3.6852568344390734e+03,	 4.3051707770738733e+02,	 3.8108357030649618e+00 
9.5891830000000000e-01,	 2.5704299999999997e-01,	 2.7839842047299800e-02,	 1.5848525847602668e+03,	 4.2409887522927283e+02,	 4.6019938915365026e+02,	 3.6858931578057413e+03,	 4.3052859860648573e+02,	 3.8106992270149371e+00 
9.5964819999999995e-01,	 2.5723859999999998e-01,	 2.7846622470935327e-02,	 1.5848271672015053e+03,	 4.2411056061448045e+02,	 4.6024049496346004e+02,	 3.6871201716418168e+03,	 4.3054782595873780e+02,	 3.8104790365263881e+00 
9.6036370000000004e-01,	 2.5743030000000000e-01,	 2.7850535199868381e-02,	 1.5848132415001596e+03,	 4.2409328425704507e+02,	 4.6026974359961349e+02,	 3.6878726011350982e+03,	 4.3056150656352986e+02,	 3.8103163464837460e+00 
9.6107929999999997e-01,	 2.5762199999999996e-01,	 2.7854483908943968e-02,	 1.5847986953311270e+03,	 4.2407585882859075e+02,	 4.6029937843070962e+02,	 3.6886329559401624e+03,	 4.3057536736181498e+02,	 3.8101505909550579e+00 
9.6178100000000000e-01,	 2.5780999999999998e-01,	 2.7861524010647572e-02,	 1.5847676086667252e+03,	 4.2410144562667813e+02,	 4.6034457042424503e+02,	 3.6899274820642217e+03,	 4.3059650369454249e+02,	 3.8099091855299316e+00 
9.6248270000000002e-01,	 2.5799810000000001e-01,	 2.7868359404287543e-02,	 1.5847390179961317e+03,	 4.2410130595590709e+02,	 4.6038735601253040e+02,	 3.6911757839819247e+03,	 4.3061651359348571e+02,	 3.8096679249527381e+00 
9.6317120000000001e-01,	 2.5818249999999998e-01,	 2.7870784077559302e-02,	 1.5847277706790553e+03,	 4.2408439298760709e+02,	 4.6041226297254923e+02,	 3.6916966429809740e+03,	 4.3062816161453912e+02,	 3.8095294938456798e+00 
9.6385960000000004e-01,	 2.5836700000000001e-01,	 2.7877872136341068e-02,	 1.5846995765175966e+03,	 4.2409275121144560e+02,	 4.6045367691013701e+02,	 3.6929676614995319e+03,	 4.3064752861257551e+02,	 3.8092999460645194e+00 
9.6453520000000004e-01,	 2.5854800000000000e-01,	 2.7881790092439969e-02,	 1.5846823044351422e+03,	 4.2408337435155653e+02,	 4.6048407556405198e+02,	 3.6937305111646001e+03,	 4.3066174382007631e+02,	 3.8091298380341492e+00 
9.6521069999999998e-01,	 2.5872899999999999e-01,	 2.7886601204725789e-02,	 1.5846637699086536e+03,	 4.2407704810017083e+02,	 4.6051545274338446e+02,	 3.6946196114361010e+03,	 4.3067641611962017e+02,	 3.8089546981584985e+00 
9.6587400000000001e-01,	 2.5890669999999999e-01,	 2.7890589128445727e-02,	 1.5846476863279299e+03,	 4.2406853812892757e+02,	 4.6054407067305112e+02,	 3.6953775890809525e+03,	 4.3068979772911689e+02,	 3.8087951709170689e+00 
9.6653719999999999e-01,	 2.5908439999999999e-01,	 2.7895118732397306e-02,	 1.5846304200315108e+03,	 4.2406258602960122e+02,	 4.6057358121402007e+02,	 3.6962145704680329e+03,	 4.3070359628405652e+02,	 3.8086308492295040e+00 
9.6718859999999995e-01,	 2.5925890000000001e-01,	 2.7898483402226799e-02,	 1.5846166052038452e+03,	 4.2405281571521056e+02,	 4.6059922805063530e+02,	 3.6968662495530807e+03,	 4.3071558788696524e+02,	 3.8084879647717038e+00 
9.6783989999999998e-01,	 2.5943339999999998e-01,	 2.7903670829997423e-02,	 1.5845944660979117e+03,	 4.2406508711955985e+02,	 4.6063259301324592e+02,	 3.6978214867111419e+03,	 4.3073118772774995e+02,	 3.8083077456333858e+00 
9.6847989999999995e-01,	 2.5960489999999997e-01,	 2.7907969130851418e-02,	 1.5845774339398033e+03,	 4.2405991263124463e+02,	 4.6066030635536464e+02,	 3.6986136104438096e+03,	 4.3074414471495595e+02,	 3.8081518872903422e+00 
9.6911979999999998e-01,	 2.5977630000000002e-01,	 2.7909572950408891e-02,	 1.5845713876746754e+03,	 4.2403764073255820e+02,	 4.6067674167634391e+02,	 3.6989581287291830e+03,	 4.3075182863631557e+02,	 3.8080570301879293e+00 
9.6974879999999997e-01,	 2.5994479999999998e-01,	 2.7914647626507909e-02,	 1.5845471425203286e+03,	 4.2405874792681203e+02,	 4.6071039240528950e+02,	 3.6999009384894466e+03,	 4.3076756076149468e+02,	 3.8078762522361211e+00 
9.7037779999999996e-01,	 2.6011339999999999e-01,	 2.7921720525130735e-02,	 1.5845131767472462e+03,	 4.2409712116844946e+02,	 4.6075274521302248e+02,	 3.7011786198497671e+03,	 4.3078736039777795e+02,	 3.8076481010675360e+00 
9.7099619999999998e-01,	 2.6027909999999999e-01,	 2.7924215932457960e-02,	 1.5845006074661587e+03,	 4.2408916878378477e+02,	 4.6077326135202111e+02,	 3.7016742186325591e+03,	 4.3079695121961720e+02,	 3.8075303740057995e+00 
9.7161470000000005e-01,	 2.6044479999999998e-01,	 2.7926186956557374e-02,	 1.5844932389215624e+03,	 4.2407504369145875e+02,	 4.6078814721173160e+02,	 3.7020550961036511e+03,	 4.3080390988207120e+02,	 3.8074438722528181e+00 
9.7222310000000001e-01,	 2.6060780000000000e-01,	 2.7928798298346075e-02,	 1.5844828077097204e+03,	 4.2407026900170746e+02,	 4.6080570728136797e+02,	 3.7025423644688663e+03,	 4.3081211850747917e+02,	 3.8073450707465177e+00 
9.7283149999999996e-01,	 2.6077079999999997e-01,	 2.7931347435969318e-02,	 1.5844724816754224e+03,	 4.2406813515094456e+02,	 4.6082296270330505e+02,	 3.7030189644032648e+03,	 4.3082018456999964e+02,	 3.8072493534951293e+00 
9.7343020000000002e-01,	 2.6093119999999997e-01,	 2.7933159369247895e-02,	 1.5844650533400541e+03,	 4.2406195944460683e+02,	 4.6083673728886436e+02,	 3.7033698779284468e+03,	 4.3082662340402868e+02,	 3.8071720911245746e+00 
9.7402900000000003e-01,	 2.6109159999999998e-01,	 2.7936132044186178e-02,	 1.5844511557413834e+03,	 4.2407412768844426e+02,	 4.6085576905641295e+02,	 3.7039169533848603e+03,	 4.3083551951281675e+02,	 3.8070696202595835e+00 
9.7461850000000005e-01,	 2.6124959999999997e-01,	 2.7939731810513870e-02,	 1.5844341571823873e+03,	 4.2409198128157419e+02,	 4.6087805271170589e+02,	 3.7045733467735936e+03,	 4.3084593543336979e+02,	 3.8069501840971354e+00 
9.7520799999999996e-01,	 2.6140750000000001e-01,	 2.7939722684309790e-02,	 1.5844324513069892e+03,	 4.2407935862955947e+02,	 4.6088377656175669e+02,	 3.7046181454490270e+03,	 4.3084861085896023e+02,	 3.8069151445347695e+00 
9.7578869999999995e-01,	 2.6156309999999999e-01,	 2.7942103722364307e-02,	 1.5844209221294752e+03,	 4.2409019969768701e+02,	 4.6089842915138422e+02,	 3.7050516436259772e+03,	 4.3085545965472136e+02,	 3.8068352873756339e+00 
9.7636950000000000e-01,	 2.6171869999999997e-01,	 2.7944413025905647e-02,	 1.5844060622242926e+03,	 4.2411263076019884e+02,	 4.6091581446317502e+02,	 3.7054976192733684e+03,	 4.3086358561631459e+02,	 3.8067436370185561e+00 
9.7694179999999997e-01,	 2.6187210000000000e-01,	 2.7946328597406374e-02,	 1.5843945798542895e+03,	 4.2412695875691799e+02,	 4.6093003307357833e+02,	 3.7058659460189879e+03,	 4.3087023133557886e+02,	 3.8066677778514735e+00 
9.7751410000000005e-01,	 2.6202539999999996e-01,	 2.7944916523271277e-02,	 1.5844011050836780e+03,	 4.2410465550843776e+02,	 4.6092328349831382e+02,	 3.7056244320789974e+03,	 4.3086707662500083e+02,	 3.8066968937804750e+00 
9.7807849999999996e-01,	 2.6217659999999998e-01,	 2.7945416944638389e-02,	 1.5843990626839586e+03,	 4.2410582569956023e+02,	 4.6092518967546903e+02,	 3.7057061153701416e+03,	 4.3086796756299276e+02,	 3.8066851456497273e+00 
9.7864280000000003e-01,	 2.6232780000000000e-01,	 2.7946939401364244e-02,	 1.5843892501115943e+03,	 4.2412720927744317e+02,	 4.6093435322713276e+02,	 3.7059816773043308e+03,	 4.3087225053704788e+02,	 3.8066381400258407e+00 
9.7919959999999995e-01,	 2.6247700000000002e-01,	 2.7948047117042712e-02,	 1.5843808607532696e+03,	 4.2414669312521062e+02,	 4.6094090947910240e+02,	 3.7061812843681450e+03,	 4.3087531485301423e+02,	 3.8066039529526754e+00 
9.7975639999999997e-01,	 2.6262619999999998e-01,	 2.7946286262477429e-02,	 1.5843874754734311e+03,	 4.2414118149640831e+02,	 4.6093313291973732e+02,	 3.7058852547784222e+03,	 4.3087168017714941e+02,	 3.8066475859063256e+00 
9.8030600000000001e-01,	 2.6277339999999999e-01,	 2.7945319702136928e-02,	 1.5843898088688038e+03,	 4.2413691803885433e+02,	 4.6092819747919782e+02,	 3.7057174023077473e+03,	 4.3086937339217531e+02,	 3.8066706384689137e+00 
9.8085560000000005e-01,	 2.6292070000000001e-01,	 2.7946704132298675e-02,	 1.5843816994461226e+03,	 4.2416431663186592e+02,	 4.6093350789348972e+02,	 3.7059436822424309e+03,	 4.3087185543634246e+02,	 3.8066469734008845e+00 
9.8139829999999995e-01,	 2.6306609999999997e-01,	 2.7944434881215674e-02,	 1.5843901317114114e+03,	 4.2415557249888531e+02,	 4.6092128011424256e+02,	 3.7055444580612561e+03,	 4.3086614025098049e+02,	 3.8067111228713242e+00 
9.8194110000000001e-01,	 2.6321149999999999e-01,	 2.7941654019030704e-02,	 1.5844026716633875e+03,	 4.2414352869607842e+02,	 4.6090442774667497e+02,	 3.7050402346006449e+03,	 4.3085826343854711e+02,	 3.8068016019266282e+00 
9.8247750000000000e-01,	 2.6335520000000001e-01,	 2.7939931569558950e-02,	 1.5844090620689653e+03,	 4.2414718943933451e+02,	 4.6089302991187458e+02,	 3.7047202218934062e+03,	 4.3085293599822080e+02,	 3.8068651971723471e+00 
9.8301390000000000e-01,	 2.6349889999999998e-01,	 2.7938732267715954e-02,	 1.5844103656535262e+03,	 4.2416341391392928e+02,	 4.6088573512907703e+02,	 3.7045025654633682e+03,	 4.3084952632307028e+02,	 3.8069079848642162e+00 
9.8354419999999998e-01,	 2.6364100000000001e-01,	 2.7937973406084678e-02,	 1.5844102614656831e+03,	 4.2418571984924949e+02,	 4.6087986103257595e+02,	 3.7043547316497788e+03,	 4.3084678067532479e+02,	 3.8069454003234431e+00 
9.8407460000000002e-01,	 2.6378309999999999e-01,	 2.7935817627815940e-02,	 1.5844141615073795e+03,	 4.2419744060472357e+02,	 4.6086855714855466e+02,	 3.7039780437062450e+03,	 4.3084149700780682e+02,	 3.8070078669421181e+00 
9.8459929999999996e-01,	 2.6392369999999998e-01,	 2.7934510841479208e-02,	 1.5844140963197879e+03,	 4.2422121510543298e+02,	 4.6086137703927454e+02,	 3.7037470749159124e+03,	 4.3083814084363394e+02,	 3.8070516484921653e+00 
9.8512400000000000e-01,	 2.6406429999999997e-01,	 2.7932464871678265e-02,	 1.5844162514443979e+03,	 4.2424443070134282e+02,	 4.6085254807444659e+02,	 3.7034048569088609e+03,	 4.3083401392695157e+02,	 3.8071068848980918e+00 
9.8564339999999995e-01,	 2.6420349999999998e-01,	 2.7928739959831982e-02,	 1.5844300204695987e+03,	 4.2423697436379450e+02,	 4.6083099219706435e+02,	 3.7027377926321515e+03,	 4.3082393791260051e+02,	 3.8072223204682678e+00 
9.8616280000000001e-01,	 2.6434259999999998e-01,	 2.7924498829394191e-02,	 1.5844479212819429e+03,	 4.2422864577426265e+02,	 4.6080249852978704e+02,	 3.7019466024180647e+03,	 4.3081061855701091e+02,	 3.8073751657461168e+00 
9.8667729999999998e-01,	 2.6448050000000001e-01,	 2.7922900630247046e-02,	 1.5844536471449931e+03,	 4.2424542641901974e+02,	 4.6078746498641391e+02,	 3.7016139614121048e+03,	 4.3080359096605213e+02,	 3.8074601879027568e+00 
9.8719179999999995e-01,	 2.6461829999999997e-01,	 2.7918571175526173e-02,	 1.5844675532489046e+03,	 4.2424967008879571e+02,	 4.6076375971219068e+02,	 3.7008496244663957e+03,	 4.3079250944866823e+02,	 3.8075918590710294e+00 
9.8770179999999996e-01,	 2.6475499999999996e-01,	 2.7917723251135947e-02,	 1.5844692137201482e+03,	 4.2427677597008005e+02,	 4.6075180033971282e+02,	 3.7006411700724439e+03,	 4.3078691868615289e+02,	 3.8076612722664644e+00 
9.8821170000000003e-01,	 2.6489160000000000e-01,	 2.7912474624366919e-02,	 1.5844904835492864e+03,	 4.2426454888519834e+02,	 4.6071943714016317e+02,	 3.6996855528544870e+03,	 4.3077178918711860e+02,	 3.8078353584885920e+00 
9.8871750000000003e-01,	 2.6502710000000002e-01,	 2.7907735298855568e-02,	 1.5845106953448826e+03,	 4.2425828642775161e+02,	 4.6068790013483965e+02,	 3.6988041678594395e+03,	 4.3075704541509072e+02,	 3.8080072561509866e+00 
9.8922330000000003e-01,	 2.6516259999999997e-01,	 2.7904265161268850e-02,	 1.5845221301313338e+03,	 4.2427406220885342e+02,	 4.6066501855837441e+02,	 3.6981605562456994e+03,	 4.3074634780108744e+02,	 3.8081369441307609e+00 
9.8972519999999997e-01,	 2.6529710000000001e-01,	 2.7902014479189996e-02,	 1.5845284156302741e+03,	 4.2429977534134173e+02,	 4.6064698771145214e+02,	 3.6977175349952799e+03,	 4.3073791781709986e+02,	 3.8082410097484072e+00 
9.9022719999999997e-01,	 2.6543159999999999e-01,	 2.7896688295799370e-02,	 1.5845488124212802e+03,	 4.2429544690441423e+02,	 4.6061479373252985e+02,	 3.6967533029385040e+03,	 4.3072286571634277e+02,	 3.8084172369431166e+00 
9.9072559999999998e-01,	 2.6556510000000000e-01,	 2.7891837825090006e-02,	 1.5845669111660654e+03,	 4.2430064696911796e+02,	 4.6058478328312032e+02,	 3.6958697258994807e+03,	 4.3070883403792197e+02,	 3.8085850216374841e+00 
9.9122410000000005e-01,	 2.6569870000000001e-01,	 2.7889170453835040e-02,	 1.5845764538959299e+03,	 4.2431841954614680e+02,	 4.6056265839871850e+02,	 3.6953387602700145e+03,	 4.3069848903961537e+02,	 3.8087085764584128e+00 
9.9171949999999998e-01,	 2.6583140000000000e-01,	 2.7882896715008446e-02,	 1.5846004445525396e+03,	 4.2430788877952125e+02,	 4.6052669448551353e+02,	 3.6942189918895110e+03,	 4.3068167275502248e+02,	 3.8089047738517388e+00 
9.9221479999999995e-01,	 2.6596409999999998e-01,	 2.7879325559150157e-02,	 1.5846124868198413e+03,	 4.2432491168720640e+02,	 4.6050197939643886e+02,	 3.6935476153738250e+03,	 4.3067011590191424e+02,	 3.8090442183170548e+00 
9.9270740000000002e-01,	 2.6609610000000000e-01,	 2.7876451038943040e-02,	 1.5846203655439008e+03,	 4.2435198184917533e+02,	 4.6048121950571806e+02,	 3.6930002975266111e+03,	 4.3066040827229625e+02,	 3.8091640102921041e+00 
9.9319999999999997e-01,	 2.6622809999999997e-01,	 2.7871170059806293e-02,	 1.5846396336057696e+03,	 4.2435464707922790e+02,	 4.6044919929477004e+02,	 3.6920439377033299e+03,	 4.3064543472259658e+02,	 3.8093412753506226e+00 
9.9369019999999997e-01,	 2.6635939999999997e-01,	 2.7865817151382845e-02,	 1.5846591791467963e+03,	 4.2436403767675324e+02,	 4.6041669583885158e+02,	 3.6910742734115238e+03,	 4.3063023466148553e+02,	 3.8095252188835831e+00 
9.9418039999999996e-01,	 2.6649079999999997e-01,	 2.7862077361707191e-02,	 1.5846742003847537e+03,	 4.2436280731769955e+02,	 4.6038921000232875e+02,	 3.6903585859252735e+03,	 4.3061738064360020e+02,	 3.8096718906315963e+00 
9.9466849999999996e-01,	 2.6662150000000001e-01,	 2.7854263019018034e-02,	 1.5847065131720719e+03,	 4.2434443714632420e+02,	 4.6034319730924580e+02,	 3.6889548466409997e+03,	 4.3059586150280535e+02,	 3.8099237326061122e+00 
9.9515659999999995e-01,	 2.6675230000000000e-01,	 2.7851186748058934e-02,	 1.5847175142703513e+03,	 4.2436636433136482e+02,	 4.6031879316937699e+02,	 3.6883518916633657e+03,	 4.3058444777825662e+02,	 3.8100625763502882e+00 
9.9564299999999994e-01,	 2.6688259999999997e-01,	 2.7847209582722833e-02,	 1.5847263961935776e+03,	 4.2439976554288950e+02,	 4.6029719331577132e+02,	 3.6876521465676369e+03,	 4.3057434535545570e+02,	 3.8101919633991148e+00 
9.9612940000000005e-01,	 2.6701300000000000e-01,	 2.7844585979242234e-02,	 1.5847335809972242e+03,	 4.2442070795442334e+02,	 4.6027721732924715e+02,	 3.6871446955289466e+03,	 4.3056500221719028e+02,	 3.8103033451572084e+00 
9.9661440000000001e-01,	 2.6714290000000002e-01,	 2.7837576689930192e-02,	 1.5847628649275157e+03,	 4.2440160751841967e+02,	 4.6023331625591601e+02,	 3.6858649443540507e+03,	 4.3054446816100761e+02,	 3.8105392950362940e+00 
9.9709950000000003e-01,	 2.6727289999999998e-01,	 2.7832398092635716e-02,	 1.5847874597069117e+03,	 4.2438807892913877e+02,	 4.6019473080623374e+02,	 3.6848703051526813e+03,	 4.3052641959787815e+02,	 3.8107460949605132e+00 
9.9758349999999996e-01,	 2.6740249999999999e-01,	 2.7824613674442170e-02,	 1.5848188686475319e+03,	 4.2437451466009418e+02,	 4.6014923374095827e+02,	 3.6834754850012732e+03,	 4.3050513711520153e+02,	 3.8109968085101222e+00 
9.9806750000000000e-01,	 2.6753220000000000e-01,	 2.7822674446134593e-02,	 1.5848224450318121e+03,	 4.2441132998027319e+02,	 4.6012970344750704e+02,	 3.6830624379641863e+03,	 4.3049600096951190e+02,	 3.8111078329535015e+00 
9.9855079999999996e-01,	 2.6766170000000000e-01,	 2.7818506638034514e-02,	 1.5848293121864942e+03,	 4.2443838339798828e+02,	 4.6010381254114463e+02,	 3.6823035088480765e+03,	 4.3048388907110240e+02,	 3.8112467268484438e+00 
9.9903410000000004e-01,	 2.6779120000000001e-01,	 2.7815181582710763e-02,	 1.5848298165370816e+03,	 4.2446489889892541e+02,	 4.6007595374109059e+02,	 3.6816404421854936e+03,	 4.3047085620133686e+02,	 3.8113791825779719e+00 
9.9951699999999999e-01,	 2.6792060000000001e-01,	 2.7800403926127957e-02,	 1.5848484373539823e+03,	 4.2454320067210608e+02,	 4.6004676457897790e+02,	 3.6794510046094929e+03,	 4.3045720053991175e+02,	 3.8115889429711207e+00 
1.0000000000000000e+00,	 2.6805000000000001e-01,	 2.7779073019032378e-02,	 1.5849729634420805e+03,	 4.2376811150180259e+02,	 4.6013119571969435e+02,	 3.6773025688046382e+03,	 4.3049669905168668e+02,	 3.8110531945118034e+00 
9.5438000000000001e-01,	 2.5675739999999997e-01,	 2.7828571172522035e-02,	 1.5852544854378561e+03,	 4.2308071887294659e+02,	 4.5999110171581538e+02,	 3.6827333658259054e+03,	 4.3043115839929931e+02,	 3.8118532394694986e+00 
9.5515620000000001e-01,	 2.5696110000000000e-01,	 2.7832555995169758e-02,	 1.5852383355849151e+03,	 4.2307488317500366e+02,	 4.6001647622035046e+02,	 3.6834638828061052e+03,	 4.3044303017977711e+02,	 3.8117083608809943e+00 
9.5591640000000000e-01,	 2.5716069999999996e-01,	 2.7837378698090384e-02,	 1.5852277301396216e+03,	 4.2306679051464573e+02,	 4.6004349145491580e+02,	 3.6843184922718233e+03,	 4.3045566923653638e+02,	 3.8115677890286355e+00 
9.5667670000000005e-01,	 2.5736029999999999e-01,	 2.7840337219775337e-02,	 1.5852190334519662e+03,	 4.2303540170780855e+02,	 4.6006532739783722e+02,	 3.6848849516105097e+03,	 4.3046588489447447e+02,	 3.8114390127080866e+00 
9.5742159999999998e-01,	 2.5755580000000000e-01,	 2.7844566572985008e-02,	 1.5852038774458199e+03,	 4.2301927623087693e+02,	 4.6009407782283267e+02,	 3.6856750503633994e+03,	 4.3047933503193781e+02,	 3.8112762507337705e+00 
9.5816650000000003e-01,	 2.5775130000000002e-01,	 2.7848452609554208e-02,	 1.5851944216451097e+03,	 4.2299586632639790e+02,	 4.6011960344503240e+02,	 3.6863939362475639e+03,	 4.3049127617723826e+02,	 3.8111352889754997e+00 
9.5889659999999999e-01,	 2.5794299999999998e-01,	 2.7851100714740069e-02,	 1.5851878169841075e+03,	 4.2296193304253211e+02,	 4.6014096274426402e+02,	 3.6869156179579222e+03,	 4.3050126801980213e+02,	 3.8110116887800971e+00 
9.5962670000000005e-01,	 2.5813459999999999e-01,	 2.7855274665891883e-02,	 1.5851721700232060e+03,	 4.2294543012737790e+02,	 4.6016991818539663e+02,	 3.6877002061663179e+03,	 4.3051481295389431e+02,	 3.8108467875917973e+00 
9.6034240000000004e-01,	 2.5832250000000001e-01,	 2.7859799396307873e-02,	 1.5851559660648147e+03,	 4.2293462734752376e+02,	 4.6020049882170360e+02,	 3.6885443318245807e+03,	 4.3052911766795688e+02,	 3.8106773351180037e+00 
9.6105819999999997e-01,	 2.5851039999999997e-01,	 2.7863848221652884e-02,	 1.5851424491323282e+03,	 4.2291875047827739e+02,	 4.6022848527048399e+02,	 3.6893047290255327e+03,	 4.3054220848158161e+02,	 3.8105216295633930e+00 
9.6176010000000001e-01,	 2.5869460000000000e-01,	 2.7867888903100560e-02,	 1.5851229955628712e+03,	 4.2291260514734398e+02,	 4.6025965884933157e+02,	 3.6900896655923748e+03,	 4.3055678962403971e+02,	 3.8103452486130065e+00 
9.6246209999999999e-01,	 2.5887889999999997e-01,	 2.7874108362281411e-02,	 1.5850964544553512e+03,	 4.2291843692250376e+02,	 4.6029872179936183e+02,	 3.6912264605770356e+03,	 4.3057506024714371e+02,	 3.8101274977678794e+00 
9.6315070000000003e-01,	 2.5905970000000000e-01,	 2.7878211695913167e-02,	 1.5850782525288914e+03,	 4.2291973669855520e+02,	 4.6032976402413829e+02,	 3.6920188145724305e+03,	 4.3058957884325247e+02,	 3.8099589629568800e+00 
9.6383940000000001e-01,	 2.5924039999999998e-01,	 2.7883393724238655e-02,	 1.5850548070662371e+03,	 4.2292300048206693e+02,	 4.6036463334181065e+02,	 3.6929848076178996e+03,	 4.3060588680513774e+02,	 3.8097640184502111e+00 
9.6451520000000002e-01,	 2.5941779999999998e-01,	 2.7888030912235927e-02,	 1.5850335568304163e+03,	 4.2292795249286564e+02,	 4.6039716556413993e+02,	 3.6938599874096553e+03,	 4.3062110117865490e+02,	 3.8095846996670746e+00 
9.6519100000000002e-01,	 2.5959519999999997e-01,	 2.7892737965805537e-02,	 1.5850124574319884e+03,	 4.2293310831174551e+02,	 4.6042917408050732e+02,	 3.6947403060697734e+03,	 4.3063607010552255e+02,	 3.8094080253651947e+00 
9.6585449999999995e-01,	 2.5976929999999998e-01,	 2.7896854628018733e-02,	 1.5849932488520305e+03,	 4.2293614040237037e+02,	 4.6045860890818386e+02,	 3.6955218455403674e+03,	 4.3064983497604811e+02,	 3.8092449845210745e+00 
9.6651799999999999e-01,	 2.5994349999999999e-01,	 2.7901217251754661e-02,	 1.5849735529204036e+03,	 4.2294122226014497e+02,	 4.6048805209463200e+02,	 3.6963361066589969e+03,	 4.3066360331532019e+02,	 3.8090820572547455e+00 
9.6716959999999996e-01,	 2.6011449999999997e-01,	 2.7904909352445093e-02,	 1.5849567509539552e+03,	 4.2294340767211531e+02,	 4.6051401358379417e+02,	 3.6970336542541613e+03,	 4.3067574316437504e+02,	 3.8089383014269074e+00 
9.6782120000000005e-01,	 2.6028550000000000e-01,	 2.7908574252918563e-02,	 1.5849374338738266e+03,	 4.2295018131035914e+02,	 4.6054094251839729e+02,	 3.6977354208563079e+03,	 4.3068833503893296e+02,	 3.8087876607083322e+00 
9.6846140000000003e-01,	 2.6045360000000001e-01,	 2.7912973132409789e-02,	 1.5849160678445562e+03,	 4.2296251978616158e+02,	 4.6056981970750849e+02,	 3.6985501434099920e+03,	 4.3070183750136044e+02,	 3.8086277118260754e+00 
9.6910160000000001e-01,	 2.6062160000000001e-01,	 2.7916267788757727e-02,	 1.5849017882249086e+03,	 4.2296729221197728e+02,	 4.6059218379944497e+02,	 3.6991663082897039e+03,	 4.3071229426399702e+02,	 3.8085060711556431e+00 
9.6973080000000000e-01,	 2.6078669999999998e-01,	 2.7918816393067473e-02,	 1.5848864208562140e+03,	 4.2296897651666234e+02,	 4.6061296564801307e+02,	 3.6996709432258667e+03,	 4.3072201099066547e+02,	 3.8083866910635567e+00 
9.7036000000000000e-01,	 2.6095190000000001e-01,	 2.7923198386257793e-02,	 1.5848608020682359e+03,	 4.2299055590874252e+02,	 4.6064244106951571e+02,	 3.7004884099750129e+03,	 4.3073579209396974e+02,	 3.8082202973528019e+00 
9.7097880000000003e-01,	 2.6111429999999997e-01,	 2.7927424826925354e-02,	 1.5848377584706298e+03,	 4.2301534723396361e+02,	 4.6067067523445758e+02,	 3.7012753623898207e+03,	 4.3074899243980042e+02,	 3.8080667487029483e+00 
9.7159750000000000e-01,	 2.6127669999999997e-01,	 2.7930588781070749e-02,	 1.5848205686592610e+03,	 4.2303226384323773e+02,	 4.6069327159000261e+02,	 3.7018762591342429e+03,	 4.3075955664385367e+02,	 3.8079449292724492e+00 
9.7220620000000002e-01,	 2.6143640000000001e-01,	 2.7933212484411232e-02,	 1.5848058048102330e+03,	 4.2304441638227314e+02,	 4.6071241992112505e+02,	 3.7023778804928279e+03,	 4.3076850863146291e+02,	 3.8078399566338890e+00 
9.7281479999999998e-01,	 2.6159620000000000e-01,	 2.7935579166191788e-02,	 1.5847916180726224e+03,	 4.2305668745449930e+02,	 4.6073002503319054e+02,	 3.7028330600237546e+03,	 4.3077673898850708e+02,	 3.8077427327019624e+00 
9.7341390000000005e-01,	 2.6175339999999997e-01,	 2.7937845987511312e-02,	 1.5847795070680863e+03,	 4.2306852196562744e+02,	 4.6074505556056988e+02,	 3.7032543333050908e+03,	 4.3078376560758056e+02,	 3.8076605466045783e+00 
9.7401289999999996e-01,	 2.6191059999999999e-01,	 2.7939152713401649e-02,	 1.5847678466171756e+03,	 4.2307895006902368e+02,	 4.6075749304903036e+02,	 3.7035275155843274e+03,	 4.3078957992060634e+02,	 3.8075892469907675e+00 
9.7460270000000004e-01,	 2.6206540000000000e-01,	 2.7941493072216449e-02,	 1.5847511375421082e+03,	 4.2310230946845849e+02,	 4.6077482417361159e+02,	 3.7039770639956369e+03,	 4.3079768179391704e+02,	 3.8074941514810914e+00 
9.7519250000000002e-01,	 2.6222020000000001e-01,	 2.7942809047004000e-02,	 1.5847400177431939e+03,	 4.2311941760692525e+02,	 4.6078636864815860e+02,	 3.7042443176949632e+03,	 4.3080307846650072e+02,	 3.8074317606581363e+00 
9.7577349999999996e-01,	 2.6237270000000001e-01,	 2.7944146172612996e-02,	 1.5847289973924007e+03,	 4.2313691250841669e+02,	 4.6079658033177958e+02,	 3.7045036693000961e+03,	 4.3080785204561084e+02,	 3.8073753332957430e+00 
9.7635450000000001e-01,	 2.6252510000000001e-01,	 2.7945334941329895e-02,	 1.5847162170310139e+03,	 4.2315770343360293e+02,	 4.6080598822566475e+02,	 3.7047368987080426e+03,	 4.3081224983635309e+02,	 3.8073202555041856e+00 
9.7692710000000005e-01,	 2.6267540000000000e-01,	 2.7947081567128752e-02,	 1.5847003974446243e+03,	 4.2318923591432508e+02,	 4.6081926365634729e+02,	 3.7050751873872614e+03,	 4.3081845545988568e+02,	 3.8072488203230868e+00 
9.7749980000000003e-01,	 2.6282570000000000e-01,	 2.7947717579786532e-02,	 1.5846925033168925e+03,	 4.2321281373237332e+02,	 4.6082541435971336e+02,	 3.7052089605162696e+03,	 4.3082133058674253e+02,	 3.8072198296802897e+00 
9.7806439999999994e-01,	 2.6297389999999998e-01,	 2.7947579867403101e-02,	 1.5846877827233416e+03,	 4.2322754400815882e+02,	 4.6082647474589800e+02,	 3.7051992289585887e+03,	 4.3082182625897542e+02,	 3.8072136853672442e+00 
9.7862910000000003e-01,	 2.6312209999999997e-01,	 2.7947675017147549e-02,	 1.5846807850317432e+03,	 4.2324679489948062e+02,	 4.6082777392398219e+02,	 3.7052222894647698e+03,	 4.3082243355251325e+02,	 3.8072041561388179e+00 
9.7918609999999995e-01,	 2.6326820000000001e-01,	 2.7947978549695614e-02,	 1.5846707327441168e+03,	 4.2327444897137661e+02,	 4.6083093862007837e+02,	 3.7052879765158282e+03,	 4.3082391286844205e+02,	 3.8071851048303968e+00 
9.7974320000000004e-01,	 2.6341439999999999e-01,	 2.7948049928553736e-02,	 1.5846650388230034e+03,	 4.2330398242784315e+02,	 4.6083164543993655e+02,	 3.7053031229483413e+03,	 4.3082424326594224e+02,	 3.8071871072412304e+00 
9.8029310000000003e-01,	 2.6355869999999998e-01,	 2.7947186592614380e-02,	 1.5846632099208748e+03,	 4.2331947175429065e+02,	 4.6082662495458862e+02,	 3.7051482975775684e+03,	 4.3082189647323247e+02,	 3.8072130233595449e+00 
9.8084300000000002e-01,	 2.6370299999999997e-01,	 2.7946684609642381e-02,	 1.5846574177791333e+03,	 4.2334522090457244e+02,	 4.6082368520876463e+02,	 3.7050581105022848e+03,	 4.3082052230253322e+02,	 3.8072276037557917e+00 
9.8138610000000004e-01,	 2.6384560000000001e-01,	 2.7945939833582425e-02,	 1.5846541379703474e+03,	 4.2337253313244867e+02,	 4.6081942133891783e+02,	 3.7049250901825121e+03,	 4.3081852916834481e+02,	 3.8072542255648583e+00 
9.8192919999999995e-01,	 2.6398810000000000e-01,	 2.7944114512764566e-02,	 1.5846563434342459e+03,	 4.2339142380256862e+02,	 4.6080942429359851e+02,	 3.7046027291633673e+03,	 4.3081385604095487e+02,	 3.8073117878017682e+00 
9.8246590000000000e-01,	 2.6412890000000000e-01,	 2.7942042683056105e-02,	 1.5846600556323801e+03,	 4.2340637778588678e+02,	 4.6079666603752912e+02,	 3.7042255025543363e+03,	 4.3080789210961058e+02,	 3.8073817796210720e+00 
9.8300259999999995e-01,	 2.6426980000000000e-01,	 2.7939730023025598e-02,	 1.5846634630898557e+03,	 4.2342185842346464e+02,	 4.6078303881538449e+02,	 3.7038093807871151e+03,	 4.3080152188312599e+02,	 3.8074549966733438e+00 
9.8353330000000005e-01,	 2.6440900000000001e-01,	 2.7938045165137312e-02,	 1.5846637280470095e+03,	 4.2344587180955284e+02,	 4.6077186910287236e+02,	 3.7034962512722682e+03,	 4.3079630038200139e+02,	 3.8075161292110020e+00 
9.8406389999999999e-01,	 2.6454830000000001e-01,	 2.7935985803908388e-02,	 1.5846651130041569e+03,	 4.2346913707727492e+02,	 4.6075906962966809e+02,	 3.7031203908521393e+03,	 4.3079031693947189e+02,	 3.8075860618642223e+00 
9.8458889999999999e-01,	 2.6468599999999998e-01,	 2.7934171951996635e-02,	 1.5846654655887789e+03,	 4.2349562244933463e+02,	 4.6074649774842720e+02,	 3.7027789177978989e+03,	 4.3078443980974748e+02,	 3.8076546721438116e+00 
9.8511389999999999e-01,	 2.6482380000000000e-01,	 2.7932490256455968e-02,	 1.5846638342840972e+03,	 4.2352740792523480e+02,	 4.6073489205442547e+02,	 3.7024627394822160e+03,	 4.3077901428410894e+02,	 3.8077180210218704e+00 
9.8563369999999995e-01,	 2.6496019999999998e-01,	 2.7930774804819859e-02,	 1.5846657398127113e+03,	 4.2356004022060347e+02,	 4.6072303732517378e+02,	 3.7021400970024520e+03,	 4.3077347226686703e+02,	 3.8077908421728206e+00 
9.8615339999999996e-01,	 2.6509660000000002e-01,	 2.7926849448880738e-02,	 1.5846756041195740e+03,	 4.2357707170476340e+02,	 4.6070203646174184e+02,	 3.7014510741647014e+03,	 4.3076365430984924e+02,	 3.8079099619070598e+00 
9.8666820000000000e-01,	 2.6523170000000001e-01,	 2.7924071482900600e-02,	 1.5846816757196063e+03,	 4.2359802098448608e+02,	 4.6068386951137438e+02,	 3.7009369344229790e+03,	 4.3075516103387275e+02,	 3.8080112192931819e+00 