TITLE = "Final State"
VARIABLES = "X", "Y", "rho", "u", "v", "T", "p", "c", "M"
ZONE I=80, J=27, DATAPACKING=POINT, STRANDID=89000, SOLUTIONTIME=0.002147
9.5440280000000000e-01,	 2.5583319999999998e-01,	 2.7825628832154586e-02,	 1.5848851943430464e+03,	 4.2433302320572398e+02,	 4.6007607366090349e+02,	 3.6830242087516740e+03,	 4.3047091230292267e+02,	 3.8114237081736011e+00 
9.5517879999999999e-01,	 2.5604109999999997e-01,	 2.7826725963441379e-02,	 1.5848801437828042e+03,	 4.2427330176337671e+02,	 4.6008872161167903e+02,	 3.6832706800003234e+03,	 4.3047682929991743e+02,	 3.8113241079588627e+00 
9.5593890000000004e-01,	 2.5624479999999999e-01,	 2.7828000794316701e-02,	 1.5848807671686541e+03,	 4.2421918690071016e+02,	 4.6010772329458160e+02,	 3.6835915485500877e+03,	 4.3048571856340993e+02,	 3.8112143001936527e+00 
9.5669899999999997e-01,	 2.5644839999999997e-01,	 2.7829885305780150e-02,	 1.5848751007794444e+03,	 4.2417799721944345e+02,	 4.6012765024502664e+02,	 3.6840005459017507e+03,	 4.3049504048333114e+02,	 3.8110943191192495e+00 
9.5744370000000001e-01,	 2.5664799999999999e-01,	 2.7835396544653068e-02,	 1.5848586619596795e+03,	 4.2417444445596914e+02,	 4.6016061675311607e+02,	 3.6849940977990077e+03,	 4.3051046192565917e+02,	 3.8109187809688474e+00 
9.5818840000000005e-01,	 2.5684750000000001e-01,	 2.7836525639266956e-02,	 1.5848609513178008e+03,	 4.2412506520947750e+02,	 4.6017475976139826e+02,	 3.6852568358586996e+03,	 4.3051707773112315e+02,	 3.8108357025560649e+00 
9.5891830000000000e-01,	 2.5704299999999997e-01,	 2.7839842055165813e-02,	 1.5848525846325820e+03,	 4.2409887519544696e+02,	 4.6019938920579477e+02,	 3.6858931592648159e+03,	 4.3052859863087701e+02,	 3.8106992264922384e+00 
9.5964819999999995e-01,	 2.5723859999999998e-01,	 2.7846622479013455e-02,	 1.5848271670704016e+03,	 4.2411056057982876e+02,	 4.6024049501700449e+02,	 3.6871201731403867e+03,	 4.3054782598378279e+02,	 3.8104790359897729e+00 
9.6036370000000004e-01,	 2.5743030000000000e-01,	 2.7850535208157175e-02,	 1.5848132413656201e+03,	 4.2409328422163742e+02,	 4.6026974365454646e+02,	 3.6878726026728177e+03,	 4.3056150658922348e+02,	 3.8103163459332547e+00 
9.6107929999999997e-01,	 2.5762199999999996e-01,	 2.7854483917447537e-02,	 1.5847986951930875e+03,	 4.2407585879213855e+02,	 4.6029937848705970e+02,	 3.6886329575178124e+03,	 4.3057536738817060e+02,	 3.8101505903902568e+00 
9.6178100000000000e-01,	 2.5780999999999998e-01,	 2.7861524019332902e-02,	 1.5847676085252203e+03,	 4.2410144558942028e+02,	 4.6034457048202785e+02,	 3.6899274836776531e+03,	 4.3059650372156688e+02,	 3.8099091849509978e+00 
9.6248270000000002e-01,	 2.5799810000000001e-01,	 2.7868359413231680e-02,	 1.5847390178509449e+03,	 4.2410130591770280e+02,	 4.6038735607178444e+02,	 3.6911757856416511e+03,	 4.3061651362119693e+02,	 3.8096679243589424e+00 
9.6317120000000001e-01,	 2.5818249999999998e-01,	 2.7870784086725661e-02,	 1.5847277705302363e+03,	 4.2408439294842623e+02,	 4.6041226303327119e+02,	 3.6916966446820111e+03,	 4.3062816164293599e+02,	 3.8095294932371093e+00 
9.6385960000000004e-01,	 2.5836700000000001e-01,	 2.7877872145735443e-02,	 1.5846995763650725e+03,	 4.2409275117130858e+02,	 4.6045367697235838e+02,	 3.6929676632430328e+03,	 4.3064752864167230e+02,	 3.8092999454409147e+00 
9.6453520000000004e-01,	 2.5854800000000000e-01,	 2.7881790102065252e-02,	 1.5846823042788726e+03,	 4.2408337431026507e+02,	 4.6048407562779676e+02,	 3.6937305129510637e+03,	 4.3066174384988454e+02,	 3.8091298373951896e+00 
9.6521069999999998e-01,	 2.5872899999999999e-01,	 2.7886601214586332e-02,	 1.5846637697485639e+03,	 4.2407704805803314e+02,	 4.6051545280867867e+02,	 3.6946196132663395e+03,	 4.3067641615015191e+02,	 3.8089546975040971e+00 
9.6587400000000001e-01,	 2.5890669999999999e-01,	 2.7890589138541800e-02,	 1.5846476861639981e+03,	 4.2406853808564290e+02,	 4.6054407073989830e+02,	 3.6953775909550136e+03,	 4.3068979776037378e+02,	 3.8087951702469804e+00 
9.6653719999999999e-01,	 2.5908439999999999e-01,	 2.7895118742733004e-02,	 1.5846304198636603e+03,	 4.2406258598544105e+02,	 4.6057358128244675e+02,	 3.6962145723866943e+03,	 4.3070359631605101e+02,	 3.8086308485436127e+00 
9.6718859999999995e-01,	 2.5925890000000001e-01,	 2.7898483412802533e-02,	 1.5846166050320562e+03,	 4.2405281566987276e+02,	 4.6059922812064264e+02,	 3.6968662515163792e+03,	 4.3071558791969784e+02,	 3.8084879640697746e+00 
9.6783989999999998e-01,	 2.5943339999999998e-01,	 2.7903670840818240e-02,	 1.5845944659221077e+03,	 4.2406508707329249e+02,	 4.6063259308486522e+02,	 3.6978214887200656e+03,	 4.3073118776123505e+02,	 3.8083077449152811e+00 
9.6847989999999995e-01,	 2.5960489999999997e-01,	 2.7907969141915984e-02,	 1.5845774337599719e+03,	 4.2405991258395284e+02,	 4.6066030642859084e+02,	 3.6986136124981135e+03,	 4.3074414474919138e+02,	 3.8081518865559900e+00 
9.6911979999999998e-01,	 2.5977630000000002e-01,	 2.7909572961721703e-02,	 1.5845713874907469e+03,	 4.2403764068401813e+02,	 4.6067674175120811e+02,	 3.6989581308296260e+03,	 4.3075182867131616e+02,	 3.8080570294368967e+00 
9.6974879999999997e-01,	 2.5994479999999998e-01,	 2.7914647638071471e-02,	 1.5845471423322642e+03,	 4.2405874787734865e+02,	 4.6071039248180375e+02,	 3.6999009406365954e+03,	 4.3076756079726539e+02,	 3.8078762514684938e+00 
9.7037779999999996e-01,	 2.6011339999999999e-01,	 2.7921720536947379e-02,	 1.5845131765549927e+03,	 4.2409712111775571e+02,	 4.6075274529119702e+02,	 3.7011786220440963e+03,	 4.3078736043432315e+02,	 3.8076481002829854e+00 
9.7099619999999998e-01,	 2.6027909999999999e-01,	 2.7924215944527001e-02,	 1.5845006072696831e+03,	 4.2408916873212803e+02,	 4.6077326143186042e+02,	 3.7016742208738469e+03,	 4.3079695125693979e+02,	 3.8075303732043597e+00 
9.7161470000000005e-01,	 2.6044479999999998e-01,	 2.7926186968878990e-02,	 1.5844932387208146e+03,	 4.2407504363869668e+02,	 4.6078814729323665e+02,	 3.7020550983919015e+03,	 4.3080390992017186e+02,	 3.8074438714342791e+00 
9.7222310000000001e-01,	 2.6060780000000000e-01,	 2.7928798310924183e-02,	 1.5844828075046739e+03,	 4.2407026894782041e+02,	 4.6080570736456173e+02,	 3.7025423668048115e+03,	 4.3081211854636854e+02,	 3.8073450699107187e+00 
9.7283149999999996e-01,	 2.6077079999999997e-01,	 2.7931347448810248e-02,	 1.5844724814660049e+03,	 4.2406813509570981e+02,	 4.6082296278823014e+02,	 3.7030189667880900e+03,	 4.3082018460969761e+02,	 3.8072493526415991e+00 
9.7343020000000002e-01,	 2.6093119999999997e-01,	 2.7933159382354349e-02,	 1.5844650531262200e+03,	 4.2406195938824737e+02,	 4.6083673737554193e+02,	 3.7033698803626535e+03,	 4.3082662344454519e+02,	 3.8071720902532538e+00 
9.7402900000000003e-01,	 2.6109159999999998e-01,	 2.7936132057516501e-02,	 1.5844511555232157e+03,	 4.2407412763107266e+02,	 4.6085576914456379e+02,	 3.7039169558607355e+03,	 4.3083551955402112e+02,	 3.8070696193718874e+00 
9.7461850000000005e-01,	 2.6124959999999997e-01,	 2.7939731824156315e-02,	 1.5844341569595977e+03,	 4.2409198122282794e+02,	 4.6087805280191299e+02,	 3.7045733493075581e+03,	 4.3084593547553425e+02,	 3.8069501831898021e+00 
9.7520799999999996e-01,	 2.6140750000000001e-01,	 2.7939722698181228e-02,	 1.5844324510797387e+03,	 4.2407935856976883e+02,	 4.6088377665374446e+02,	 3.7046181480276900e+03,	 4.3084861090195670e+02,	 3.8069151436094644e+00 
9.7578869999999995e-01,	 2.6156309999999999e-01,	 2.7942103736551607e-02,	 1.5844209218975489e+03,	 4.2409019963651883e+02,	 4.6089842924518774e+02,	 3.7050516462612413e+03,	 4.3085545969856588e+02,	 3.8068352864315491e+00 
9.7636950000000000e-01,	 2.6171869999999997e-01,	 2.7944413040386324e-02,	 1.5844060619877628e+03,	 4.2411263069820654e+02,	 4.6091581455847984e+02,	 3.7054976219597374e+03,	 4.3086358566086000e+02,	 3.8067436360574907e+00 
9.7694179999999997e-01,	 2.6187210000000000e-01,	 2.7946328612089601e-02,	 1.5843945796131929e+03,	 4.2412695869259176e+02,	 4.6093003317100096e+02,	 3.7058659487493560e+03,	 4.3087023138111346e+02,	 3.8066677768700519e+00 
9.7751410000000005e-01,	 2.6202539999999996e-01,	 2.7944916538582915e-02,	 1.5844011048369623e+03,	 4.2410465544401882e+02,	 4.6092328359771739e+02,	 3.7056244349085528e+03,	 4.3086707667146163e+02,	 3.8066968927782066e+00 
9.7807849999999996e-01,	 2.6217659999999998e-01,	 2.7945416959929158e-02,	 1.5843990624331791e+03,	 4.2410582563391864e+02,	 4.6092518977648939e+02,	 3.7057061182099510e+03,	 4.3086796761020912e+02,	 3.8066851446309418e+00 
9.7864280000000003e-01,	 2.6232780000000000e-01,	 2.7946939416931584e-02,	 1.5843892498560308e+03,	 4.2412720921034884e+02,	 4.6093435333000855e+02,	 3.7059816801958177e+03,	 4.3087225058513098e+02,	 3.8066381389878163e+00 
9.7919959999999995e-01,	 2.6247700000000002e-01,	 2.7948047132942182e-02,	 1.5843808604885710e+03,	 4.2414669305675807e+02,	 4.6094090958418087e+02,	 3.7061812873214490e+03,	 4.3087531490212655e+02,	 3.8066039518842740e+00 
9.7975639999999997e-01,	 2.6262619999999998e-01,	 2.7946286278568259e-02,	 1.5843874752077945e+03,	 4.2414118142628274e+02,	 4.6093313302554338e+02,	 3.7058852577628631e+03,	 4.3087168022660217e+02,	 3.8066475848317962e+00 
9.8030600000000001e-01,	 2.6277339999999999e-01,	 2.7945319718545306e-02,	 1.5843898085992116e+03,	 4.2413691796778016e+02,	 4.6092819758943654e+02,	 3.7057174053698805e+03,	 4.3086937344370011e+02,	 3.8066706373666310e+00 
9.8085560000000005e-01,	 2.6292070000000001e-01,	 2.7946704149065256e-02,	 1.5843816991709014e+03,	 4.2416431655964664e+02,	 4.6093350800378607e+02,	 3.7059436853525976e+03,	 4.3087185548789392e+02,	 3.8066469722850687e+00 
9.8139829999999995e-01,	 2.6306609999999997e-01,	 2.7944434898231386e-02,	 1.5843901314312170e+03,	 4.2415557242436091e+02,	 4.6092128022651070e+02,	 3.7055444612201791e+03,	 4.3086614030345424e+02,	 3.8067111217348040e+00 
9.8194110000000001e-01,	 2.6321149999999999e-01,	 2.7941654036326806e-02,	 1.5844026713780731e+03,	 4.2414352862148621e+02,	 4.6090442786092808e+02,	 3.7050402378125323e+03,	 4.3085826349194957e+02,	 3.8068016007703513e+00 
9.8247750000000000e-01,	 2.6335520000000001e-01,	 2.7939931587130748e-02,	 1.5844090617786323e+03,	 4.2414718936319736e+02,	 4.6089303002799971e+02,	 3.7047202251567833e+03,	 4.3085293605249899e+02,	 3.8068651959961310e+00 
9.8301390000000000e-01,	 2.6349889999999998e-01,	 2.7938732285632116e-02,	 1.5844103653536490e+03,	 4.2416341383629543e+02,	 4.6088573524749745e+02,	 3.7045025687907787e+03,	 4.3084952637842173e+02,	 3.8069079836562061e+00 
9.8354419999999998e-01,	 2.6364100000000001e-01,	 2.7937973424180303e-02,	 1.5844102611653141e+03,	 4.2418571976978683e+02,	 4.6087986115247838e+02,	 3.7043547350128401e+03,	 4.3084678073136928e+02,	 3.8069453991070961e+00 
9.8407460000000002e-01,	 2.6378309999999999e-01,	 2.7935817646394953e-02,	 1.5844141611960144e+03,	 4.2419744052384078e+02,	 4.6086855727097327e+02,	 3.7039780471534873e+03,	 4.3084149706502814e+02,	 3.8070078656898438e+00 
9.8459929999999996e-01,	 2.6392369999999998e-01,	 2.7934510860375152e-02,	 1.5844140960053267e+03,	 4.2422121502310733e+02,	 4.6086137716340340e+02,	 3.7037470784188354e+03,	 4.3083814090165515e+02,	 3.8070516472249989e+00 
9.8512400000000000e-01,	 2.6406429999999997e-01,	 2.7932464890841974e-02,	 1.5844162511279633e+03,	 4.2424443061818261e+02,	 4.6085254820031810e+02,	 3.7034048604611689e+03,	 4.3083401398578786e+02,	 3.8071068836187774e+00 
9.8564339999999995e-01,	 2.6420349999999998e-01,	 2.7928739979252437e-02,	 1.5844300201478616e+03,	 4.2423697427783071e+02,	 4.6083099232485870e+02,	 3.7027377962336946e+03,	 4.3082393797233703e+02,	 3.8072223191673804e+00 
9.8616280000000001e-01,	 2.6434259999999998e-01,	 2.7924498849182626e-02,	 1.5844479209544938e+03,	 4.2422864568827555e+02,	 4.6080249866012264e+02,	 3.7019466060884915e+03,	 4.3081061861793722e+02,	 3.8073751644218312e+00 
9.8667729999999998e-01,	 2.6448050000000001e-01,	 2.7922900650295915e-02,	 1.5844536468122465e+03,	 4.2424542633171393e+02,	 4.6078746511851062e+02,	 3.7016139651310577e+03,	 4.3080359102780267e+02,	 3.8074601865584827e+00 
9.8719179999999995e-01,	 2.6461829999999997e-01,	 2.7918571195942835e-02,	 1.5844675529105161e+03,	 4.2424967000005131e+02,	 4.6076375984669255e+02,	 3.7008496282531191e+03,	 4.3079250951154467e+02,	 3.8075918577032364e+00 
9.8770179999999996e-01,	 2.6475499999999996e-01,	 2.7917723271879316e-02,	 1.5844692133761941e+03,	 4.2427677587966423e+02,	 4.6075180047635774e+02,	 3.7006411739195842e+03,	 4.3078691875003204e+02,	 3.8076612708762969e+00 
9.8821170000000003e-01,	 2.6489160000000000e-01,	 2.7912474645389214e-02,	 1.5844904831997987e+03,	 4.2426454879323433e+02,	 4.6071943727897275e+02,	 3.6996855567555808e+03,	 4.3077178925201190e+02,	 3.8078353570760473e+00 
9.8871750000000003e-01,	 2.6502710000000002e-01,	 2.7907735320191918e-02,	 1.5845106949897713e+03,	 4.2425828633412772e+02,	 4.6068790027586419e+02,	 3.6988041718195605e+03,	 4.3075704548102181e+02,	 3.8080072547155854e+00 
9.8922330000000003e-01,	 2.6516259999999997e-01,	 2.7904265182935331e-02,	 1.5845221297705305e+03,	 4.2427406211373750e+02,	 4.6066501870163972e+02,	 3.6981605602672807e+03,	 4.3074634786806780e+02,	 3.8081369426723670e+00 
9.8972519999999997e-01,	 2.6529710000000001e-01,	 2.7902014501193954e-02,	 1.5845284152637416e+03,	 4.2429977524439357e+02,	 4.6064698785697601e+02,	 3.6977175390795101e+03,	 4.3073791788513745e+02,	 3.8082410082666729e+00 
9.9022719999999997e-01,	 2.6543159999999999e-01,	 2.7896688318096712e-02,	 1.5845488120490511e+03,	 4.2429544680591084e+02,	 4.6061479388032490e+02,	 3.6967533070794134e+03,	 4.3072286578544464e+02,	 3.8084172354381831e+00 
9.9072559999999998e-01,	 2.6556510000000000e-01,	 2.7891837847778773e-02,	 1.5845669107878825e+03,	 4.2430064686917422e+02,	 4.6058478343321838e+02,	 3.6958697301103371e+03,	 4.3070883410810291e+02,	 3.8085850201087155e+00 
9.9122410000000005e-01,	 2.6569870000000001e-01,	 2.7889170476870069e-02,	 1.5845764535118578e+03,	 4.2431841944441271e+02,	 4.6056265855111280e+02,	 3.6953387645449161e+03,	 4.3069848911087166e+02,	 3.8087085749057938e+00 
9.9171949999999998e-01,	 2.6583140000000000e-01,	 2.7882896738389472e-02,	 1.5846004441625214e+03,	 4.2430788867624005e+02,	 4.6052669464021767e+02,	 3.6942189962282691e+03,	 4.3068167282736169e+02,	 3.8089047722751848e+00 
9.9221479999999995e-01,	 2.6596409999999998e-01,	 2.7879325582879481e-02,	 1.5846124864238227e+03,	 4.2432491158236252e+02,	 4.6050197955345794e+02,	 3.6935476197769690e+03,	 4.3067011597533781e+02,	 3.8090442167164471e+00 
9.9270740000000002e-01,	 2.6609610000000000e-01,	 2.7876451063019607e-02,	 1.5846203651418577e+03,	 4.2435198174291048e+02,	 4.6048121966504061e+02,	 3.6930003019939591e+03,	 4.3066040834679870e+02,	 3.8091640086675311e+00 
9.9319999999999997e-01,	 2.6622809999999997e-01,	 2.7871170084181197e-02,	 1.5846396331977749e+03,	 4.2435464697115265e+02,	 4.6044919945640288e+02,	 3.6920439422282589e+03,	 4.3064543479818190e+02,	 3.8093412737019454e+00 
9.9369019999999997e-01,	 2.6635939999999997e-01,	 2.7865817176208271e-02,	 1.5846591787324796e+03,	 4.2436403756729982e+02,	 4.6041669600281750e+02,	 3.6910742780143560e+03,	 4.3063023473816463e+02,	 3.8095252172101306e+00 
9.9418039999999996e-01,	 2.6649079999999997e-01,	 2.7862077386851713e-02,	 1.5846741999643357e+03,	 4.2436280720682032e+02,	 4.6038921016858717e+02,	 3.6903585905883724e+03,	 4.3061738072135370e+02,	 3.8096718889340200e+00 
9.9466849999999996e-01,	 2.6662150000000001e-01,	 2.7854263044517949e-02,	 1.5847065127454125e+03,	 4.2434443703380441e+02,	 4.6034319747785526e+02,	 3.6889548513693003e+03,	 4.3059586158166229e+02,	 3.8099237308836553e+00 
9.9515659999999995e-01,	 2.6675230000000000e-01,	 2.7851186773850366e-02,	 1.5847175138375551e+03,	 4.2436636421686842e+02,	 4.6031879334036915e+02,	 3.6883518964490354e+03,	 4.3058444785823002e+02,	 3.8100625746029260e+00 
9.9564299999999994e-01,	 2.6688259999999997e-01,	 2.7847209608985367e-02,	 1.5847263957542332e+03,	 4.2439976542720603e+02,	 4.6029719348916001e+02,	 3.6876521514345363e+03,	 4.3057434543655194e+02,	 3.8101919616263489e+00 
9.9612940000000005e-01,	 2.6701300000000000e-01,	 2.7844586005860220e-02,	 1.5847335805514822e+03,	 4.2442070783534814e+02,	 4.6027721750514479e+02,	 3.6871447004627307e+03,	 4.3056500229946175e+02,	 3.8103033433575919e+00 
9.9661440000000001e-01,	 2.6714290000000002e-01,	 2.7837576716920318e-02,	 1.5847628644751908e+03,	 4.2440160739945009e+02,	 4.6023331643437109e+02,	 3.6858649493568992e+03,	 4.3054446824447922e+02,	 3.8105392932112192e+00 
9.9709950000000003e-01,	 2.6727289999999998e-01,	 2.7832398119895532e-02,	 1.5847874592482412e+03,	 4.2438807880849146e+02,	 4.6019473098694641e+02,	 3.6848703102087470e+03,	 4.3052641968240926e+02,	 3.8107460931106978e+00 
9.9758349999999996e-01,	 2.6740249999999999e-01,	 2.7824613702133669e-02,	 1.5848188681821721e+03,	 4.2437451453721695e+02,	 4.6014923392432991e+02,	 3.6834754901350093e+03,	 4.3050513720098070e+02,	 3.8109968066327684e+00 
9.9806750000000000e-01,	 2.6753220000000000e-01,	 2.7822674474209275e-02,	 1.5848224445596502e+03,	 4.2441132985565503e+02,	 4.6012970363344516e+02,	 3.6830624431689321e+03,	 4.3049600105649347e+02,	 3.8111078310491324e+00 
9.9855079999999996e-01,	 2.6766170000000000e-01,	 2.7818506666475812e-02,	 1.5848293117071180e+03,	 4.2443838327223000e+02,	 4.6010381272952463e+02,	 3.6823035141204609e+03,	 4.3048388915922874e+02,	 3.8112467249169848e+00 
9.9903410000000004e-01,	 2.6779120000000001e-01,	 2.7815181612141582e-02,	 1.5848298160482123e+03,	 4.2446489877149781e+02,	 4.6007595393240183e+02,	 3.6816404476119005e+03,	 4.3047085629083722e+02,	 3.8113791806119566e+00 
9.9951699999999999e-01,	 2.6792060000000001e-01,	 2.7800403951258143e-02,	 1.5848484368372442e+03,	 4.2454320054754487e+02,	 4.6004676474639177e+02,	 3.6794510092745090e+03,	 4.3045720061823476e+02,	 3.8115889410431580e+00 
1.0000000000000000e+00,	 2.6805000000000001e-01,	 2.7779073051247140e-02,	 1.5849729628708151e+03,	 4.2376811134007664e+02,	 4.6013119593324564e+02,	 3.6773025747757943e+03,	 4.3049669915158546e+02,	 3.8110531922484348e+00 
9.5438000000000001e-01,	 2.5675739999999997e-01,	 2.7828571179308190e-02,	 1.5852544853264781e+03,	 4.2308071884487077e+02,	 4.5999110176082252e+02,	 3.6827333670842922e+03,	 4.3043115842035672e+02,	 3.8118532390161883e+00 
9.5515620000000001e-01,	 2.5696110000000000e-01,	 2.7832556002073090e-02,	 1.5852383354727403e+03,	 4.2307488314618161e+02,	 4.6001647626622906e+02,	 3.6834638840870789e+03,	 4.3044303020124170e+02,	 3.8117083604218620e+00 
9.5591640000000000e-01,	 2.5716069999999996e-01,	 2.7837378705222491e-02,	 1.5852277300229662e+03,	 4.2306679048503815e+02,	 4.6004349150217513e+02,	 3.6843184935942509e+03,	 4.3045566925864631e+02,	 3.8115677885532824e+00 
9.5667670000000005e-01,	 2.5736029999999999e-01,	 2.7840337227068003e-02,	 1.5852190333334936e+03,	 4.2303540167730489e+02,	 4.6006532744626077e+02,	 3.6848849529635986e+03,	 4.3046588491712851e+02,	 3.8114390122233188e+00 
9.5742159999999998e-01,	 2.5755580000000000e-01,	 2.7844566580507983e-02,	 1.5852038773226961e+03,	 4.2301927619943353e+02,	 4.6009407787266747e+02,	 3.6856750517583969e+03,	 4.3047933505525128e+02,	 3.8112762502321846e+00 
9.5816650000000003e-01,	 2.5775130000000002e-01,	 2.7848452617261189e-02,	 1.5851944215200726e+03,	 4.2299586629409487e+02,	 4.6011960349608137e+02,	 3.6863939376767576e+03,	 4.3049127620111915e+02,	 3.8111352884641030e+00 
9.5889659999999999e-01,	 2.5794299999999998e-01,	 2.7851100722646911e-02,	 1.5851878168557578e+03,	 4.2296193300932072e+02,	 4.6014096279663210e+02,	 3.6869156194242291e+03,	 4.3050126804429954e+02,	 3.8110116882552836e+00 
9.5962670000000005e-01,	 2.5813459999999999e-01,	 2.7855274674007724e-02,	 1.5851721698914448e+03,	 4.2294543009329840e+02,	 4.6016991823914418e+02,	 3.6877002076714780e+03,	 4.3051481297903621e+02,	 3.8108467870531282e+00 
9.6034240000000004e-01,	 2.5832250000000001e-01,	 2.7859799404636721e-02,	 1.5851559659296017e+03,	 4.2293462731264253e+02,	 4.6020049887685417e+02,	 3.6885443333693288e+03,	 4.3052911769375430e+02,	 3.8106773345653329e+00 
9.6105819999999997e-01,	 2.5851039999999997e-01,	 2.7863848230198433e-02,	 1.5851424489935985e+03,	 4.2291875044243920e+02,	 4.6022848532706337e+02,	 3.6893047306105582e+03,	 4.3054220850804654e+02,	 3.8105216289963755e+00 
9.6176010000000001e-01,	 2.5869460000000000e-01,	 2.7867888911845738e-02,	 1.5851229954206374e+03,	 4.2291260511067071e+02,	 4.6025965890734631e+02,	 3.6900896672154831e+03,	 4.3055678965117505e+02,	 3.8103452480317235e+00 
9.6246209999999999e-01,	 2.5887889999999997e-01,	 2.7874108371267910e-02,	 1.5850964543094638e+03,	 4.2291843688491792e+02,	 4.6029872185884898e+02,	 3.6912264622441112e+03,	 4.3057506027496657e+02,	 3.8101274971718060e+00 
9.6315070000000003e-01,	 2.5905970000000000e-01,	 2.7878211705125160e-02,	 1.5850782523793428e+03,	 4.2291973665996596e+02,	 4.6032976408511195e+02,	 3.6920188162814420e+03,	 4.3058957887176962e+02,	 3.8099589623458781e+00 
9.6383940000000001e-01,	 2.5924039999999998e-01,	 2.7883393733680914e-02,	 1.5850548069129604e+03,	 4.2292300044254011e+02,	 4.6036463340430106e+02,	 3.6929848093697588e+03,	 4.3060588683436316e+02,	 3.8097640178240528e+00 
9.6451520000000002e-01,	 2.5941779999999998e-01,	 2.7888030921908471e-02,	 1.5850335566733818e+03,	 4.2292795245228865e+02,	 4.6039716562814681e+02,	 3.6938599892043549e+03,	 4.3062110120858853e+02,	 3.8095846990256250e+00 
9.6519100000000002e-01,	 2.5959519999999997e-01,	 2.7892737975712512e-02,	 1.5850124572711234e+03,	 4.2293310827026659e+02,	 4.6042917414605733e+02,	 3.6947403079080855e+03,	 4.3063607013617678e+02,	 3.8094080247082704e+00 
9.6585449999999995e-01,	 2.5976929999999998e-01,	 2.7896854638161578e-02,	 1.5849932486873013e+03,	 4.2293614035985615e+02,	 4.6045860897528797e+02,	 3.6955218474225599e+03,	 4.3064983500742812e+02,	 3.8092449838484739e+00 
9.6651799999999999e-01,	 2.5994349999999999e-01,	 2.7901217262137616e-02,	 1.5849735527517396e+03,	 4.2294122221671256e+02,	 4.6048805216331823e+02,	 3.6963361085858683e+03,	 4.3066360334743899e+02,	 3.8090820565662660e+00 
9.6716959999999996e-01,	 2.6011449999999997e-01,	 2.7904909363069396e-02,	 1.5849567507813299e+03,	 4.2294340762761612e+02,	 4.6051401365406895e+02,	 3.6970336562259117e+03,	 4.3067574319723576e+02,	 3.8089383007223709e+00 
9.6782120000000005e-01,	 2.6028550000000000e-01,	 2.7908574263787286e-02,	 1.5849374336971719e+03,	 4.2295018126490947e+02,	 4.6054094259028193e+02,	 3.6977354228735253e+03,	 4.3068833507254544e+02,	 3.8087876599875718e+00 
9.6846140000000003e-01,	 2.6045360000000001e-01,	 2.7912973143525432e-02,	 1.5849160676638426e+03,	 4.2296251973972602e+02,	 4.6056981978101851e+02,	 3.6985501454731602e+03,	 4.3070183753573190e+02,	 3.8086277110889433e+00 
9.6910160000000001e-01,	 2.6062160000000001e-01,	 2.7916267800120374e-02,	 1.5849017880400786e+03,	 4.2296729216444294e+02,	 4.6059218387458066e+02,	 3.6991663103987999e+03,	 4.3071229429912779e+02,	 3.8085060704019322e+00 
9.6973080000000000e-01,	 2.6078669999999998e-01,	 2.7918816404677964e-02,	 1.5848864206672283e+03,	 4.2296897646819355e+02,	 4.6061296572478574e+02,	 3.6996709453810772e+03,	 4.3072201102656078e+02,	 3.8083866902932315e+00 
9.7036000000000000e-01,	 2.6095190000000001e-01,	 2.7923198398120810e-02,	 1.5848608018750319e+03,	 4.2299055585918188e+02,	 4.6064244114794576e+02,	 3.7004884121771993e+03,	 4.3073579213063874e+02,	 3.8082202965655592e+00 
9.7097880000000003e-01,	 2.6111429999999997e-01,	 2.7927424839042231e-02,	 1.5848377582731782e+03,	 4.2301534718342572e+02,	 4.6067067531455888e+02,	 3.7012753646392712e+03,	 4.3074899247724971e+02,	 3.8080667478987325e+00 
9.7159750000000000e-01,	 2.6127669999999997e-01,	 2.7930588793458142e-02,	 1.5848205684574896e+03,	 4.2303226379163141e+02,	 4.6069327167179392e+02,	 3.7018762614332782e+03,	 4.3075955668209212e+02,	 3.8079449284509579e+00 
9.7220620000000002e-01,	 2.6143640000000001e-01,	 2.7933212497071282e-02,	 1.5848058046041199e+03,	 4.2304441632960527e+02,	 4.6071242000461098e+02,	 3.7023778828417508e+03,	 4.3076850867049279e+02,	 3.8078399557950555e+00 
9.7281479999999998e-01,	 2.6159620000000000e-01,	 2.7935579179114576e-02,	 1.5847916178621242e+03,	 4.2305668740063197e+02,	 4.6073002511838831e+02,	 3.7028330624213813e+03,	 4.3077673902833646e+02,	 3.8077427318455328e+00 
9.7341390000000005e-01,	 2.6175339999999997e-01,	 2.7937846000697718e-02,	 1.5847795068531655e+03,	 4.2306852191065127e+02,	 4.6074505564749143e+02,	 3.7032543357516279e+03,	 4.3078376564821514e+02,	 3.8076605457304709e+00 
9.7401289999999996e-01,	 2.6191059999999999e-01,	 2.7939152726837932e-02,	 1.5847678463978391e+03,	 4.2307895001295844e+02,	 4.6075749313757001e+02,	 3.7035275180770732e+03,	 4.3078957996199682e+02,	 3.8075892460994423e+00 
9.7460270000000004e-01,	 2.6206540000000000e-01,	 2.7941493085942442e-02,	 1.5847511373182040e+03,	 4.2310230941114440e+02,	 4.6077482426405248e+02,	 3.7039770665421975e+03,	 4.3079768183619552e+02,	 3.8074941505709514e+00 
9.7519250000000002e-01,	 2.6222020000000001e-01,	 2.7942809060980622e-02,	 1.5847400175147579e+03,	 4.2311941754854706e+02,	 4.6078636874037983e+02,	 3.7042443202891404e+03,	 4.3080307850961088e+02,	 3.8074317597298624e+00 
9.7577349999999996e-01,	 2.6237270000000001e-01,	 2.7944146186883952e-02,	 1.5847289971593143e+03,	 4.2313691244879647e+02,	 4.6079658042580155e+02,	 3.7045036719478458e+03,	 4.3080785208956235e+02,	 3.8073753323488768e+00 
9.7635450000000001e-01,	 2.6252510000000001e-01,	 2.7945334955825268e-02,	 1.5847162167933429e+03,	 4.2315770337302047e+02,	 4.6080598832138668e+02,	 3.7047369013992816e+03,	 4.3081224988109875e+02,	 3.8073202545394595e+00 
9.7692710000000005e-01,	 2.6267540000000000e-01,	 2.7947081581815761e-02,	 1.5847003972023970e+03,	 4.2318923585177964e+02,	 4.6081926375402708e+02,	 3.7050751901197500e+03,	 4.3081845550554596e+02,	 3.8072488193389060e+00 
9.7749980000000003e-01,	 2.6282570000000000e-01,	 2.7947717594970667e-02,	 1.5846925030693490e+03,	 4.2321281366929605e+02,	 4.6082541445929587e+02,	 3.7052089633300093e+03,	 4.3082133063329189e+02,	 3.8072198286760215e+00 
9.7806439999999994e-01,	 2.6297389999999998e-01,	 2.7947579882877084e-02,	 1.5846877824709875e+03,	 4.2322754394401755e+02,	 4.6082647484739783e+02,	 3.7051992318261719e+03,	 4.3082182630642097e+02,	 3.8072136843436324e+00 
9.7862910000000003e-01,	 2.6312209999999997e-01,	 2.7947675032769410e-02,	 1.5846807847749722e+03,	 4.2324679483381237e+02,	 4.6082777402727800e+02,	 3.7052222923664071e+03,	 4.3082243360079826e+02,	 3.8072041550969709e+00 
9.7918609999999995e-01,	 2.6326820000000001e-01,	 2.7947978565623033e-02,	 1.5846707324802735e+03,	 4.2327444890475073e+02,	 4.6083093872532288e+02,	 3.7052879794736668e+03,	 4.3082391291763787e+02,	 3.8071851037640734e+00 
9.7974320000000004e-01,	 2.6341439999999999e-01,	 2.7948049944727993e-02,	 1.5846650385561541e+03,	 4.2330398235983080e+02,	 4.6083164554668411e+02,	 3.7053031259509962e+03,	 4.3082424331584059e+02,	 3.8071871061611278e+00 
9.8029310000000003e-01,	 2.6355869999999998e-01,	 2.7947186609019882e-02,	 1.5846632096497419e+03,	 4.2331947168488477e+02,	 4.6082662506443916e+02,	 3.7051483006357794e+03,	 4.3082189652458152e+02,	 3.8072130222561724e+00 
9.8084300000000002e-01,	 2.6370299999999997e-01,	 2.7946684626352025e-02,	 1.5846574175026867e+03,	 4.2334522083383138e+02,	 4.6082368531962652e+02,	 3.7050581136089199e+03,	 4.3082052235435521e+02,	 3.8072276026355190e+00 
9.8138610000000004e-01,	 2.6384560000000001e-01,	 2.7945939850604631e-02,	 1.5846541376891664e+03,	 4.2337253305979647e+02,	 4.6081942145166408e+02,	 3.7049250933456901e+03,	 4.3081852922104781e+02,	 3.8072542244250291e+00 
9.8192919999999995e-01,	 2.6398810000000000e-01,	 2.7944114530094419e-02,	 1.5846563431477953e+03,	 4.2339142372919969e+02,	 4.6080942440832723e+02,	 3.7046027323831609e+03,	 4.3081385609458516e+02,	 3.8073117866414790e+00 
9.8246590000000000e-01,	 2.6412890000000000e-01,	 2.7942042700677662e-02,	 1.5846600553418348e+03,	 4.2340637771120043e+02,	 4.6079666615418921e+02,	 3.7042255058281944e+03,	 4.3080789216414445e+02,	 3.8073817784428003e+00 
9.8300259999999995e-01,	 2.6426980000000000e-01,	 2.7939730041046097e-02,	 1.5846634627876242e+03,	 4.2342185834746084e+02,	 4.6078303893465295e+02,	 3.7038093841346781e+03,	 4.3080152193888000e+02,	 3.8074549954572654e+00 
9.8353330000000005e-01,	 2.6440900000000001e-01,	 2.7938045183375965e-02,	 1.5846637277431041e+03,	 4.2344587173175773e+02,	 4.6077186922372260e+02,	 3.7034962546613478e+03,	 4.3079630043849556e+02,	 3.8075161279835319e+00 
9.8406389999999999e-01,	 2.6454830000000001e-01,	 2.7935985822476084e-02,	 1.5846651126923662e+03,	 4.2346913699784466e+02,	 4.6075906975275848e+02,	 3.7031203943027008e+03,	 4.3079031699701403e+02,	 3.8075860606087994e+00 
9.8458889999999999e-01,	 2.6468599999999998e-01,	 2.7934171970811175e-02,	 1.5846654652744735e+03,	 4.2349562236853842e+02,	 4.6074649787334766e+02,	 3.7027789212957578e+03,	 4.3078443986814597e+02,	 3.8076546708743355e+00 
9.8511389999999999e-01,	 2.6482380000000000e-01,	 2.7932490275545542e-02,	 1.5846638339666140e+03,	 4.2352740784323350e+02,	 4.6073489218122455e+02,	 3.7024627430315031e+03,	 4.3077901434338639e+02,	 3.8077180197367513e+00 
9.8563369999999995e-01,	 2.6496019999999998e-01,	 2.7930774824209872e-02,	 1.5846657394896165e+03,	 4.2356004013623760e+02,	 4.6072303745386512e+02,	 3.7021401006066394e+03,	 4.3077347232702988e+02,	 3.8077908408658456e+00 
9.8615339999999996e-01,	 2.6509660000000002e-01,	 2.7926849468616014e-02,	 1.5846756037909479e+03,	 4.2357707161954335e+02,	 4.6070203659266105e+02,	 3.7014510778322870e+03,	 4.3076365437105494e+02,	 3.8079099605779030e+00 
9.8666820000000000e-01,	 2.6523170000000001e-01,	 2.7924071502943466e-02,	 1.5846816753855321e+03,	 4.2359802089801479e+02,	 4.6068386964431500e+02,	 3.7009369381473630e+03,	 4.3075516109602478e+02,	 3.8080112179426497e+00 