TITLE = "Final State"
VARIABLES = "X", "Y", "rho", "u", "v", "T", "p", "c", "M"
ZONE I=77, J=21, DATAPACKING=POINT, STRANDID=37000, SOLUTIONTIME=0.000893
1.8369600000000000e-01,	 3.0203999999999998e-01,	 1.1611540434467747e-02,	 1.7358448185219222e+03,	 9.8217433915702257e-01,	 3.0025868016195932e+02,	 1.0030332908410071e+03,	 3.4775771388860323e+02,	 4.9915358511486358e+00 
1.8819400000000000e-01,	 3.0203999999999998e-01,	 1.1621160009205848e-02,	 1.7358019836217750e+03,	 1.3314432531862108e+00,	 3.0035565099443579e+02,	 1.0041884588807018e+03,	 3.4781386485935002e+02,	 4.9906075336128399e+00 
1.9269200000000000e-01,	 3.0203999999999998e-01,	 1.1630345481649762e-02,	 1.7357454805379375e+03,	 1.6308059622770950e+00,	 3.0044594936763491e+02,	 1.0052843147368695e+03,	 3.4786614399224794e+02,	 4.9896958258803190e+00 
1.9719000000000000e-01,	 3.0203999999999998e-01,	 1.1635550473870011e-02,	 1.7357137514633437e+03,	 1.7760325336054810e+00,	 3.0049495295553811e+02,	 1.0058982532405897e+03,	 3.4789451181376018e+02,	 4.9891981654376663e+00 
2.0168800000000001e-01,	 3.0203999999999998e-01,	 1.1637756277862293e-02,	 1.7357010135858086e+03,	 1.8144041867549217e+00,	 3.0051402498706932e+02,	 1.0061528011100671e+03,	 3.4790555184913734e+02,	 4.9890033450119589e+00 
2.0618600000000001e-01,	 3.0203999999999998e-01,	 1.1637708310526556e-02,	 1.7357023822098129e+03,	 1.7781356259386394e+00,	 3.0050902698071422e+02,	 1.0061319202644963e+03,	 3.4790265873726162e+02,	 4.9890486589339709e+00 
2.1068400000000001e-01,	 3.0203999999999998e-01,	 1.1636039082619794e-02,	 1.7357136361412456e+03,	 1.6918764618480262e+00,	 3.0048863782381261e+02,	 1.0059193530630001e+03,	 3.4789085615966331e+02,	 4.9892500190280051e+00 
2.1518200000000001e-01,	 3.0203999999999998e-01,	 1.1633255671788273e-02,	 1.7357313221199665e+03,	 1.5746522882456162e+00,	 3.0046158974699028e+02,	 1.0055882062721081e+03,	 3.4787519834572237e+02,	 4.9895251073796603e+00 
2.1967999999999999e-01,	 3.0203999999999998e-01,	 1.1629926923611004e-02,	 1.7357533681778684e+03,	 1.4405876774785056e+00,	 3.0042395357141402e+02,	 1.0051745414063313e+03,	 3.4785341003314335e+02,	 4.9899006763219891e+00 
2.2417799999999999e-01,	 3.0203999999999998e-01,	 1.1626086321084486e-02,	 1.7357778696170253e+03,	 1.2992719066288678e+00,	 3.0037843504406334e+02,	 1.0046903501133980e+03,	 3.4782705665057068e+02,	 4.9903488607242696e+00 
2.2867599999999999e-01,	 3.0203999999999998e-01,	 1.1621946955396437e-02,	 1.7358028206161621e+03,	 1.1561558212882845e+00,	 3.0033579873098404e+02,	 1.0041900819844618e+03,	 3.4780237014207989e+02,	 4.9907745164126780e+00 
2.3317399999999999e-01,	 3.0203999999999998e-01,	 1.1617971122762721e-02,	 1.7358274022511428e+03,	 1.0171435474726651e+00,	 3.0029394729680411e+02,	 1.0037066668020495e+03,	 3.4777813637575946e+02,	 4.9911927136893262e+00 
2.3767199999999999e-01,	 3.0203999999999998e-01,	 1.1614168774904607e-02,	 1.7358509581469962e+03,	 8.8699805523274933e-01,	 3.0025395469907835e+02,	 1.0032445440391779e+03,	 3.4775497737715028e+02,	 4.9915926376140352e+00 
2.4217000000000000e-01,	 3.0203999999999998e-01,	 1.1610610681926870e-02,	 1.7358730571353249e+03,	 7.6709710559469491e-01,	 3.0021647211132495e+02,	 1.0028119891423308e+03,	 3.4773327048023810e+02,	 4.9919676199845924e+00 
2.4666800000000000e-01,	 3.0203999999999998e-01,	 1.1607342773060775e-02,	 1.7358933864532928e+03,	 6.5848783676053824e-01,	 3.0018200541288081e+02,	 1.0024146422726229e+03,	 3.4771330894764418e+02,	 4.9923125364434133e+00 
2.5116600000000000e-01,	 3.0203999999999998e-01,	 1.1604387447287477e-02,	 1.7359117827503592e+03,	 5.6150504648001853e-01,	 3.0015081473888625e+02,	 1.0020552889363618e+03,	 3.4769524375051788e+02,	 4.9926247331967373e+00 
2.5566400000000000e-01,	 3.0203999999999998e-01,	 1.1601751488109277e-02,	 1.7359281966972189e+03,	 4.7593093351393723e-01,	 3.0012297965894970e+02,	 1.0017347636565162e+03,	 3.4767912127338553e+02,	 4.9929033862636141e+00 
2.6016200000000000e-01,	 3.0203999999999998e-01,	 1.1599429249652234e-02,	 1.7359426669861402e+03,	 4.0122686419357534e-01,	 3.0009843915856334e+02,	 1.0014523600720253e+03,	 3.4766490644378013e+02,	 4.9931490960950802e+00 
2.6466000000000001e-01,	 3.0203999999999998e-01,	 1.1597404577064620e-02,	 1.7359552864137531e+03,	 3.3664906195986671e-01,	 3.0007703313252023e+02,	 1.0012061360921900e+03,	 3.4765250675123440e+02,	 4.9933634458118430e+00 
2.6915800000000001e-01,	 3.0203999999999998e-01,	 1.1595656201459494e-02,	 1.7359661858726326e+03,	 2.8132735204735099e-01,	 3.0005854000537499e+02,	 1.0009935055324844e+03,	 3.4764179403356997e+02,	 4.9935486424876894e+00 
2.7365600000000001e-01,	 3.0203999999999998e-01,	 1.1594160365886223e-02,	 1.7359755186865450e+03,	 2.3434313041389121e-01,	 3.0004270397154426e+02,	 1.0008115556223943e+03,	 3.4763262025726237e+02,	 4.9937072453646545e+00 
2.7815400000000001e-01,	 3.0203999999999998e-01,	 1.1592890967715749e-02,	 1.7359834405234417e+03,	 1.9475842422420275e-01,	 3.0002925726771497e+02,	 1.0006571333479286e+03,	 3.4762483042401783e+02,	 4.9938419224278370e+00 
2.8265200000000001e-01,	 3.0203999999999998e-01,	 1.1591822622077180e-02,	 1.7359901092757264e+03,	 1.6165729669895634e-01,	 3.0001793304239908e+02,	 1.0005271524916936e+03,	 3.4761827003206304e+02,	 4.9939553425729235e+00 
2.8715000000000002e-01,	 3.0203999999999998e-01,	 1.1590931206281806e-02,	 1.7359956819622173e+03,	 1.3419095129108272e-01,	 3.0000847017584817e+02,	 1.0004186563503355e+03,	 3.4761278787437118e+02,	 4.9940501261882106e+00 
2.9164800000000002e-01,	 3.0203999999999998e-01,	 1.1590192797965969e-02,	 1.7360003014820486e+03,	 1.1157419528687279e-01,	 3.0000062288691254e+02,	 1.0003287578106261e+03,	 3.4760824160969304e+02,	 4.9941287267198211e+00 
2.9614600000000002e-01,	 3.0203999999999998e-01,	 1.1589585951546157e-02,	 1.7360041012041775e+03,	 9.3088424918244594e-02,	 2.9999416522994136e+02,	 1.0002548505564807e+03,	 3.4760450037268669e+02,	 4.9941934061230882e+00 
3.0064400000000002e-01,	 3.0203999999999998e-01,	 1.1589091815551282e-02,	 1.7360072051435332e+03,	 7.8102555194654644e-02,	 2.9998889118898302e+02,	 1.0001946192737322e+03,	 3.4760144483254237e+02,	 4.9942462343238114e+00 
3.0514200000000002e-01,	 3.0203999999999998e-01,	 1.1588692514144197e-02,	 1.7360097186311973e+03,	 6.6055930667614254e-02,	 2.9998461848175020e+02,	 1.0001459124670218e+03,	 3.4759896940005223e+02,	 4.9942890305004024e+00 
3.0964000000000003e-01,	 3.0203999999999998e-01,	 1.1588372820615395e-02,	 1.7360117361943012e+03,	 5.6455020675553663e-02,	 2.9998118665337824e+02,	 1.0001068803957253e+03,	 3.4759698112574836e+02,	 4.9943234014573639e+00 
3.1413799999999997e-01,	 3.0203999999999998e-01,	 1.1588120057735268e-02,	 1.7360133434183413e+03,	 4.8883123265304355e-02,	 2.9997845475549752e+02,	 1.0000759586260804e+03,	 3.4759539835712764e+02,	 4.9943507661829072e+00 
3.1863599999999997e-01,	 3.0203999999999998e-01,	 1.1587922159951818e-02,	 1.7360146094210263e+03,	 4.2978465139347680e-02,	 2.9997630179982991e+02,	 1.0000517022284527e+03,	 3.4759415100283633e+02,	 4.9943723303297727e+00 
3.2313399999999998e-01,	 3.0203999999999998e-01,	 1.1587769296806275e-02,	 1.7360155948986360e+03,	 3.8431815884655593e-02,	 2.9997462436913588e+02,	 1.0000329178613341e+03,	 3.4759317914954397e+02,	 4.9943891291870139e+00 
3.2763199999999998e-01,	 3.0203999999999998e-01,	 1.1587653762420762e-02,	 1.7360163543619010e+03,	 3.4988656651212327e-02,	 2.9997333409000794e+02,	 1.0000186457668826e+03,	 3.4759243159846812e+02,	 4.9944020551054553e+00 
3.3212999999999998e-01,	 3.0203999999999998e-01,	 1.1587546095771546e-02,	 1.7360169362400698e+03,	 3.2366563116203173e-02,	 2.9997236712870051e+02,	 1.0000061305756826e+03,	 3.4759187136749961e+02,	 4.9944117787102940e+00 
3.3662799999999998e-01,	 3.0203999999999998e-01,	 1.1587482630998805e-02,	 1.7360173556984414e+03,	 3.0400505396402072e-02,	 2.9997164612326742e+02,	 9.9999824998644544e+02,	 3.4759145363605865e+02,	 4.9944189875919633e+00 
3.4112599999999998e-01,	 3.0203999999999998e-01,	 1.1587462302185322e-02,	 1.7360176567734777e+03,	 2.9166873137101069e-02,	 2.9997111488650989e+02,	 9.9999472466211137e+02,	 3.4759114585123814e+02,	 4.9944242761622997e+00 
3.4562399999999999e-01,	 3.0203999999999998e-01,	 1.1587436875890677e-02,	 1.7360178774528576e+03,	 2.8383400967448423e-02,	 2.9997074941116739e+02,	 9.9999131202071339e+02,	 3.4759093410413067e+02,	 4.9944279535346423e+00 
3.5012199999999999e-01,	 3.0203999999999998e-01,	 1.1587421958080126e-02,	 1.7360180178542396e+03,	 2.7942482368114537e-02,	 2.9997051198152940e+02,	 9.9998923311803901e+02,	 3.4759079654337495e+02,	 4.9944303340105378e+00 
3.5461999999999999e-01,	 3.0203999999999998e-01,	 1.1587416304139082e-02,	 1.7360181067067597e+03,	 2.7791625331982983e-02,	 2.9997036822230962e+02,	 9.9998826594639218e+02,	 3.4759071325287522e+02,	 4.9944317864046255e+00 
3.5911799999999999e-01,	 3.0203999999999998e-01,	 1.1587417553749493e-02,	 1.7360181530086566e+03,	 2.7889766880501515e-02,	 2.9997029092256491e+02,	 9.9998811609887673e+02,	 3.4759066846732640e+02,	 4.9944325631281217e+00 
3.6361599999999999e-01,	 3.0203999999999998e-01,	 1.1587426178648524e-02,	 1.7360181460922604e+03,	 2.8106186817274351e-02,	 2.9997029846657034e+02,	 9.9998888557207840e+02,	 3.4759067283813567e+02,	 4.9944324804371290e+00 
3.6811400000000000e-01,	 3.0203999999999998e-01,	 1.1587440984660184e-02,	 1.7360181121998057e+03,	 2.8433227458802994e-02,	 2.9997036117373597e+02,	 9.9999037236575168e+02,	 3.4759070916910724e+02,	 4.9944318609162153e+00 
3.7261200000000000e-01,	 3.0203999999999998e-01,	 1.1587458788368109e-02,	 1.7360180599214254e+03,	 2.8862338286870983e-02,	 2.9997045514137943e+02,	 9.9999222207074979e+02,	 3.4759076361161476e+02,	 4.9944309282657331e+00 
3.7711000000000000e-01,	 3.0203999999999998e-01,	 1.1587478555418534e-02,	 1.7360179947813235e+03,	 2.9338835747078761e-02,	 2.9997056997018558e+02,	 9.9999431075592997e+02,	 3.4759083014054767e+02,	 4.9944297849493973e+00 
3.8160800000000000e-01,	 3.0203999999999998e-01,	 1.1587500646168080e-02,	 1.7360179200926232e+03,	 2.9921904612470837e-02,	 2.9997070227308330e+02,	 9.9999665822917268e+02,	 3.4759090679351567e+02,	 4.9944284686991551e+00 
3.8610600000000000e-01,	 3.0203999999999998e-01,	 1.1587524843466954e-02,	 1.7360178327861599e+03,	 3.0602240993811758e-02,	 2.9997085587187513e+02,	 9.9999925849169733e+02,	 3.4759099578476730e+02,	 4.9944269388694105e+00 
3.9060400000000001e-01,	 3.0203999999999998e-01,	 1.1587550439340226e-02,	 1.7360177360980488e+03,	 3.1295867550979191e-02,	 2.9997102384078033e+02,	 1.0000020273579956e+03,	 3.4759109310167275e+02,	 4.9944252624227721e+00 
3.9510200000000001e-01,	 3.0203999999999998e-01,	 1.1587577806157309e-02,	 1.7360176348350437e+03,	 3.2028929624276288e-02,	 2.9997120302691673e+02,	 1.0000049864533045e+03,	 3.4759119691752619e+02,	 4.9944234794370077e+00 
3.9960000000000001e-01,	 3.0203999999999998e-01,	 1.1587605921809244e-02,	 1.7360175293703271e+03,	 3.2807959976123451e-02,	 2.9997138906783221e+02,	 1.0000080330273551e+03,	 3.4759130470483012e+02,	 4.9944216273031889e+00 
4.0409800000000001e-01,	 3.0203999999999998e-01,	 1.1587634540446578e-02,	 1.7360174202299231e+03,	 3.3629030487659958e-02,	 2.9997157974754066e+02,	 1.0000111384762602e+03,	 3.4759141517969630e+02,	 4.9944197259824854e+00 
4.0859600000000001e-01,	 3.0203999999999998e-01,	 1.1587664353203376e-02,	 1.7360173092602745e+03,	 3.4485722084232277e-02,	 2.9997177526475690e+02,	 1.0000143631074779e+03,	 3.4759152845725225e+02,	 4.9944177791326734e+00 
4.1309400000000002e-01,	 3.0203999999999998e-01,	 1.1587695096683417e-02,	 1.7360171920649550e+03,	 3.5363173783242913e-02,	 2.9997197924060947e+02,	 1.0000176962620189e+03,	 3.4759164663548125e+02,	 4.9944157439597276e+00 
4.1759200000000002e-01,	 3.0203999999999998e-01,	 1.1587727054538661e-02,	 1.7360170668445680e+03,	 3.6248547004547091e-02,	 2.9997219505160098e+02,	 1.0000211736757338e+03,	 3.4759177167063388e+02,	 4.9944135871777737e+00 
4.2209000000000002e-01,	 3.0203999999999998e-01,	 1.1587760845867517e-02,	 1.7360169368319587e+03,	 3.7143252903295274e-02,	 2.9997242214519571e+02,	 1.0000248469354252e+03,	 3.4759190324257833e+02,	 4.9944113226877302e+00 
4.2658800000000002e-01,	 3.0203999999999998e-01,	 1.1587795669124785e-02,	 1.7360168012206400e+03,	 3.8051538686160222e-02,	 2.9997265848627586e+02,	 1.0000286400837618e+03,	 3.4759204017221526e+02,	 4.9944089651119459e+00 
4.3108600000000002e-01,	 3.0203999999999998e-01,	 1.1587831230154352e-02,	 1.7360166614227014e+03,	 3.8976610492085950e-02,	 2.9997290133469903e+02,	 1.0000325186005613e+03,	 3.4759218087197468e+02,	 4.9944065413245253e+00 
4.3558400000000003e-01,	 3.0203999999999998e-01,	 1.1587867878882125e-02,	 1.7360165217461886e+03,	 3.9930770265661129e-02,	 2.9997314729405582e+02,	 1.0000365013620982e+03,	 3.4759232337406627e+02,	 4.9944040919948103e+00 
4.4008199999999997e-01,	 3.0203999999999998e-01,	 1.1587904863576682e-02,	 1.7360163806344960e+03,	 4.0917169088446129e-02,	 2.9997339486303002e+02,	 1.0000405184889653e+03,	 3.4759246680866693e+02,	 4.9944016251430741e+00 
4.4457999999999998e-01,	 3.0203999999999998e-01,	 1.1587942086502687e-02,	 1.7360162380633656e+03,	 4.1932026819823165e-02,	 2.9997364338882153e+02,	 1.0000445593703940e+03,	 3.4759261079756146e+02,	 4.9943991461338655e+00 
4.4907799999999998e-01,	 3.0203999999999998e-01,	 1.1587980170848276e-02,	 1.7360160965382629e+03,	 4.2975397616987591e-02,	 2.9997389233191473e+02,	 1.0000486759892951e+03,	 3.4759275502816917e+02,	 4.9943966666667343e+00 
4.5357599999999998e-01,	 3.0203999999999998e-01,	 1.1588018660200905e-02,	 1.7360159529966350e+03,	 4.4042140247867491e-02,	 2.9997414330831583e+02,	 1.0000528343446325e+03,	 3.4759290043675753e+02,	 4.9943941644779359e+00 
4.5807399999999998e-01,	 3.0203999999999998e-01,	 1.1588057588958589e-02,	 1.7360158067181442e+03,	 4.5123701253005112e-02,	 2.9997439707658532e+02,	 1.0000570399340280e+03,	 3.4759304746281316e+02,	 4.9943916311798864e+00 
4.6257199999999998e-01,	 3.0203999999999998e-01,	 1.1588097581738611e-02,	 1.7360156605231041e+03,	 4.6217089345410731e-02,	 2.9997465315785263e+02,	 1.0000613450661345e+03,	 3.4759319582889037e+02,	 4.9943890788728202e+00 
4.6706999999999999e-01,	 3.0203999999999998e-01,	 1.1588137979422198e-02,	 1.7360155126564355e+03,	 4.7318606479987819e-02,	 2.9997491103496179e+02,	 1.0000656911346726e+03,	 3.4759334523536239e+02,	 4.9943865068125133e+00 
4.7156799999999999e-01,	 3.0203999999999998e-01,	 1.1588178681529133e-02,	 1.7360153632399952e+03,	 4.8424934831428096e-02,	 2.9997517006740884e+02,	 1.0000700673329238e+03,	 3.4759349531113878e+02,	 4.9943839206813649e+00 
4.7606599999999999e-01,	 3.0203999999999998e-01,	 1.1588220194255483e-02,	 1.7360152157571483e+03,	 4.9537155473130305e-02,	 2.9997542855006532e+02,	 1.0000745116615522e+03,	 3.4759364506831815e+02,	 4.9943813446955057e+00 
4.8056399999999999e-01,	 3.0203999999999998e-01,	 1.1588261808958975e-02,	 1.7360150685211875e+03,	 5.0654779170089329e-02,	 2.9997568548803724e+02,	 1.0000789596473148e+03,	 3.4759379393048914e+02,	 4.9943787822845103e+00 
4.8506199999999999e-01,	 3.0203999999999998e-01,	 1.1588303446685674e-02,	 1.7360149214642277e+03,	 5.1771171987369614e-02,	 2.9997594048588115e+02,	 1.0000834031580067e+03,	 3.4759394166854503e+02,	 4.9943762365444053e+00 
4.8956000000000000e-01,	 3.0203999999999998e-01,	 1.1588345652998889e-02,	 1.7360147778481864e+03,	 5.2887744721981815e-02,	 2.9997619224404434e+02,	 1.0000878849437524e+03,	 3.4759408752956608e+02,	 4.9943737276777922e+00 
4.9405800000000000e-01,	 3.0203999999999998e-01,	 1.1588387805446727e-02,	 1.7360146355079273e+03,	 5.4005564797322943e-02,	 2.9997644067925160e+02,	 1.0000923510085502e+03,	 3.4759423146530753e+02,	 4.9943712501489603e+00 
4.9855600000000000e-01,	 3.0203999999999998e-01,	 1.1588429871106476e-02,	 1.7360144941851063e+03,	 5.5119863210916532e-02,	 2.9997668588624640e+02,	 1.0000967988268603e+03,	 3.4759437353066323e+02,	 4.9943688024254307e+00 
5.0305400000000000e-01,	 3.0203999999999998e-01,	 1.1588472388425104e-02,	 1.7360143570895711e+03,	 5.6234381994241960e-02,	 2.9997692650160792e+02,	 1.0001012703217235e+03,	 3.4759451293571203e+02,	 4.9943664050917960e+00 
5.0755200000000000e-01,	 3.0203999999999998e-01,	 1.1588514764084021e-02,	 1.7360142218773781e+03,	 5.7348468184071452e-02,	 2.9997716271975844e+02,	 1.0001057149369977e+03,	 3.4759464979309934e+02,	 4.9943640497860251e+00 
5.1205000000000001e-01,	 3.0203999999999998e-01,	 1.1588557020711779e-02,	 1.7360140880253794e+03,	 5.8460870980664825e-02,	 2.9997739519807556e+02,	 1.0001101368170372e+03,	 3.4759478448369180e+02,	 4.9943617295304197e+00 
5.1654800000000001e-01,	 3.0203999999999998e-01,	 1.1588599772942026e-02,	 1.7360139581998305e+03,	 5.9576981758748204e-02,	 2.9997762335976108e+02,	 1.0001145870825184e+03,	 3.4759491667331361e+02,	 4.9943594567975484e+00 
5.2104600000000001e-01,	 3.0203999999999998e-01,	 1.1599237591342997e-02,	 1.7359619964862645e+03,	 4.7047620756003489e-01,	 3.0006398458881006e+02,	 1.0013208372536885e+03,	 3.4764494801173549e+02,	 4.9934914060115219e+00 
5.2554400000000001e-01,	 3.0203999999999998e-01,	 1.1611224157162639e-02,	 1.7359093688250914e+03,	 9.3212508451701304e-01,	 3.0018825215677219e+02,	 1.0027707071936256e+03,	 3.4771692686052609e+02,	 4.9923069168885101e+00 
1.8369600000000000e-01,	 3.0570929999999996e-01,	 1.1598080048630804e-02,	 1.7359068429669519e+03,	 4.0660468516462578e-01,	 3.0012387437978032e+02,	 1.0014207444665175e+03,	 3.4767963952014003e+02,	 4.9928344753886025e+00 
1.8819400000000000e-01,	 3.0569399999999997e-01,	 1.1605676536418790e-02,	 1.7358739159837919e+03,	 6.7491713166099676e-01,	 3.0019926188953434e+02,	 1.0023283626775433e+03,	 3.4772330325152944e+02,	 4.9921130708166324e+00 
1.9269200000000000e-01,	 3.0567869999999997e-01,	 1.1615264238670226e-02,	 1.7358232001330834e+03,	 9.9113586322866043e-01,	 3.0029648639261893e+02,	 1.0034812967944403e+03,	 3.4777960666870393e+02,	 4.9911594866757785e+00 
1.9719000000000000e-01,	 3.0566329999999997e-01,	 1.1622470058485657e-02,	 1.7357853225983361e+03,	 1.2149529900825482e+00,	 3.0036872807524503e+02,	 1.0043453866350858e+03,	 3.4782143645072119e+02,	 4.9904507482646174e+00 
2.0168800000000001e-01,	 3.0564799999999998e-01,	 1.1627483296033992e-02,	 1.7357591356149528e+03,	 1.3600743621298825e+00,	 3.0041862381657120e+02,	 1.0049455098517207e+03,	 3.4785032442429383e+02,	 4.9899613327620305e+00 
2.0618600000000001e-01,	 3.0563269999999998e-01,	 1.1630545919774058e-02,	 1.7357435798029408e+03,	 1.4391738715280444e+00,	 3.0044783007685533e+02,	 1.0053079327840768e+03,	 3.4786723276385896e+02,	 4.9896742577625437e+00 
2.1068400000000001e-01,	 3.0561729999999998e-01,	 1.1631937502237372e-02,	 1.7357371876253601e+03,	 1.4643447235630975e+00,	 3.0046036019650256e+02,	 1.0054701480029020e+03,	 3.4787448655664190e+02,	 4.9895518998794017e+00 
2.1518200000000001e-01,	 3.0560199999999998e-01,	 1.1631949874834350e-02,	 1.7357385692208882e+03,	 1.4470682122975544e+00,	 3.0045680537410919e+02,	 1.0054593215121288e+03,	 3.4787242865510734e+02,	 4.9895853463711521e+00 
2.1967999999999999e-01,	 3.0558669999999999e-01,	 1.1630784742242970e-02,	 1.7357459472007984e+03,	 1.3978117802774292e+00,	 3.0044412329973386e+02,	 1.0053161726016320e+03,	 3.4786508685007982e+02,	 4.9897117464505660e+00 
2.2417799999999999e-01,	 3.0557129999999999e-01,	 1.1628863196660798e-02,	 1.7357577598030805e+03,	 1.3243791352086927e+00,	 3.0042537191837846e+02,	 1.0050873486370468e+03,	 3.4785423116647843e+02,	 4.9899012561425380e+00 
2.2867599999999999e-01,	 3.0555599999999999e-01,	 1.1626443172600216e-02,	 1.7357729604425008e+03,	 1.2362219516592490e+00,	 3.0039883549580964e+02,	 1.0047894245922971e+03,	 3.4783886793224360e+02,	 4.9901651617632963e+00 
2.3317399999999999e-01,	 3.0554070000000000e-01,	 1.1623556124142346e-02,	 1.7357903909698593e+03,	 1.1385188102602877e+00,	 3.0036827635066271e+02,	 1.0044377274540461e+03,	 3.4782117490626354e+02,	 4.9904689236341291e+00 
2.3767199999999999e-01,	 3.0552530000000000e-01,	 1.1620431789611304e-02,	 1.7358090713414003e+03,	 1.0350684469086204e+00,	 3.0033546199498966e+02,	 1.0040580388887299e+03,	 3.4780217516430787e+02,	 4.9907950665594383e+00 
2.4217000000000000e-01,	 3.0551000000000000e-01,	 1.1617222172595257e-02,	 1.7358282429217240e+03,	 9.3174020077201936e-01,	 3.0030177297489837e+02,	 1.0036681180231571e+03,	 3.4778266790567699e+02,	 4.9911299589474964e+00 
2.4666800000000000e-01,	 3.0549470000000001e-01,	 1.1614031823791152e-02,	 1.7358473010128928e+03,	 8.3098820508919224e-01,	 3.0026830091362604e+02,	 1.0032806487812467e+03,	 3.4776328519099468e+02,	 4.9914627962111799e+00 
2.5116600000000000e-01,	 3.0547930000000001e-01,	 1.1610941676866061e-02,	 1.7358657605882011e+03,	 7.3495679871874686e-01,	 3.0023588368949970e+02,	 1.0029054195486734e+03,	 3.4774451227254838e+02,	 4.9917852185002705e+00 
2.5566400000000000e-01,	 3.0546400000000001e-01,	 1.1608014600872397e-02,	 1.7358832550394563e+03,	 6.4500012931397466e-01,	 3.0020518029046724e+02,	 1.0025500552345816e+03,	 3.4772673090116183e+02,	 4.9920906867635573e+00 
2.6016200000000000e-01,	 3.0544869999999996e-01,	 1.1605287272969814e-02,	 1.7358995651350451e+03,	 5.6209500333812634e-01,	 3.0017657518513334e+02,	 1.0022189982307342e+03,	 3.4771016390403139e+02,	 4.9923753641526325e+00 
2.6466000000000001e-01,	 3.0543329999999996e-01,	 1.1602782876330748e-02,	 1.7359145534218455e+03,	 4.8674392949760914e-01,	 3.0015030602083249e+02,	 1.0019150338386041e+03,	 3.4769494910043869e+02,	 4.9926368679027782e+00 
2.6915800000000001e-01,	 3.0541799999999997e-01,	 1.1600512517430540e-02,	 1.7359281525627957e+03,	 4.1909359537876179e-01,	 3.0012648631043282e+02,	 1.0016394897733003e+03,	 3.4768115241732926e+02,	 4.9928740487738983e+00 
2.7365600000000001e-01,	 3.0540269999999997e-01,	 1.1598477602420797e-02,	 1.7359403464420179e+03,	 3.5898994951645474e-01,	 3.0010513562212014e+02,	 1.0013925431236200e+03,	 3.4766878535830409e+02,	 4.9930866867218899e+00 
2.7815400000000001e-01,	 3.0538729999999997e-01,	 1.1596673638129881e-02,	 1.7359511663289122e+03,	 3.0609755421764051e-01,	 3.0008620063960393e+02,	 1.0011736194279101e+03,	 3.4765781719176272e+02,	 4.9932753054082468e+00 
2.8265200000000001e-01,	 3.0537199999999998e-01,	 1.1595090347641598e-02,	 1.7359606770161911e+03,	 2.5997595207514068e-01,	 3.0006956918887533e+02,	 1.0009814497707547e+03,	 3.4764818307003281e+02,	 4.9934410160094869e+00 
2.8715000000000002e-01,	 3.0535669999999998e-01,	 1.1593712174645950e-02,	 1.7359689614849483e+03,	 2.2010162977161335e-01,	 3.0005508690234421e+02,	 1.0008141700720577e+03,	 3.4763979367992846e+02,	 4.9935853345847878e+00 
2.9164800000000002e-01,	 3.0534129999999998e-01,	 1.1592523308315434e-02,	 1.7359761198304316e+03,	 1.8590998501003078e-01,	 3.0004258044355657e+02,	 1.0006698323226436e+03,	 3.4763254869684465e+02,	 4.9937099857098879e+00 
2.9614600000000002e-01,	 3.0532599999999999e-01,	 1.1591506299408003e-02,	 1.7359822560852504e+03,	 1.5682399884346063e-01,	 3.0003186665315246e+02,	 1.0005463154813314e+03,	 3.4762634208525753e+02,	 4.9938167883233096e+00 
3.0064400000000002e-01,	 3.0531069999999999e-01,	 1.1590642531326687e-02,	 1.7359874738311514e+03,	 1.3226485294496981e-01,	 3.0002275774636610e+02,	 1.0004413833227846e+03,	 3.4762106511248828e+02,	 4.9939075996675397e+00 
3.0514200000000002e-01,	 3.0529529999999999e-01,	 1.1589915505418632e-02,	 1.7359918800267860e+03,	 1.1168617464487897e-01,	 3.0001507127521927e+02,	 1.0003530010631880e+03,	 3.4761661212295331e+02,	 4.9939842432083212e+00 
3.0964000000000003e-01,	 3.0528000000000000e-01,	 1.1589308347625152e-02,	 1.7359955726696121e+03,	 9.4574687065749646e-02,	 3.0000863381778703e+02,	 1.0002791322755554e+03,	 3.4761288267839922e+02,	 4.9940484422490528e+00 
3.1413799999999997e-01,	 3.0526470000000000e-01,	 1.1588804865476924e-02,	 1.7359986431037860e+03,	 8.0454134293868607e-02,	 3.0000328120693177e+02,	 1.0002178307462301e+03,	 3.4760978169299625e+02,	 4.9941018245030309e+00 
3.1863599999999997e-01,	 3.0524930000000000e-01,	 1.1588391324691506e-02,	 1.7360011788837919e+03,	 6.8896975361893528e-02,	 2.9999886354444493e+02,	 1.0001674104036756e+03,	 3.4760722234041236e+02,	 4.9941458884616790e+00 
3.2313399999999998e-01,	 3.0523400000000001e-01,	 1.1588054722399583e-02,	 1.7360032569892248e+03,	 5.9517720284219387e-02,	 2.9999524605041591e+02,	 1.0001262990063067e+03,	 3.4760512654773640e+02,	 4.9941819766892399e+00 
3.2763199999999998e-01,	 3.0521870000000001e-01,	 1.1587783060396798e-02,	 1.7360049461071376e+03,	 5.1976511542521517e-02,	 2.9999230617452662e+02,	 1.0000930520166771e+03,	 3.4760342332335597e+02,	 4.9942113063435674e+00 
3.3212999999999998e-01,	 3.0520330000000001e-01,	 1.1587577689857149e-02,	 1.7360063021490462e+03,	 4.5961214749290470e-02,	 2.9998993640602407e+02,	 1.0000674273190617e+03,	 3.4760205038602760e+02,	 4.9942349328191566e+00 
3.3662799999999998e-01,	 3.0518800000000001e-01,	 1.1587408272867885e-02,	 1.7360073925373420e+03,	 4.1202605099577551e-02,	 2.9998804748236728e+02,	 1.0000465088074542e+03,	 3.4760095602470074e+02,	 4.9942537928547406e+00 
3.4112599999999998e-01,	 3.0517269999999996e-01,	 1.1587263946479685e-02,	 1.7360082599247216e+03,	 3.7542658018819355e-02,	 2.9998654933507794e+02,	 1.0000290585845071e+03,	 3.4760008805998586e+02,	 4.9942687587325407e+00 
3.4562399999999999e-01,	 3.0515729999999996e-01,	 1.1587161660884738e-02,	 1.7360089319809576e+03,	 3.4764677766265031e-02,	 2.9998537799047978e+02,	 1.0000163261763021e+03,	 3.4759940942975419e+02,	 4.9942804424697309e+00 
3.5012199999999999e-01,	 3.0514199999999997e-01,	 1.1587086598182410e-02,	 1.7360094534058826e+03,	 3.2701697060442111e-02,	 2.9998447598774811e+02,	 1.0000068411263387e+03,	 3.4759888684452920e+02,	 4.9942894509048132e+00 
3.5461999999999999e-01,	 3.0512669999999997e-01,	 1.1587021484164243e-02,	 1.7360098538201346e+03,	 3.1205376000903312e-02,	 2.9998379299331367e+02,	 9.9999894478595456e+02,	 3.4759849114365250e+02,	 4.9942962881940574e+00 
3.5911799999999999e-01,	 3.0511129999999997e-01,	 1.1586979084993263e-02,	 1.7360101492350882e+03,	 3.0148503460039347e-02,	 2.9998328311283592e+02,	 9.9999358590942188e+02,	 3.4759819573809364e+02,	 4.9943013824068148e+00 
3.6361599999999999e-01,	 3.0509599999999998e-01,	 1.1586966819829994e-02,	 1.7360103506665650e+03,	 2.9497808670590476e-02,	 2.9998292494342945e+02,	 9.9999133343072754e+02,	 3.4759798822806954e+02,	 4.9943049433822537e+00 
3.6811400000000000e-01,	 3.0508069999999998e-01,	 1.1586960566103678e-02,	 1.7360104895854251e+03,	 2.9179365942850720e-02,	 2.9998268450223605e+02,	 9.9998999220577866e+02,	 3.4759784892532110e+02,	 4.9943073445302657e+00 
3.7261200000000000e-01,	 3.0506529999999998e-01,	 1.1586958807968730e-02,	 1.7360105789177746e+03,	 2.9106594194268542e-02,	 2.9998253459868783e+02,	 9.9998934077111767e+02,	 3.4759776207671268e+02,	 4.9943088493724357e+00 
3.7711000000000000e-01,	 3.0504999999999999e-01,	 1.1586963736160374e-02,	 1.7360106269845924e+03,	 2.9241971810958320e-02,	 2.9998245559595620e+02,	 9.9998950273378023e+02,	 3.4759771630542372e+02,	 4.9943096453070268e+00 
3.8160800000000000e-01,	 3.0503469999999999e-01,	 1.1586973766128222e-02,	 1.7360106407199637e+03,	 2.9511577589309418e-02,	 2.9998243257492635e+02,	 9.9999029160938244e+02,	 3.4759770296788116e+02,	 4.9943098764700942e+00 
3.8610600000000000e-01,	 3.0501929999999999e-01,	 1.1586988646932379e-02,	 1.7360106280568864e+03,	 2.9880863496147714e-02,	 2.9998245634808222e+02,	 9.9999165511485751e+02,	 3.4759771674117803e+02,	 4.9943096421622464e+00 
3.9060400000000001e-01,	 3.0500400000000000e-01,	 1.1587007379564924e-02,	 1.7360105972266501e+03,	 3.0358416102845096e-02,	 2.9998251762379226e+02,	 9.9999347605981609e+02,	 3.4759775224208045e+02,	 4.9943090434113948e+00 
3.9510200000000001e-01,	 3.0498870000000000e-01,	 1.1587028763583715e-02,	 1.7360105447140168e+03,	 3.0930479817984014e-02,	 2.9998260658285568e+02,	 9.9999561811085471e+02,	 3.4759780378169756e+02,	 4.9943081518427270e+00 
3.9960000000000001e-01,	 3.0497330000000000e-01,	 1.1587052171655239e-02,	 1.7360104850880198e+03,	 3.1601197584803925e-02,	 2.9998271345655525e+02,	 9.9999799456368589e+02,	 3.4759786570038739e+02,	 4.9943070906885287e+00 
4.0409800000000001e-01,	 3.0495800000000001e-01,	 1.1587077398868164e-02,	 1.7360104168446646e+03,	 3.2340212752460754e-02,	 2.9998283522637337e+02,	 1.0000005776720703e+03,	 3.4759793624932689e+02,	 4.9943058807480476e+00 
4.0859600000000001e-01,	 3.0494270000000001e-01,	 1.1587104305902035e-02,	 1.7360103343962369e+03,	 3.3115268875259896e-02,	 2.9998297684113930e+02,	 1.0000033719098213e+03,	 3.4759801829567886e+02,	 4.9943044647491970e+00 
4.1309400000000002e-01,	 3.0492730000000001e-01,	 1.1587133784771971e-02,	 1.7360102384411127e+03,	 3.3894283876825783e-02,	 2.9998314269495057e+02,	 1.0000064689092533e+03,	 3.4759811438521160e+02,	 4.9943028081220531e+00 
4.1759200000000002e-01,	 3.0491200000000002e-01,	 1.1587165758165603e-02,	 1.7360101335051534e+03,	 3.4683455598382040e-02,	 2.9998332848167098e+02,	 1.0000098476443172e+03,	 3.4759822202309937e+02,	 4.9943009597334926e+00 
4.2209000000000002e-01,	 3.0489669999999996e-01,	 1.1587198777114026e-02,	 1.7360100192678642e+03,	 3.5492775416604228e-02,	 2.9998352824044508e+02,	 1.0000133631943040e+03,	 3.4759833775583610e+02,	 4.9942989682825152e+00 
4.2658800000000002e-01,	 3.0488129999999997e-01,	 1.1587233012023876e-02,	 1.7360099012645446e+03,	 3.6332488902180687e-02,	 2.9998373643369422e+02,	 1.0000170118065455e+03,	 3.4759845837515007e+02,	 4.9942968957909768e+00 
4.3108600000000002e-01,	 3.0486599999999997e-01,	 1.1587268029547853e-02,	 1.7360097820787310e+03,	 3.7214253601515646e-02,	 2.9998394843116932e+02,	 1.0000207406468497e+03,	 3.4759858119844608e+02,	 4.9942947882359379e+00 