TITLE = "Final State"
VARIABLES = "X", "Y", "rho", "u", "v", "T", "p", "c", "M"
ZONE I=76, J=50, DATAPACKING=POINT, STRANDID=16000, SOLUTIONTIME=0.000573
5.0000000000000003e-02,	 1.0000000000000000e-04,	 2.3477462572775953e-01,	 2.0454069127377406e+03,	 2.7033505873209922e+00,	 1.0303096843606959e+03,	 6.9590326857300359e+04,	 6.4418836650439630e+02,	 3.1751717441021539e+00 
5.0999999999999997e-02,	 1.0000000000000000e-04,	 2.2760846585754085e-01,	 2.0512098452578284e+03,	 2.4755017290526413e+00,	 1.0176675865139844e+03,	 6.6638358585550319e+04,	 6.4022401058434014e+02,	 3.2038963005530263e+00 
5.2000060000000001e-02,	 1.0000000000000000e-04,	 2.1996042958154441e-01,	 2.0580806744145193e+03,	 2.3636525148702865e+00,	 1.0040392967580731e+03,	 6.3536780906723572e+04,	 6.3592272063330552e+02,	 3.2363712837015823e+00 
5.3000329999999998e-02,	 1.0000000000000000e-04,	 2.1277423381674127e-01,	 2.0645633556235289e+03,	 2.2834045223315651e+00,	 9.9093812263971859e+02,	 6.0659036728313658e+04,	 6.3176018890990235e+02,	 3.2679561874685787e+00 
5.4000890000000003e-02,	 1.0000000000000000e-04,	 2.0600267015016516e-01,	 2.0707494045700732e+03,	 2.2260755398180407e+00,	 9.7831254776463425e+02,	 5.7980293689613267e+04,	 6.2772264850887973e+02,	 3.2988304723670483e+00 
5.5001830000000002e-02,	 1.0000000000000000e-04,	 1.9960782792415699e-01,	 2.0766789053303619e+03,	 2.1804845458259838e+00,	 9.6613888228818712e+02,	 5.5481355995022182e+04,	 6.2380487856273578e+02,	 3.3290538779598888e+00 
5.6003249999999997e-02,	 1.0000000000000000e-04,	 1.9355843303453507e-01,	 2.0823758814217344e+03,	 2.1417235642374419e+00,	 9.5439163633314104e+02,	 5.3145764637021959e+04,	 6.2000087009320919e+02,	 3.3586678394333735e+00 
5.7005239999999999e-02,	 1.0000000000000000e-04,	 1.8782296222351547e-01,	 2.0878597835910423e+03,	 2.1166642525250725e+00,	 9.4303770328531050e+02,	 5.0957449132410351e+04,	 6.1630191162015683e+02,	 3.3877241286420463e+00 
5.8007910000000003e-02,	 1.0000000000000000e-04,	 1.8236547656583579e-01,	 2.0931539523539877e+03,	 2.1020614404913487e+00,	 9.3203505051743514e+02,	 4.8899543893781622e+04,	 6.1269609028857531e+02,	 3.4163022108910122e+00 
5.9011340000000002e-02,	 1.0000000000000000e-04,	 1.7715829575164943e-01,	 2.0982796106847800e+03,	 2.0933403823718959e+00,	 9.2134858088082490e+02,	 4.6958628316174196e+04,	 6.0917345737857431e+02,	 3.4444715695925705e+00 
6.0015630000000000e-02,	 1.0000000000000000e-04,	 1.7218172832122799e-01,	 2.1032540166535700e+03,	 2.0861225021014898e+00,	 9.1095570335005777e+02,	 4.5124692927422562e+04,	 6.0572795347445401e+02,	 3.4722766865130028e+00 
6.1020880000000000e-02,	 1.0000000000000000e-04,	 1.6742028645843371e-01,	 2.1080889087006817e+03,	 2.0781423393880196e+00,	 9.0084048469064192e+02,	 4.3389626701060712e+04,	 6.0235557518024473e+02,	 3.4997433739701194e+00 
6.2027190000000003e-02,	 1.0000000000000000e-04,	 1.6285854911108588e-01,	 2.1127909996488047e+03,	 2.0691097308022788e+00,	 8.9098515952393257e+02,	 4.1745625163897785e+04,	 5.9905158524954220e+02,	 3.5268949533523593e+00 
6.3034649999999998e-02,	 1.0000000000000000e-04,	 1.5848085306691700e-01,	 2.1173634434434925e+03,	 2.0590932405536866e+00,	 8.8136942765545996e+02,	 4.0185069117215535e+04,	 5.9581025990886246e+02,	 3.5537562662658044e+00 
6.4043359999999994e-02,	 1.0000000000000000e-04,	 1.5427346880447693e-01,	 2.1218091218416175e+03,	 2.0484565608376508e+00,	 8.7197552835513170e+02,	 3.8701293355858768e+04,	 5.9262659197454127e+02,	 3.5803491429430578e+00 
6.5053410000000006e-02,	 1.0000000000000000e-04,	 1.5022588176465465e-01,	 2.1261339927350050e+03,	 2.0379346739006361e+00,	 8.6279164799776959e+02,	 3.7288990974696120e+04,	 5.8949747982061308e+02,	 3.6066905155877111e+00 
6.6064899999999996e-02,	 1.0000000000000000e-04,	 1.4632988788625065e-01,	 2.1303471422534685e+03,	 2.0281473136292587e+00,	 8.5381034276542960e+02,	 3.5943833076070565e+04,	 5.8642124045661330e+02,	 3.6327949274477884e+00 
6.7077929999999994e-02,	 1.0000000000000000e-04,	 1.4257824711676201e-01,	 2.1344582612397930e+03,	 2.0195200473359818e+00,	 8.4502555629231142e+02,	 3.4661954847791429e+04,	 5.8339661965042501e+02,	 3.6586760099914963e+00 
6.8092600000000003e-02,	 1.0000000000000000e-04,	 1.3896334554264589e-01,	 2.1384752603758052e+03,	 2.0122109016905987e+00,	 8.3642939567636461e+02,	 3.3439477744509422e+04,	 5.8042168581732244e+02,	 3.6843492573251266e+00 
6.9109000000000004e-02,	 1.0000000000000000e-04,	 1.3547674728471826e-01,	 2.1424029542883573e+03,	 2.0059048395092125e+00,	 8.2801091280936146e+02,	 3.2272362494585970e+04,	 5.7749338898627150e+02,	 3.7098327603379215e+00 
7.0127220000000004e-02,	 1.0000000000000000e-04,	 1.3210990897274094e-01,	 2.1462435351064469e+03,	 2.0002779633907113e+00,	 8.1975786957374635e+02,	 3.1156662172439275e+04,	 5.7460815303185052e+02,	 3.7351444735017849e+00 
7.1147379999999996e-02,	 1.0000000000000000e-04,	 1.2885555715371647e-01,	 2.1499988212229418e+03,	 1.9948858031958872e+00,	 8.1166031645756811e+02,	 3.0088975702946689e+04,	 5.7176312544414054e+02,	 3.7602980168306539e+00 
7.2169559999999994e-02,	 1.0000000000000000e-04,	 1.2570753422156333e-01,	 2.1536725823906718e+03,	 1.9894216950541801e+00,	 8.0371037101303887e+02,	 2.9066371341020269e+04,	 5.6895611936599539e+02,	 3.7853068592339221e+00 
7.3193859999999999e-02,	 1.0000000000000000e-04,	 1.2266041792953408e-01,	 2.1572699832098510e+03,	 1.9836939873142714e+00,	 7.9590129149951304e+02,	 2.8086238988624391e+04,	 5.6618530234677723e+02,	 3.8101852632169058e+00 
7.4220380000000002e-02,	 1.0000000000000000e-04,	 1.1971007366691075e-01,	 2.1607958881786835e+03,	 1.9772620790444919e+00,	 7.8822904664415375e+02,	 2.7146451644990972e+04,	 5.6344976743910343e+02,	 3.8349413163448798e+00 
7.5249220000000006e-02,	 1.0000000000000000e-04,	 1.1685333573662848e-01,	 2.1642553037312246e+03,	 1.9701502413455594e+00,	 7.8069174216489728e+02,	 2.6245245376313840e+04,	 5.6074935069380399e+02,	 3.8595786116919526e+00 
7.6280479999999998e-02,	 1.0000000000000000e-04,	 1.1408750947485852e-01,	 2.1676530916438405e+03,	 1.9627177397601390e+00,	 7.7328849315924833e+02,	 2.5381050010164363e+04,	 5.5808424257423587e+02,	 3.8840981609224765e+00 
7.7314250000000001e-02,	 1.0000000000000000e-04,	 1.1140947280512391e-01,	 2.1709923094798751e+03,	 1.9553901146848354e+00,	 7.6601706169176373e+02,	 2.4552204880648405e+04,	 5.5545413993465502e+02,	 3.9085012316855381e+00 
7.8350639999999999e-02,	 1.0000000000000000e-04,	 1.0881500590192354e-01,	 2.1742733266929736e+03,	 1.9485254575152533e+00,	 7.5887192077209772e+02,	 2.3756760043585964e+04,	 5.5285752909396933e+02,	 3.9327929627080676e+00 
7.9389749999999995e-02,	 1.0000000000000000e-04,	 1.0629929234526662e-01,	 2.1774954329110305e+03,	 1.9422993527490062e+00,	 7.5184545597830743e+02,	 2.2992642676177838e+04,	 5.5029209757991077e+02,	 3.9569826801816146e+00 
8.0431660000000002e-02,	 1.0000000000000000e-04,	 1.0385806377638455e-01,	 2.1806596732862808e+03,	 1.9367775139266459e+00,	 7.4493108061977682e+02,	 2.2258005936109905e+04,	 5.4775586185174916e+02,	 3.9810811444345982e+00 
8.1476489999999999e-02,	 1.0000000000000000e-04,	 1.0148807658373675e-01,	 2.1837700655605086e+03,	 1.9318983688467912e+00,	 7.3812465934290049e+02,	 2.1551359614175137e+04,	 5.4524770194691325e+02,	 4.0050988061046162e+00 
8.2524340000000002e-02,	 1.0000000000000000e-04,	 9.9186865276421649e-02,	 2.1868321878114248e+03,	 1.9275126633401127e+00,	 7.3142393921275129e+02,	 2.0871481291800592e+04,	 5.4276717116901682e+02,	 4.0290444106506254e+00 
8.3575289999999997e-02,	 1.0000000000000000e-04,	 9.6952174682549089e-02,	 2.1898510381056126e+03,	 1.9232493264399682e+00,	 7.2482701001568580e+02,	 2.0217239735688003e+04,	 5.4031393807300901e+02,	 4.0529250281194225e+00 
8.4629469999999998e-02,	 1.0000000000000000e-04,	 9.4781722611186114e-02,	 2.1928298491817181e+03,	 1.9187840711909576e+00,	 7.1833163796626536e+02,	 1.9587523466379971e+04,	 5.3788753983178594e+02,	 4.0767456508858890e+00 
8.5686949999999998e-02,	 1.0000000000000000e-04,	 9.2673184789148766e-02,	 2.1957700224430650e+03,	 1.9138331771817740e+00,	 7.1193521456747442e+02,	 1.8981236512954572e+04,	 5.3548736022746687e+02,	 4.1005092175447171e+00 
8.6747859999999996e-02,	 1.0000000000000000e-04,	 9.0624179732875482e-02,	 2.1986713098525647e+03,	 1.9082972377716088e+00,	 7.0563470365306330e+02,	 1.8397294381979409e+04,	 5.3311260646146434e+02,	 4.1242171191228048e+00 
8.7812280000000006e-02,	 1.0000000000000000e-04,	 8.8632255110947411e-02,	 2.2015318804169315e+03,	 1.9021256652012628e+00,	 6.9942659598501928e+02,	 1.7834620782970367e+04,	 5.3076228831932804e+02,	 4.1478694899503683e+00 
8.8880319999999999e-02,	 1.0000000000000000e-04,	 8.6695019969872084e-02,	 2.2043492746989778e+03,	 1.8952972813525286e+00,	 6.9330734963439249e+02,	 1.7292185771435590e+04,	 5.2843538202824675e+02,	 4.1714657353665645e+00 
8.9952089999999998e-02,	 1.0000000000000000e-04,	 8.4810551373385570e-02,	 2.2071226591060999e+03,	 1.8878639048552017e+00,	 6.8727474024029448e+02,	 1.6769117449268673e+04,	 5.2613134680670714e+02,	 4.1950046882678329e+00 
9.1027680000000000e-02,	 1.0000000000000000e-04,	 8.2977765474719467e-02,	 2.2098545382485454e+03,	 1.8800220286383094e+00,	 6.8132916945757756e+02,	 1.6264797309756519e+04,	 5.2385063884347380e+02,	 4.2184836174612155e+00 
9.2107190000000005e-02,	 1.0000000000000000e-04,	 8.1196032538063512e-02,	 2.2125496716749976e+03,	 1.8720033377870100e+00,	 6.7547249779556114e+02,	 1.5778743546704474e+04,	 5.2159428247478547e+02,	 4.2418993803254432e+00 
9.3190739999999994e-02,	 1.0000000000000000e-04,	 7.9464364993375947e-02,	 2.2152112174730878e+03,	 1.8639610647428575e+00,	 6.6970533810330653e+02,	 1.5310385127373649e+04,	 5.1936283272039771e+02,	 4.2652493827346847e+00 
9.4278429999999996e-02,	 1.0000000000000000e-04,	 7.7780896409886030e-02,	 2.2178381456646521e+03,	 1.8559985835061319e+00,	 6.6402519230104747e+02,	 1.4858926612570784e+04,	 5.1715563920936665e+02,	 4.2885328015598683e+00 
9.5370350000000007e-02,	 1.0000000000000000e-04,	 7.6143117421798356e-02,	 2.2204264868608811e+03,	 1.8480006514980682e+00,	 6.5842711739001345e+02,	 1.4423421660935621e+04,	 5.1497108081805538e+02,	 4.3117513557341294e+00 
9.6466609999999994e-02,	 1.0000000000000000e-04,	 7.4548718218208243e-02,	 2.2229728315981570e+03,	 1.8399041277579464e+00,	 6.5290658111380856e+02,	 1.4003002434204955e+04,	 5.1280766695657223e+02,	 4.3349070933639391e+00 
9.7567329999999994e-02,	 1.0000000000000000e-04,	 7.2996015177128018e-02,	 2.2254770665788333e+03,	 1.8317698232366368e+00,	 6.4746101258724070e+02,	 1.3596987941920643e+04,	 5.1066465250705727e+02,	 4.3580024767906673e+00 
9.8672599999999999e-02,	 1.0000000000000000e-04,	 7.1484020520811806e-02,	 2.2279422620410160e+03,	 1.8235918170421097e+00,	 6.4209014489700439e+02,	 1.3204893792203628e+04,	 5.0854218966194350e+02,	 4.3810386898980909e+00 
9.9782529999999994e-02,	 1.0000000000000000e-04,	 7.1108747288142510e-02,	 2.2175101845862982e+03,	 -7.1868174698149730e+01,	 6.3335548510426372e+02,	 1.2956881932244796e+04,	 5.0507137395617917e+02,	 4.3927939605150268e+00 
1.0089720000000001e-01,	 1.0000000000000000e-04,	 2.8705570527869234e-01,	 1.2395937323388339e+03,	 -1.0611421827957670e+02,	 2.2116381978750624e+03,	 1.8264601561015807e+05,	 9.4381315793192050e+02,	 1.3181924131271592e+00 
1.0201680000000000e-01,	 1.0000000000000000e-04,	 3.6920692584950821e-01,	 8.2544459088784583e+02,	 1.6454765369125717e+01,	 2.7365672809064135e+03,	 2.9067381245071092e+05,	 1.0498616011749318e+03,	 7.8639754214982061e-01 
1.0314130000000001e-01,	 1.0000000000000000e-04,	 3.6052820106684447e-01,	 8.0764102356433091e+02,	 -4.0791769675360573e-01,	 2.7462772057872953e+03,	 2.8484824713201675e+05,	 1.0517225184398621e+03,	 7.6792225365346545e-01 
1.0427100000000000e-01,	 1.0000000000000000e-04,	 3.6223659448456080e-01,	 7.9289614195618447e+02,	 7.5325167853038988e-01,	 2.7606346850058599e+03,	 2.8769426190514589e+05,	 1.0544681261777025e+03,	 7.5193975054035223e-01 
1.0540579999999999e-01,	 1.0000000000000000e-04,	 3.6002304974493116e-01,	 7.6135797883227451e+02,	 5.4678543643519415e+00,	 2.7890860886346709e+03,	 2.8888311836853513e+05,	 1.0598879297394026e+03,	 7.1835671630512155e-01 
1.0654590000000000e-01,	 1.0000000000000000e-04,	 3.5799057786727428e-01,	 6.7883418124252637e+02,	 1.5036931029648564e+01,	 2.8374323003116833e+03,	 2.9223151000037452e+05,	 1.0690345484410927e+03,	 6.3515318954795053e-01 
1.0769150000000000e-01,	 1.0000000000000000e-04,	 3.5372760067794579e-01,	 5.5696475760534429e+02,	 2.0979846888692727e+01,	 2.8997816322545477e+03,	 2.9509658277718810e+05,	 1.0807161310019640e+03,	 5.1573187245167451e-01 
1.0884260000000000e-01,	 1.0000000000000000e-04,	 3.4400579400795173e-01,	 4.4786299491331135e+02,	 1.5961058310149934e+01,	 2.9669343396417707e+03,	 2.9363216685597872e+05,	 1.0931580421903950e+03,	 4.0995656579238049e-01 
1.0999929999999999e-01,	 1.0000000000000000e-04,	 3.3541107000924281e-01,	 3.7942748418603776e+02,	 6.4361970955115648e+00,	 3.0155748354581565e+03,	 2.9098958161596698e+05,	 1.1020823364957503e+03,	 3.4433186707850205e-01 
1.1116170000000000e-01,	 1.0000000000000000e-04,	 3.3156991023558363e-01,	 3.6549326393918318e+02,	 -7.8276520425060203e-01,	 3.0318980072119666e+03,	 2.8921421623455040e+05,	 1.1050610722009774e+03,	 3.3074561338209851e-01 
1.1233000000000000e-01,	 1.0000000000000000e-04,	 3.2959328062470100e-01,	 3.9792559519650843e+02,	 -3.6634306865999502e+00,	 3.0331133819289407e+03,	 2.8760533101797698e+05,	 1.1052825388722933e+03,	 3.6003686315744882e-01 
1.1350430000000000e-01,	 1.0000000000000000e-04,	 3.2728716101723199e-01,	 4.4924987261484108e+02,	 -4.4955920173750448e+00,	 3.0273238785788212e+03,	 2.8504786524831969e+05,	 1.1042271722177877e+03,	 4.0686588484017189e-01 
1.1468460000000000e-01,	 1.0000000000000000e-04,	 3.2387703073437740e-01,	 5.0386486887615933e+02,	 -4.3610489960277725e+00,	 3.0096689002770322e+03,	 2.8043279928952100e+05,	 1.1010026059019140e+03,	 4.5765899071237087e-01 
1.1587119999999999e-01,	 1.0000000000000000e-04,	 3.1886509337671676e-01,	 5.5513864551176039e+02,	 -3.8982944801102319e+00,	 2.9871532324885911e+03,	 2.7402766981773387e+05,	 1.0968765129988933e+03,	 5.0612108661764221e-01 
1.1706400000000000e-01,	 1.0000000000000000e-04,	 3.1266958366242936e-01,	 6.0112464118932530e+02,	 -3.3560902256456240e+00,	 2.9606945957487951e+03,	 2.6632331243524788e+05,	 1.0920079297293939e+03,	 5.5048502241448527e-01 
1.1826330000000000e-01,	 1.0000000000000000e-04,	 3.0577644462399634e-01,	 6.4212504826422196e+02,	 -2.8786760439854850e+00,	 2.9319309441948376e+03,	 2.5792159228769102e+05,	 1.0866904617985761e+03,	 5.9090561979110789e-01 
1.1946909999999999e-01,	 1.0000000000000000e-04,	 2.9857150970482177e-01,	 6.7967250674075683e+02,	 -2.4687412534513662e+00,	 2.9022556527177067e+03,	 2.4929522914183929e+05,	 1.0811770525675913e+03,	 6.2864540886805675e-01 
1.2068160000000000e-01,	 1.0000000000000000e-04,	 2.9135755547899467e-01,	 7.1526266081775702e+02,	 -2.1078511786796952e+00,	 2.8728542741716451e+03,	 2.4080739469767336e+05,	 1.0756866655131159e+03,	 6.6493876852833367e-01 
1.2190080000000000e-01,	 1.0000000000000000e-04,	 2.8434594403945612e-01,	 7.4971117538553221e+02,	 -1.8389084766082646e+00,	 2.8445294410696793e+03,	 2.3269519117652209e+05,	 1.0703706772852070e+03,	 7.0042411152530404e-01 
1.2312690000000000e-01,	 1.0000000000000000e-04,	 2.7758610224276947e-01,	 7.8321423459636287e+02,	 -1.6122985745539085e+00,	 2.8173556134762684e+03,	 2.2499316466066201e+05,	 1.0652457756902700e+03,	 7.3524430885350656e-01 
1.2436000000000000e-01,	 1.0000000000000000e-04,	 2.7109816535165931e-01,	 8.1557991603274309e+02,	 -1.4105892251213632e+00,	 2.7913272672125058e+03,	 2.1770443378834106e+05,	 1.0603136823066598e+03,	 7.6918854249098245e-01 
1.2560020000000000e-01,	 1.0000000000000000e-04,	 2.6493848627534294e-01,	 8.4629919238861726e+02,	 -1.2023562780324615e+00,	 2.7666100356651150e+03,	 2.1087395143758703e+05,	 1.0556086992182343e+03,	 8.0171757500883756e-01 
1.2684770000000001e-01,	 1.0000000000000000e-04,	 2.5921337566411629e-01,	 8.7464584145135791e+02,	 -9.9467210859729072e-01,	 2.7435935311903113e+03,	 2.0460070011829823e+05,	 1.0512085188202493e+03,	 8.3203892603293295e-01 
1.2810250000000001e-01,	 1.0000000000000000e-04,	 2.5395033386479560e-01,	 9.0034779115390609e+02,	 -8.0530211982491495e-01,	 2.7222606512615321e+03,	 1.9888793165720932e+05,	 1.0471136944064974e+03,	 8.5983800623402851e-01 
1.2936480000000000e-01,	 1.0000000000000000e-04,	 2.4912716142139718e-01,	 9.2330738023722552e+02,	 -6.2436863591721414e-01,	 2.7025459685477017e+03,	 1.9369754078318697e+05,	 1.0433151923398261e+03,	 8.8497474025570366e-01 
1.3063469999999999e-01,	 1.0000000000000000e-04,	 2.4476122021832308e-01,	 9.4338729883731912e+02,	 -4.4872244721699395e-01,	 2.6845630407730646e+03,	 1.8903671161585086e+05,	 1.0398382530161241e+03,	 9.0724437461156460e-01 
1.3191240000000001e-01,	 1.0000000000000000e-04,	 2.4257120387287784e-01,	 9.5352450324102404e+02,	 -3.3947822238923642e-01,	 2.6748253671329430e+03,	 1.8666573913900813e+05,	 1.0379506452013447e+03,	 9.1866079382547261e-01 
5.0000000000000003e-02,	 5.4897959999999999e-04,	 2.3484075387852743e-01,	 2.0471229097814835e+03,	 1.8058635493622475e+01,	 1.0300443700550818e+03,	 6.9592002919668827e+04,	 6.4410541892269498e+02,	 3.1783656835571485e+00 
5.1000009999999998e-02,	 5.4920010000000005e-04,	 2.2765513197345261e-01,	 2.0527961982384631e+03,	 1.7471130549335918e+01,	 1.0173378105549697e+03,	 6.6630422678656352e+04,	 6.4012026963941196e+02,	 3.2070075604970172e+00 
5.2000079999999997e-02,	 5.4949800000000004e-04,	 2.2000163417506133e-01,	 2.0594864170421688e+03,	 1.6957988405254120e+01,	 1.0036292092232700e+03,	 6.3522727400290991e+04,	 6.3579283995253149e+02,	 3.2393510955244134e+00 
5.3000350000000002e-02,	 5.4984030000000000e-04,	 2.1281313972416097e-01,	 2.0659014737240382e+03,	 1.6549870845795251e+01,	 9.9048259519952774e+02,	 6.0642238632007749e+04,	 6.3161496431121657e+02,	 3.2709290938940163e+00 
5.4000909999999999e-02,	 5.5019330000000003e-04,	 2.0603978708191717e-01,	 2.0720556107623270e+03,	 1.6193769395982599e+01,	 9.7784694680151097e+02,	 5.7963141303077035e+04,	 6.2757325706290089e+02,	 3.3017960312815622e+00 
5.5001860000000000e-02,	 5.5055960000000004e-04,	 1.9964260654262322e-01,	 2.0779658554395528e+03,	 1.5863305275138167e+01,	 9.6567958070986970e+02,	 5.5464642391170455e+04,	 6.2365658278930766e+02,	 3.3320042834062868e+00 
5.6003280000000003e-02,	 5.5092759999999998e-04,	 1.9358404563030468e-01,	 2.0836497071390195e+03,	 1.5553435247919769e+01,	 9.5393927574903410e+02,	 5.3127603890343169e+04,	 6.1985391930991727e+02,	 3.3616110035706281e+00 
5.7005279999999998e-02,	 5.5129410000000006e-04,	 1.8782997305388746e-01,	 2.0891251050811329e+03,	 1.5274662682089250e+01,	 9.4258473455017111e+02,	 5.0934873936341341e+04,	 6.1615387987800045e+02,	 3.3906804988164829e+00 
5.8007950000000003e-02,	 5.5165880000000007e-04,	 1.8235309167200578e-01,	 2.0944105301549944e+03,	 1.5033357253875833e+01,	 9.3157852467164582e+02,	 4.8872272842886683e+04,	 6.1254601768085342e+02,	 3.4192769564564420e+00 
5.9011380000000002e-02,	 5.5202090000000005e-04,	 1.7713079090688139e-01,	 2.0995249545159932e+03,	 1.4824723909876223e+01,	 9.2089259645846664e+02,	 4.6928101042767790e+04,	 6.0902269577239747e+02,	 3.4474532838413459e+00 
6.0015680000000002e-02,	 5.5238170000000003e-04,	 1.7214379547529124e-01,	 2.1044856322762089e+03,	 1.4638298843802628e+01,	 9.1050561352161537e+02,	 4.5092461104228714e+04,	 6.0557829434512075e+02,	 3.4752509486647969e+00 
6.1020940000000003e-02,	 5.5274060000000001e-04,	 1.6737458936218627e-01,	 2.1093056610892509e+03,	 1.4464919548374361e+01,	 9.0039853399209505e+02,	 4.3356502511177008e+04,	 6.0220779978022892e+02,	 3.5027033178405027e+00 
6.2027249999999999e-02,	 5.5309860000000001e-04,	 1.6280649740911490e-01,	 2.1139928952177906e+03,	 1.4299504399368416e+01,	 8.9055152339910387e+02,	 4.1711971916852563e+04,	 5.9890579044026947e+02,	 3.5298394019169259e+00 
6.3034709999999994e-02,	 5.5345459999999998e-04,	 1.5842395227629893e-01,	 2.1185510739114156e+03,	 1.4140267417604882e+01,	 8.8094462764197510e+02,	 4.0151279779181481e+04,	 5.9566665910822883e+02,	 3.5566843142762030e+00 
6.4043429999999998e-02,	 5.5381009999999999e-04,	 1.5421329019906757e-01,	 2.1229834447898579e+03,	 1.3987682526298068e+01,	 8.7156057953880475e+02,	 3.8667787171691445e+04,	 5.9248556796800654e+02,	 3.5832594738668990e+00 
6.5053479999999997e-02,	 5.5416480000000006e-04,	 1.5016347575533073e-01,	 2.1272958718965551e+03,	 1.3842934234323254e+01,	 8.6238704702118002e+02,	 3.7256021402321698e+04,	 5.8935924295586676e+02,	 3.6095826727923956e+00 
6.6064979999999995e-02,	 5.5451920000000002e-04,	 1.4626556059068202e-01,	 2.1314971391329655e+03,	 1.3706645572533375e+01,	 8.5341554935779595e+02,	 3.5911419236254449e+04,	 5.8628564710700959e+02,	 3.6356701202879997e+00 
6.7078020000000002e-02,	 5.5487229999999998e-04,	 1.4251174747845283e-01,	 2.1355967629590209e+03,	 1.3578427193722845e+01,	 8.4463917476517906e+02,	 3.4629946710045857e+04,	 5.8326322756055754e+02,	 3.6615370700431451e+00 
6.8092689999999997e-02,	 5.5522540000000004e-04,	 1.3889428828963968e-01,	 2.1396025688446371e+03,	 1.3457209089317409e+01,	 8.3604983164025555e+02,	 3.3407693146691883e+04,	 5.8028997583804926e+02,	 3.6871994651577724e+00 
6.9109089999999998e-02,	 5.5557840000000007e-04,	 1.3540501807224747e-01,	 2.1435192498640217e+03,	 1.3341697418275849e+01,	 8.2763703500856013e+02,	 3.2240711182827345e+04,	 5.7736299436617048e+02,	 3.7126743332881795e+00 
7.0127320000000007e-02,	 5.5593190000000005e-04,	 1.3203614315076023e-01,	 2.1473489042290935e+03,	 1.3230849180789527e+01,	 8.1938924865522881e+02,	 3.1125262909934383e+04,	 5.7447894634177601e+02,	 3.7379780030732550e+00 
7.1147479999999999e-02,	 5.5628550000000007e-04,	 1.2878093857561451e-01,	 2.1510934180354579e+03,	 1.3124880098791255e+01,	 8.1129674769625194e+02,	 3.0058081553111868e+04,	 5.7163505555407585e+02,	 3.7631237577893186e+00 
7.2169659999999997e-02,	 5.5663960000000004e-04,	 1.2563293614642951e-01,	 2.1547567400860739e+03,	 1.3024282030649580e+01,	 8.0335207933947572e+02,	 2.9036172598971258e+04,	 5.6882928576287816e+02,	 3.7881244089508623e+00 
7.3193969999999997e-02,	 5.5699440000000003e-04,	 1.2258653104364899e-01,	 2.1583438055082556e+03,	 1.2927803569291726e+01,	 7.9554950745248129e+02,	 2.8056914209628838e+04,	 5.6606016310364225e+02,	 3.8129913789985581e+00 
7.4220499999999995e-02,	 5.5734980000000001e-04,	 1.1963763709974146e-01,	 2.1618593635371794e+03,	 1.2833712446757787e+01,	 7.8788529931522351e+02,	 2.7118193900607988e+04,	 5.6332689359015694e+02,	 3.8377316634019665e+00 
7.5249339999999998e-02,	 5.5770579999999998e-04,	 1.1678279853352061e-01,	 2.1653085664643982e+03,	 1.2740827533925733e+01,	 7.8035696840992739e+02,	 2.6218155119617812e+04,	 5.6062910842356791e+02,	 3.8623503802545622e+00 
7.6280600000000004e-02,	 5.5806249999999996e-04,	 1.1401884381866366e-01,	 2.1686964142972029e+03,	 1.2648500752510397e+01,	 7.7296246703408042e+02,	 2.5355079497796574e+04,	 5.5796658323573240e+02,	 3.8868515859302963e+00 
7.7314380000000002e-02,	 5.5842010000000004e-04,	 1.1134221377413248e-01,	 2.1720260705753844e+03,	 1.2556541591663610e+01,	 7.6569839059273227e+02,	 2.4527174657628260e+04,	 5.5533859055388609e+02,	 3.9112397410729547e+00 
7.8350770000000000e-02,	 5.5877850000000007e-04,	 1.0874856433539853e-01,	 2.1752980156573121e+03,	 1.2465432355271002e+01,	 7.5855880630932074e+02,	 2.3732458180748254e+04,	 5.5274346139463739e+02,	 3.9355214191624874e+00 
7.9389879999999996e-02,	 5.5913790000000001e-04,	 1.0623326416661363e-01,	 2.1785115779987359e+03,	 1.2376425846087351e+01,	 7.5153651711198791e+02,	 2.2968918736848649e+04,	 5.5017902641398666e+02,	 3.9597051672596058e+00 
8.0431799999999998e-02,	 5.5949820000000003e-04,	 1.0379232725234629e-01,	 2.1816676797575033e+03,	 1.2291027769250309e+01,	 7.4462566024212629e+02,	 2.2234797859462033e+04,	 5.4764356089009038e+02,	 3.9837997882922229e+00 
8.1476640000000003e-02,	 5.5985950000000007e-04,	 1.0142273691467277e-01,	 2.1847701066137938e+03,	 1.2210157420219931e+01,	 7.3782273283671907e+02,	 2.1528674690213855e+04,	 5.4513617500511532e+02,	 4.0078136919663097e+00 
8.2524490000000006e-02,	 5.6022180000000002e-04,	 9.9122144278279450e-02,	 2.1878242247027756e+03,	 1.2133596139146041e+01,	 7.3112585991851370e+02,	 2.0849362055783535e+04,	 5.4265656216823822e+02,	 4.0317541944960524e+00 
8.3575449999999996e-02,	 5.6058520000000001e-04,	 9.6888368623519655e-02,	 2.1908349181245253e+03,	 1.2060065176980435e+01,	 7.2453341859337161e+02,	 2.0195750777646292e+04,	 5.4020449981941454e+02,	 4.0556272904257922e+00 
8.4629620000000003e-02,	 5.6094970000000006e-04,	 9.4719135560614537e-02,	 2.1938054103566533e+03,	 1.1987982460819376e+01,	 7.1804327740263648e+02,	 1.9566731424679681e+04,	 5.3777956663728605e+02,	 4.0794375617719876e+00 
8.5687109999999997e-02,	 5.6131530000000005e-04,	 9.2612060063337179e-02,	 2.1967371796467146e+03,	 1.1915880797854722e+01,	 7.1165272359871847e+02,	 1.8961190347104530e+04,	 5.3538111084635341e+02,	 4.1031882763214229e+00 
8.6748019999999995e-02,	 5.6168220000000005e-04,	 9.0564664343467050e-02,	 2.1996300242360717e+03,	 1.1842594993588868e+01,	 7.0535849593268915e+02,	 1.8378015820077831e+04,	 5.3300825768911102e+02,	 4.1268814731576668e+00 
8.7812450000000000e-02,	 5.6205019999999999e-04,	 8.8574410993420505e-02,	 2.2024821868867007e+03,	 1.1767367559540391e+01,	 6.9915687333939445e+02,	 1.7816108217750701e+04,	 5.3065993847032871e+02,	 4.1505179912620251e+00 
8.8880490000000006e-02,	 5.6241950000000005e-04,	 8.6638872032596292e-02,	 2.2052913302875540e+03,	 1.1690052175383103e+01,	 6.9304422102863532e+02,	 1.7274427911086132e+04,	 5.2833509486062724e+02,	 4.1740977184420478e+00 
8.9952260000000006e-02,	 5.6278999999999997e-04,	 8.4756120381258376e-02,	 2.2080567240913624e+03,	 1.1611162045438739e+01,	 6.8701830072431983e+02,	 1.6752102148298138e+04,	 5.2603318122025701e+02,	 4.1976197160371784e+00 
9.1027849999999993e-02,	 5.6316190000000005e-04,	 8.2925048176489158e-02,	 2.2107808842139016e+03,	 1.1531449542141921e+01,	 6.8107941919911923e+02,	 1.6248505695622025e+04,	 5.2375461783773619e+02,	 4.2210815576190042e+00 
9.2107369999999994e-02,	 5.6353520000000006e-04,	 8.1144955437542632e-02,	 2.2134684186007944e+03,	 1.1451275226568342e+01,	 6.7522919564029246e+02,	 1.5763137927766915e+04,	 5.2150033605710860e+02,	 4.2444805624790840e+00 
9.3190930000000005e-02,	 5.6390979999999997e-04,	 7.9414767932778380e-02,	 2.2161224191007518e+03,	 1.1370368909680773e+01,	 6.6946795779034869e+02,	 1.5295405817171608e+04,	 5.1927077922196543e+02,	 4.2678149374905674e+00 
9.4278609999999999e-02,	 5.6428590000000007e-04,	 7.7732582411615236e-02,	 2.2187418980584384e+03,	 1.1288336513912801e+01,	 6.6379309006765538e+02,	 1.4844506377211044e+04,	 5.1706524845979288e+02,	 4.2910843852432796e+00 
9.5370540000000004e-02,	 5.6466340000000000e-04,	 7.6095941339110573e-02,	 2.2213229663106476e+03,	 1.1205172063964943e+01,	 6.5819982893228917e+02,	 1.4409509456692256e+04,	 5.1488218936559804e+02,	 4.3142902852738612e+00 
9.6466810000000000e-02,	 5.6504250000000004e-04,	 7.4502592040863513e-02,	 2.2238622674183416e+03,	 1.1121517302415759e+01,	 6.5268383225591742e+02,	 1.3989563856553414e+04,	 5.1272018348673953e+02,	 4.3374342344594794e+00 
9.7567530000000000e-02,	 5.6542300000000001e-04,	 7.2950910119683104e-02,	 2.2263596485538601e+03,	 1.1038453179614800e+01,	 6.4724272768700678e+02,	 1.3584004956651990e+04,	 5.1057856255150864e+02,	 4.3605180013569909e+00 
9.8672800000000005e-02,	 5.6580520000000002e-04,	 7.1440122715955942e-02,	 2.2288179419094754e+03,	 1.0955414696126462e+01,	 6.4187702323383519e+02,	 1.3192404506878096e+04,	 5.0845778535122957e+02,	 4.3835396581494583e+00 
9.9782730000000000e-02,	 5.6618900000000004e-04,	 7.2564381000717382e-02,	 2.0405616974794816e+03,	 -8.5973017608511483e+01,	 9.8360560057513817e+02,	 2.0534041022610894e+04,	 6.2941847013251311e+02,	 3.2448555301254340e+00 
1.0089740000000000e-01,	 5.6657440000000006e-04,	 2.6746297309625866e-01,	 8.6160897564603374e+02,	 -1.2476670579703085e+02,	 2.6719626397184174e+03,	 2.0560041490737494e+05,	 1.0373950640304995e+03,	 8.3921320247182640e-01 
1.0201700000000000e-01,	 5.6696150000000000e-04,	 3.4106940185606827e-01,	 6.0240348186112146e+02,	 1.1272804199612160e+01,	 2.8909477215026509e+03,	 2.8366969074219518e+05,	 1.0790687255888129e+03,	 5.5836012349749764e-01 
1.0314150000000000e-01,	 5.6735029999999999e-04,	 3.4428026811501389e-01,	 6.1105112989303166e+02,	 -1.1024114775525187e+00,	 2.8866911144447449e+03,	 2.8591858469082130e+05,	 1.0782740271060695e+03,	 5.6669465179943224e-01 
1.0427119999999999e-01,	 5.6774080000000001e-04,	 3.4585845019798478e-01,	 6.0626778709258474e+02,	 2.7269480036070721e+00,	 2.8918218370523387e+03,	 2.8773974965903565e+05,	 1.0792318484734758e+03,	 5.6176429626783919e-01 
1.0540600000000000e-01,	 5.6813320000000003e-04,	 3.4396132560691683e-01,	 5.8023327412607409e+02,	 1.2941737773276849e+01,	 2.9000443123292580e+03,	 2.8697507985985820e+05,	 1.0807650788541414e+03,	 5.3700623400135949e-01 
1.0654619999999999e-01,	 5.6852740000000001e-04,	 3.4195635841923555e-01,	 5.1697173002601323e+02,	 2.5839014334436001e+01,	 2.9162069061386710e+03,	 2.8689234154159011e+05,	 1.0837725667510595e+03,	 4.7760672235619528e-01 
1.0769170000000000e-01,	 5.6892350000000000e-04,	 3.3913758087425877e-01,	 4.3006631617331129e+02,	 2.9320287692093988e+01,	 2.9479894914239308e+03,	 2.8762841395832226e+05,	 1.0896623667960746e+03,	 3.9559467549755978e-01 
1.0884280000000000e-01,	 5.6932149999999997e-04,	 3.3465107073995459e-01,	 3.6145973635170736e+02,	 2.0849288658365904e+01,	 2.9883981179492284e+03,	 2.8771374538326100e+05,	 1.0971050488792455e+03,	 3.3001446788259214e-01 