TITLE = "Final State"
VARIABLES = "X", "Y", "rho", "u", "v", "T", "p", "c", "M"
ZONE I=75, J=50, DATAPACKING=POINT, STRANDID=5000, SOLUTIONTIME=0.000179
5.0621919999999998e-01,	 1.0000000000000000e-04,	 1.1740467994672463e+00,	 2.0010050967337011e+02,	 4.7220900088844472e-04,	 3.0000164233735160e+02,	 1.0133021839295604e+05,	 3.4760883222358922e+02,	 5.7564851961304164e-01 
5.1081560000000004e-01,	 1.0000000000000000e-04,	 1.1739756533850443e+00,	 2.0012462908121708e+02,	 -3.0713600380998439e-05,	 2.9999616080570638e+02,	 1.0132222652097889e+05,	 3.4760565651177802e+02,	 5.7572316598489692e-01 
5.1545609999999997e-01,	 1.0000000000000000e-04,	 1.1738594161662137e+00,	 2.0015447721538931e+02,	 -3.0983338141480268e-05,	 2.9998922502279720e+02,	 1.0130985214966623e+05,	 3.4760163824151061e+02,	 5.7581569013298517e-01 
5.2014119999999997e-01,	 1.0000000000000000e-04,	 1.1737962587063187e+00,	 2.0016081899783558e+02,	 1.5831772994704638e-04,	 2.9998641571178399e+02,	 1.0130345266367558e+05,	 3.4760001064405833e+02,	 5.7583663080742087e-01 
5.2487130000000004e-01,	 1.0000000000000000e-04,	 1.1737776825126307e+00,	 2.0014903432831795e+02,	 2.8589183671408341e-04,	 2.9998605817582097e+02,	 1.0130172872598634e+05,	 3.4759980350210947e+02,	 5.7580307097989336e-01 
5.2964690000000003e-01,	 1.0000000000000000e-04,	 1.1737865243379129e+00,	 2.0012600210571981e+02,	 3.6691920588847234e-04,	 2.9998648137190156e+02,	 1.0130263472038957e+05,	 3.4760004868487471e+02,	 5.7573640413234017e-01 
5.3446839999999995e-01,	 1.0000000000000000e-04,	 1.1738084134092848e+00,	 2.0009735382893189e+02,	 4.1104274164744796e-04,	 2.9998678887521379e+02,	 1.0130462768077083e+05,	 3.4760022683980094e+02,	 5.7565369173816228e-01 
5.3933629999999999e-01,	 1.0000000000000000e-04,	 1.1738335191273883e+00,	 2.0006720656403456e+02,	 4.0973009210117702e-04,	 2.9998673599977928e+02,	 1.0130677655410767e+05,	 3.4760019620592885e+02,	 5.7556701275832500e-01 
5.4425100000000004e-01,	 1.0000000000000000e-04,	 1.1738556786472074e+00,	 2.0003835944770935e+02,	 3.6307743802435665e-04,	 2.9998656398520319e+02,	 1.0130863092285860e+05,	 3.4760009654767435e+02,	 5.7548418839579640e-01 
5.4921310000000001e-01,	 1.0000000000000000e-04,	 1.1738705067454984e+00,	 2.0001259892822071e+02,	 2.7739172766150276e-04,	 2.9998625919036692e+02,	 1.0130980771572354e+05,	 3.4759991996186324e+02,	 5.7541037106785686e-01 
5.5422289999999996e-01,	 1.0000000000000000e-04,	 1.1738751007606485e+00,	 1.9999068682438707e+02,	 1.6681103042945892e-04,	 2.9998564771893689e+02,	 1.0130999769417295e+05,	 3.4759956569975634e+02,	 5.7534791915477024e-01 
5.5928100000000003e-01,	 1.0000000000000000e-04,	 1.1738671781006427e+00,	 1.9997229318025882e+02,	 4.9059995812600083e-05,	 2.9998447385566271e+02,	 1.0130891750781817e+05,	 3.4759888560928107e+02,	 5.7529612855273626e-01 
5.6438790000000005e-01,	 1.0000000000000000e-04,	 1.1738473729411361e+00,	 1.9995669046089421e+02,	 -7.1498346837759507e-05,	 2.9998256929914942e+02,	 1.0130656506773001e+05,	 3.4759778218088718e+02,	 5.7525306751482985e-01 
5.6954400000000005e-01,	 1.0000000000000000e-04,	 1.1738196111860195e+00,	 1.9994374564744624e+02,	 -1.6686673450707606e-04,	 2.9998010935987463e+02,	 1.0130333842266961e+05,	 3.4759635697943099e+02,	 5.7521818521057611e-01 
5.7474979999999998e-01,	 1.0000000000000000e-04,	 1.1737897263131314e+00,	 1.9993369522847584e+02,	 -2.1390620665119397e-04,	 2.9997756384990987e+02,	 1.0129989969194599e+05,	 3.4759488219520392e+02,	 5.7519171158656646e-01 
5.8000589999999996e-01,	 1.0000000000000000e-04,	 1.1737646535019053e+00,	 1.9992716155595724e+02,	 -2.2264307671995289e-04,	 2.9997552382441938e+02,	 1.0129704698416821e+05,	 3.4759370026743483e+02,	 5.7517487055219763e-01 
5.8531279999999997e-01,	 1.0000000000000000e-04,	 1.1737507458388796e+00,	 1.9992482089986188e+02,	 -2.0180469861986704e-04,	 2.9997457750478782e+02,	 1.0129552718556943e+05,	 3.4759315199770003e+02,	 5.7516904389786894e-01 
5.9067090000000000e-01,	 1.0000000000000000e-04,	 1.1737518044044495e+00,	 1.9992695886322852e+02,	 -1.7191212361396106e-04,	 2.9997507952879585e+02,	 1.0129578806434081e+05,	 3.4759344285573837e+02,	 5.7517471336845116e-01 
5.9608070000000002e-01,	 1.0000000000000000e-04,	 1.1737681595263647e+00,	 1.9993320910496948e+02,	 -1.3939487036474202e-04,	 2.9997704447142047e+02,	 1.0129786305780064e+05,	 3.4759458128372796e+02,	 5.7519081099201708e-01 
6.0154280000000004e-01,	 1.0000000000000000e-04,	 1.1737969419502676e+00,	 1.9994257271372931e+02,	 -1.0206613398988896e-04,	 2.9998017406666617e+02,	 1.0130140386643885e+05,	 3.4759639446832290e+02,	 5.7521474875935885e-01 
6.0705770000000003e-01,	 1.0000000000000000e-04,	 1.1738329646812378e+00,	 1.9995358744618173e+02,	 -6.6641641456582229e-05,	 2.9998394844768518e+02,	 1.0130578733550289e+05,	 3.4759858120801476e+02,	 5.7524281817057765e-01 
6.1262600000000000e-01,	 1.0000000000000000e-04,	 1.1738705593173220e+00,	 1.9996473344457445e+02,	 -3.5497621428147360e-05,	 2.9998781273834066e+02,	 1.0131033690909528e+05,	 3.4760082002384218e+02,	 5.7527117867806499e-01 
6.1824809999999997e-01,	 1.0000000000000000e-04,	 1.1739050658512333e+00,	 1.9997479235445891e+02,	 -1.2472341951838951e-05,	 2.9999131383818548e+02,	 1.0131449738713156e+05,	 3.4760284840895417e+02,	 5.7529675970660998e-01 
6.2392470000000000e-01,	 1.0000000000000000e-04,	 1.1739336226838455e+00,	 1.9998303788991944e+02,	 -1.6887280100434665e-07,	 2.9999417920030771e+02,	 1.0131792972697264e+05,	 3.4760450846644773e+02,	 5.7531773328314773e-01 
6.2965610000000005e-01,	 1.0000000000000000e-04,	 1.1739552276323355e+00,	 1.9998924485787194e+02,	 4.5380097677872248e-06,	 2.9999632700663057e+02,	 1.0132051976967647e+05,	 3.4760575280029917e+02,	 5.7533353014662725e-01 
6.3544310000000004e-01,	 1.0000000000000000e-04,	 1.1739702996504113e+00,	 1.9999356619773741e+02,	 4.8665181764402867e-06,	 2.9999781402633852e+02,	 1.0132232282119908e+05,	 3.4760661430412097e+02,	 5.7534453594362023e-01 
6.4128609999999997e-01,	 1.0000000000000000e-04,	 1.1739800495653254e+00,	 1.9999636183502707e+02,	 4.2238436413366688e-06,	 2.9999877037362069e+02,	 1.0132348731379003e+05,	 3.4760716836211805e+02,	 5.7535166140958838e-01 
6.4718569999999997e-01,	 1.0000000000000000e-04,	 1.1739859188241208e+00,	 1.9999804559203838e+02,	 3.1229181384754186e-06,	 2.9999934330754797e+02,	 1.0132418738316993e+05,	 3.4760750028988690e+02,	 5.7535595585610277e-01 
6.5314249999999996e-01,	 1.0000000000000000e-04,	 1.1739892160937959e+00,	 1.9999899036421562e+02,	 2.1742257615314920e-06,	 2.9999966368242156e+02,	 1.0132458016967592e+05,	 3.4760768589809192e+02,	 5.7535836656629424e-01 
6.5915710000000005e-01,	 1.0000000000000000e-04,	 1.1739909477201342e+00,	 1.9999948492468812e+02,	 1.3375625212085973e-06,	 2.9999983096850173e+02,	 1.0132478612354846e+05,	 3.4760778281473239e+02,	 5.7535962890475223e-01 
6.6522990000000004e-01,	 1.0000000000000000e-04,	 1.1739917989524136e+00,	 1.9999972632109245e+02,	 7.3537746046427438e-07,	 2.9999991268425117e+02,	 1.0132488719115788e+05,	 3.4760783015647331e+02,	 5.7536024499524052e-01 
6.7136169999999995e-01,	 1.0000000000000000e-04,	 1.1739922008750168e+00,	 1.9999983296660537e+02,	 5.5535605984955484e-07,	 2.9999995116933439e+02,	 1.0132493487862556e+05,	 3.4760785245267289e+02,	 5.7536051488893081e-01 
6.7755290000000001e-01,	 1.0000000000000000e-04,	 1.1739923945039448e+00,	 1.9999988925010359e+02,	 3.1683360600559340e-07,	 2.9999997123454750e+02,	 1.0132495836737730e+05,	 3.4760786407738397e+02,	 5.7536065756435217e-01 
6.8380430000000003e-01,	 1.0000000000000000e-04,	 1.1739925418951516e+00,	 1.9999993081496115e+02,	 2.2179825223087243e-07,	 2.9999998332499905e+02,	 1.0132497517196968e+05,	 3.4760787108194467e+02,	 5.7536076554438376e-01 
6.9011630000000002e-01,	 1.0000000000000000e-04,	 1.1739926335978637e+00,	 1.9999995833992773e+02,	 1.3763384598657863e-07,	 2.9999999048757172e+02,	 1.0132498550580810e+05,	 3.4760787523155591e+02,	 5.7536083785990044e-01 
6.9648960000000004e-01,	 1.0000000000000000e-04,	 1.1739926894124020e+00,	 1.9999997644614041e+02,	 8.9330141649574931e-08,	 2.9999999467094449e+02,	 1.0132499173598473e+05,	 3.4760787765517819e+02,	 5.7536088593635781e-01 
7.0292480000000002e-01,	 1.0000000000000000e-04,	 1.1739927245560606e+00,	 1.9999998736337278e+02,	 6.5038379640855150e-08,	 2.9999999742995760e+02,	 1.0132499570102119e+05,	 3.4760787925360268e+02,	 5.7536091469739015e-01 
7.0942249999999996e-01,	 1.0000000000000000e-04,	 1.1739927488653663e+00,	 1.9999999323215590e+02,	 5.9637548392072383e-08,	 2.9999999945334673e+02,	 1.0132499848250907e+05,	 3.4760788042584602e+02,	 5.7536092964043495e-01 
7.1598329999999999e-01,	 1.0000000000000000e-04,	 1.1739927646306296e+00,	 1.9999999640717812e+02,	 6.0468086665888655e-08,	 3.0000000075141497e+02,	 1.0132500028160040e+05,	 3.4760788117787729e+02,	 5.7536093752959094e-01 
7.2260789999999997e-01,	 1.0000000000000000e-04,	 1.1739927731968913e+00,	 1.9999999834451734e+02,	 5.5688708323985030e-08,	 3.0000000128768545e+02,	 1.0132500120206291e+05,	 3.4760788148856369e+02,	 5.7536094258868908e-01 
7.2929679999999997e-01,	 1.0000000000000000e-04,	 1.1739927793853098e+00,	 1.9999999946704492e+02,	 4.3869837472447237e-08,	 3.0000000169740747e+02,	 1.0132500187455671e+05,	 3.4760788172593470e+02,	 5.7536094542508498e-01 
7.3605080000000001e-01,	 1.0000000000000000e-04,	 1.1739927854532461e+00,	 1.9999999874188026e+02,	 1.9466401342724651e-08,	 3.0000000231865073e+02,	 1.0132500260809324e+05,	 3.4760788208584978e+02,	 5.7536094274319605e-01 
7.4287049999999999e-01,	 1.0000000000000000e-04,	 1.1739927895013937e+00,	 1.9999999762740015e+02,	 2.8971244557445942e-09,	 3.0000000266594515e+02,	 1.0132500307477958e+05,	 3.4760788228705360e+02,	 5.7536093920402165e-01 
7.4975660000000000e-01,	 1.0000000000000000e-04,	 1.1739927910971171e+00,	 1.9999999734532742e+02,	 -6.4739422716815838e-09,	 3.0000000277071632e+02,	 1.0132500324788978e+05,	 3.4760788234775237e+02,	 5.7536093829208479e-01 
7.5670959999999998e-01,	 1.0000000000000000e-04,	 1.1739927918339803e+00,	 1.9999999774295810e+02,	 -9.1347884028475618e-09,	 3.0000000276499571e+02,	 1.0132500330955486e+05,	 3.4760788234443817e+02,	 5.7536093944147626e-01 
7.6373029999999997e-01,	 1.0000000000000000e-04,	 1.1739927929847123e+00,	 1.9999999854264615e+02,	 -1.9576284982938507e-08,	 3.0000000272954082e+02,	 1.0132500339689737e+05,	 3.4760788232389751e+02,	 5.7536094177602159e-01 
7.7081929999999999e-01,	 1.0000000000000000e-04,	 1.1739927924874971e+00,	 1.9999999994401617e+02,	 -2.1414998857744906e-08,	 3.0000000244256626e+02,	 1.0132500325705807e+05,	 3.4760788215763984e+02,	 5.7536094608267929e-01 
7.7797729999999998e-01,	 1.0000000000000000e-04,	 1.1739927831134873e+00,	 2.0000000134544666e+02,	 -1.1987356742631909e-08,	 3.0000000192280476e+02,	 1.0132500227245630e+05,	 3.4760788185651785e+02,	 5.7536095061273862e-01 
7.8520500000000004e-01,	 1.0000000000000000e-04,	 1.1739927757352222e+00,	 2.0000000213437096e+02,	 -1.3600687988705815e-08,	 3.0000000151575722e+02,	 1.0132500149817247e+05,	 3.4760788162069628e+02,	 5.7536095327265191e-01 
7.9250310000000002e-01,	 1.0000000000000000e-04,	 1.1739927729756643e+00,	 2.0000000186029646e+02,	 -2.1555337753146950e-08,	 3.0000000117341671e+02,	 1.0132500114437498e+05,	 3.4760788142236248e+02,	 5.7536095281247546e-01 
7.9987229999999998e-01,	 1.0000000000000000e-04,	 1.1739927706666378e+00,	 2.0000000100462029e+02,	 -2.9775054810613069e-08,	 3.0000000080129917e+02,	 1.0132500081940476e+05,	 3.4760788120677751e+02,	 5.7536095070769866e-01 
8.0731330000000001e-01,	 1.0000000000000000e-04,	 1.1739927681193367e+00,	 1.9999999977881185e+02,	 -2.5645413628412094e-08,	 3.0000000048379616e+02,	 1.0132500049231558e+05,	 3.4760788102283328e+02,	 5.7536094748575184e-01 
8.1482670000000001e-01,	 1.0000000000000000e-04,	 1.1739927665866845e+00,	 1.9999999845880154e+02,	 -2.1129662572933995e-08,	 3.0000000023147288e+02,	 1.0132500027481321e+05,	 3.4760788087665065e+02,	 5.7536094393030157e-01 
8.2241339999999996e-01,	 1.0000000000000000e-04,	 1.1739927646254524e+00,	 1.9999999784809623e+02,	 -2.2182412098224973e-08,	 3.0000000000351224e+02,	 1.0132500002854943e+05,	 3.4760788074458247e+02,	 5.7536094239202107e-01 
8.3007410000000004e-01,	 1.0000000000000000e-04,	 1.1739927656157105e+00,	 1.9999999817163314e+02,	 -2.7159854027942465e-08,	 3.0000000001364026e+02,	 1.0132500011743739e+05,	 3.4760788075045008e+02,	 5.7536094331306142e-01 
8.3780940000000004e-01,	 1.0000000000000000e-04,	 1.1739927665221677e+00,	 1.9999999878880692e+02,	 -3.3544164395277479e-08,	 3.0000000011857378e+02,	 1.0132500023111321e+05,	 3.4760788081124298e+02,	 5.7536094498792545e-01 
8.4562020000000004e-01,	 1.0000000000000000e-04,	 1.1739927659948528e+00,	 1.9999999973130753e+02,	 -3.8153227788689967e-08,	 3.0000000014367288e+02,	 1.0132500019407892e+05,	 3.4760788082578404e+02,	 5.7536094767524726e-01 
8.5350709999999996e-01,	 1.0000000000000000e-04,	 1.1739927680744962e+00,	 2.0000000053661927e+02,	 -6.4010384342051007e-08,	 3.0000000036304982e+02,	 1.0132500044766341e+05,	 3.4760788095287933e+02,	 5.7536094978160368e-01 
8.6147090000000004e-01,	 1.0000000000000000e-04,	 1.1739927719126773e+00,	 2.0000000101896563e+02,	 -1.1023336797739664e-07,	 3.0000000084865434e+02,	 1.0132500094294216e+05,	 3.4760788123421258e+02,	 5.7536095070355686e-01 
8.6951250000000002e-01,	 1.0000000000000000e-04,	 1.1739927763250728e+00,	 2.0000000138269527e+02,	 -1.5065978165310904e-07,	 3.0000000126684506e+02,	 1.0132500146501124e+05,	 3.4760788147648987e+02,	 5.7536095134891840e-01 
8.7763250000000004e-01,	 1.0000000000000000e-04,	 1.1739927808152544e+00,	 2.0000000110716587e+02,	 -1.7581732729543637e-07,	 3.0000000179380993e+02,	 1.0132500203053234e+05,	 3.4760788178178512e+02,	 5.7536095005094900e-01 
8.8583170000000000e-01,	 1.0000000000000000e-04,	 1.1739927848899017e+00,	 1.9999999927334682e+02,	 -1.9180504381518788e-07,	 3.0000000222128381e+02,	 1.0132500252658642e+05,	 3.4760788202944059e+02,	 5.7536094436549012e-01 
8.9411099999999999e-01,	 1.0000000000000000e-04,	 1.1739927849701874e+00,	 1.9999999957195371e+02,	 -1.8211088683233250e-07,	 3.0000000192933561e+02,	 1.0132500243491023e+05,	 3.4760788186030146e+02,	 5.7536094550448313e-01 
9.0247100000000002e-01,	 1.0000000000000000e-04,	 1.1739927766998497e+00,	 2.0000000082740854e+02,	 -1.4959731090823611e-07,	 3.0000000110884980e+02,	 1.0132500144399460e+05,	 3.4760788138495587e+02,	 5.7536094990297404e-01 
9.1091270000000002e-01,	 1.0000000000000000e-04,	 1.1739928462644944e+00,	 2.0000001069432639e+02,	 -1.5812352269403159e-07,	 3.0000000083366717e+02,	 1.0132500735503895e+05,	 3.4760788122552981e+02,	 5.7536097855205226e-01 
9.1943680000000005e-01,	 1.0000000000000000e-04,	 1.1739930426994754e+00,	 1.9999998963364919e+02,	 -1.8183721267482231e-06,	 3.0000002978577231e+02,	 1.0132503408753060e+05,	 3.4760789799882923e+02,	 5.7536089020141545e-01 
9.2804410000000004e-01,	 1.0000000000000000e-04,	 1.1739941083275740e+00,	 1.9999975513497782e+02,	 -5.6260538880681546e-06,	 3.0000016386435777e+02,	 1.0132517134489326e+05,	 3.4760797567677162e+02,	 5.7536008702214181e-01 
9.3673550000000005e-01,	 1.0000000000000000e-04,	 1.1739976830677676e+00,	 1.9999901154898200e+02,	 -1.6767965160214144e-05,	 3.0000060576029477e+02,	 1.0132562912481542e+05,	 3.4760823168745770e+02,	 5.7535752412447549e-01 
9.4551180000000001e-01,	 1.0000000000000000e-04,	 1.1740087174785798e+00,	 1.9999679945512216e+02,	 -4.9963206688413451e-05,	 3.0000193363086328e+02,	 1.0132702997935118e+05,	 3.4760900098295343e+02,	 5.7534988705581924e-01 
9.5437390000000000e-01,	 1.0000000000000000e-04,	 1.1740389523211276e+00,	 1.9999105426817567e+02,	 -1.3218102610841761e-04,	 3.0000544038345095e+02,	 1.0133082395808236e+05,	 3.4761103259519467e+02,	 5.7532999679304198e-01 
9.6332249999999997e-01,	 1.0000000000000000e-04,	 1.1741106052282200e+00,	 1.9997856186625930e+02,	 -3.1176915148991348e-04,	 3.0001336680633943e+02,	 1.0133968570937222e+05,	 3.4761562466832891e+02,	 5.7528645916681165e-01 
9.7235850000000001e-01,	 1.0000000000000000e-04,	 1.1742553838919654e+00,	 1.9995677783851511e+02,	 -6.5652949388182150e-04,	 3.0002843953403595e+02,	 1.0135727377962624e+05,	 3.4762435669567583e+02,	 5.7520934303991544e-01 
9.8148290000000005e-01,	 1.0000000000000000e-04,	 1.1745003011805606e+00,	 1.9992936647228265e+02,	 -1.2313314811355756e-03,	 3.0005197730521837e+02,	 1.0138636743071573e+05,	 3.4763799230652864e+02,	 5.7510793095303403e-01 
9.9069640000000003e-01,	 1.0000000000000000e-04,	 1.1748038906382148e+00,	 1.9991304476177908e+02,	 -1.8479054553000097e-03,	 3.0008081217436086e+02,	 1.0142231988359887e+05,	 3.4765469583784824e+02,	 5.7503335109145870e-01 
1.0000000000000000e+00,	 1.0000000000000000e-04,	 1.1749635644127043e+00,	 1.9991354533149013e+02,	 -1.8445823086794969e-03,	 3.0009643579748234e+02,	 1.0144138596669893e+05,	 3.4766374599205108e+02,	 5.7501982201092317e-01 
5.0621930000000004e-01,	 7.0671750000000000e-04,	 1.1740465731376883e+00,	 2.0010088118012339e+02,	 -1.9957705674302330e-03,	 3.0000164571506497e+02,	 1.0133019999966632e+05,	 3.4760883418045017e+02,	 5.7564958514892073e-01 
5.1081569999999998e-01,	 7.0830680000000007e-04,	 1.1739756386435802e+00,	 2.0012507620590151e+02,	 -9.9127272292453650e-04,	 2.9999617926364880e+02,	 1.0132223148276757e+05,	 3.4760566720539003e+02,	 5.7572443457922240e-01 
5.1545620000000003e-01,	 7.0991130000000002e-04,	 1.1738593808395215e+00,	 2.0015501198497719e+02,	 -7.0196168016206420e-05,	 2.9998922579331889e+02,	 1.0130984936101273e+05,	 3.4760163868791767e+02,	 5.7581722784883616e-01 
5.2014130000000003e-01,	 7.1153120000000002e-04,	 1.1737962654114396e+00,	 2.0016132095310553e+02,	 7.5192299187729582e-04,	 2.9998641181688697e+02,	 1.0130345192707385e+05,	 3.4760000838751239e+02,	 5.7583807860951908e-01 
5.2487139999999999e-01,	 7.1316670000000002e-04,	 1.1737777025860259e+00,	 2.0014944262837824e+02,	 1.3070642805496457e-03,	 2.9998605750509046e+02,	 1.0130173023190322e+05,	 3.4759980311351507e+02,	 5.7580424626214088e-01 
5.2964699999999998e-01,	 7.1481790000000006e-04,	 1.1737865441491613e+00,	 2.0012628816785562e+02,	 1.6510656004774340e-03,	 2.9998647562248709e+02,	 1.0130263448865866e+05,	 3.4760004535389669e+02,	 5.7573723263158627e-01 
5.3446850000000001e-01,	 7.1648500000000000e-04,	 1.1738084325017011e+00,	 2.0009750796583148e+02,	 1.8098873621934298e-03,	 2.9998677066737741e+02,	 1.0130462317979592e+05,	 3.4760021629092279e+02,	 5.7565415266182063e-01 
5.3933640000000005e-01,	 7.1816810000000007e-04,	 1.1738335410137650e+00,	 2.0006725792317883e+02,	 1.7802139909825106e-03,	 2.9998671360002231e+02,	 1.0130677087850230e+05,	 3.4760018322842160e+02,	 5.7556718202195845e-01 
5.4425109999999999e-01,	 7.1986740000000004e-04,	 1.1738557062370494e+00,	 2.0003837742142682e+02,	 1.5757005228441601e-03,	 2.9998654009680808e+02,	 1.0130862523661327e+05,	 3.4760008270770680e+02,	 5.7548426303408806e-01 
5.4921319999999996e-01,	 7.2158310000000007e-04,	 1.1738705348231213e+00,	 2.0001262122787645e+02,	 1.2194270229466332e-03,	 2.9998623421873185e+02,	 1.0130980170564518e+05,	 3.4759990549430307e+02,	 5.7541045918055289e-01 
5.5422300000000002e-01,	 7.2331530000000008e-04,	 1.1738751527787599e+00,	 1.9999071069071550e+02,	 7.6610898142230133e-04,	 2.9998562178162740e+02,	 1.0130999342409009e+05,	 3.4759955067270795e+02,	 5.7534801269202362e-01 
5.5928109999999998e-01,	 7.2506420000000005e-04,	 1.1738672423970595e+00,	 1.9997231829458943e+02,	 2.8700383237925881e-04,	 2.9998444654125456e+02,	 1.0130891383237293e+05,	 3.4759886978436532e+02,	 5.7529622699535599e-01 
5.6438800000000000e-01,	 7.2682990000000000e-04,	 1.1738474570709025e+00,	 1.9995671635157584e+02,	 -1.6703401518868190e-04,	 2.9998256421224812e+02,	 1.0130657061049409e+05,	 3.4759777923372326e+02,	 5.7525314687697005e-01 
5.6954410000000000e-01,	 7.2861270000000003e-04,	 1.1738197097145378e+00,	 1.9994377125990428e+02,	 -5.3645626068304822e-04,	 2.9998012366926986e+02,	 1.0130335175819368e+05,	 3.4759636526980336e+02,	 5.7521824517764486e-01 
5.7474990000000004e-01,	 7.3041270000000008e-04,	 1.1737898294132934e+00,	 1.9993371811471155e+02,	 -7.7131060368228156e-04,	 2.9997757394481158e+02,	 1.0129991199861583e+05,	 3.4759488804386820e+02,	 5.7519176775398007e-01 
5.8000600000000002e-01,	 7.3223000000000006e-04,	 1.1737647465422687e+00,	 1.9992717899926947e+02,	 -8.5987264649488402e-04,	 2.9997553249668113e+02,	 1.0129705794213081e+05,	 3.4759370529188402e+02,	 5.7517491242608743e-01 
5.8531290000000002e-01,	 7.3406490000000007e-04,	 1.1737508107054668e+00,	 1.9992483296582589e+02,	 -8.2196356604065260e-04,	 2.9997458460671237e+02,	 1.0129553518178286e+05,	 3.4759315611234928e+02,	 5.7516907180674104e-01 
5.9067090000000000e-01,	 7.3591750000000006e-04,	 1.1737518833879967e+00,	 1.9992697932346621e+02,	 -6.9863304436418674e-04,	 2.9997508920143525e+02,	 1.0129579814695238e+05,	 3.4759344845978057e+02,	 5.7517476296110359e-01 
5.9608079999999997e-01,	 7.3778800000000007e-04,	 1.1737682906642537e+00,	 1.9993324560590364e+02,	 -5.2946028826859654e-04,	 2.9997705914324570e+02,	 1.0129787932964860e+05,	 3.4759458978412323e+02,	 5.7519090193772882e-01 
6.0154289999999999e-01,	 7.3967660000000008e-04,	 1.1737970976503742e+00,	 1.9994261607251778e+02,	 -3.5296290644603993e-04,	 2.9998019088110084e+02,	 1.0130142298184868e+05,	 3.4759640421002803e+02,	 5.7521485737815081e-01 
6.0705779999999998e-01,	 7.4158340000000001e-04,	 1.1738331215280513e+00,	 1.9995362977814619e+02,	 -2.0026091356994377e-04,	 2.9998396526067364e+02,	 1.0130580654973236e+05,	 3.4759859094882069e+02,	 5.7524292383477182e-01 
6.1262609999999995e-01,	 7.4350870000000006e-04,	 1.1738706985188219e+00,	 1.9996476945606159e+02,	 -8.6795240729423264e-05,	 2.9998782251113516e+02,	 1.0131035222323227e+05,	 3.4760082568579111e+02,	 5.7527127290783753e-01 
6.1824820000000003e-01,	 7.4545260000000006e-04,	 1.1739051754951453e+00,	 1.9997481939579063e+02,	 -1.5789605056823465e-05,	 2.9999131345456044e+02,	 1.0131450672044767e+05,	 3.4760284818669913e+02,	 5.7529683786820940e-01 
6.2392479999999995e-01,	 7.4741540000000000e-04,	 1.1739337001425043e+00,	 1.9998305547209520e+02,	 1.9255896351608484e-05,	 2.9999417432172055e+02,	 1.0131793476448707e+05,	 3.4760450564002804e+02,	 5.7531778854211524e-01 
6.2965620000000000e-01,	 7.4939710000000010e-04,	 1.1739552772843171e+00,	 1.9998925425297165e+02,	 3.0209949180642784e-05,	 2.9999632213439020e+02,	 1.0132052240944197e+05,	 3.4760574997756663e+02,	 5.7533356184666273e-01 
6.3544319999999999e-01,	 7.5139800000000002e-04,	 1.1739703285127292e+00,	 1.9999356938360629e+02,	 2.8097341740691838e-05,	 2.9999781085754103e+02,	 1.0132232424198976e+05,	 3.4760661246828261e+02,	 5.7534454814738800e-01 
6.4128620000000003e-01,	 7.5341830000000005e-04,	 1.1739800642873419e+00,	 1.9999636025695429e+02,	 2.1332378434925857e-05,	 2.9999876837418361e+02,	 1.0132348790911047e+05,	 3.4760716720374882e+02,	 5.7535165878708194e-01 
6.4718580000000003e-01,	 7.5545810000000001e-04,	 1.1739859249447655e+00,	 1.9999804270038396e+02,	 1.4196696991438361e-05,	 2.9999934206904936e+02,	 1.0132418749312909e+05,	 3.4760749957236629e+02,	 5.7535594872500184e-01 
6.5314260000000002e-01,	 7.5751770000000000e-04,	 1.1739892169606252e+00,	 1.9999898889749244e+02,	 8.5723969365279939e-06,	 2.9999966294998950e+02,	 1.0132457999711197e+05,	 3.4760768547375972e+02,	 5.7535836304916843e-01 
6.5915720000000000e-01,	 7.5959730000000009e-04,	 1.1739909461958695e+00,	 1.9999948448169332e+02,	 4.7284363620683961e-06,	 2.9999983067254624e+02,	 1.0132478589203344e+05,	 3.4760778264327161e+02,	 5.7535962791414397e-01 
6.6522999999999999e-01,	 7.6169710000000002e-04,	 1.1739917975960483e+00,	 1.9999972646356304e+02,	 2.6184210363545488e-06,	 2.9999991272782057e+02,	 1.0132488708880826e+05,	 3.4760783018171509e+02,	 5.7536024536332053e-01 
6.7136180000000001e-01,	 7.6381720000000004e-04,	 1.1739921952318877e+00,	 1.9999983152584585e+02,	 2.0408355941316359e-06,	 2.9999995127702402e+02,	 1.0132493442795046e+05,	 3.4760785251506252e+02,	 5.7536051064087945e-01 
6.7755299999999996e-01,	 7.6595790000000003e-04,	 1.1739923943261374e+00,	 1.9999988939452413e+02,	 1.3981571234562111e-06,	 2.9999997117428069e+02,	 1.0132495833167600e+05,	 3.4760786404246858e+02,	 5.7536065803761383e-01 
6.8380439999999998e-01,	 7.6811930000000004e-04,	 1.1739925414402546e+00,	 1.9999993062897019e+02,	 8.2145923773623927e-07,	 2.9999998327899800e+02,	 1.0132497511717158e+05,	 3.4760787105529408e+02,	 5.7536076505343614e-01 
6.9011639999999996e-01,	 7.7030180000000009e-04,	 1.1739926333586315e+00,	 1.9999995826185165e+02,	 5.0657427856647554e-07,	 2.9999999046520850e+02,	 1.0132498547760728e+05,	 3.4760787521859987e+02,	 5.7536083765673562e-01 
6.9648969999999999e-01,	 7.7250540000000007e-04,	 1.1739926892668713e+00,	 1.9999997639342627e+02,	 3.3275394052645163e-07,	 2.9999999465805115e+02,	 1.0132499171906954e+05,	 3.4760787764770845e+02,	 5.7536088579707345e-01 
7.0292489999999996e-01,	 7.7473040000000009e-04,	 1.1739927244637027e+00,	 1.9999998733209884e+02,	 2.6431559637826637e-07,	 2.9999999742308904e+02,	 1.0132499569073009e+05,	 3.4760787924962341e+02,	 5.7536091461400762e-01 
7.0942249999999996e-01,	 7.7697710000000002e-04,	 1.1739927487964577e+00,	 1.9999999321563803e+02,	 2.6164725581128737e-07,	 2.9999999944921359e+02,	 1.0132499847516572e+05,	 3.4760788042345149e+02,	 5.7536092959687968e-01 
7.1598340000000005e-01,	 7.7924560000000001e-04,	 1.1739927645768509e+00,	 1.9999999639910641e+02,	 2.6061867053661677e-07,	 3.0000000074665957e+02,	 1.0132500027535271e+05,	 3.4760788117512226e+02,	 5.7536093751093031e-01 
7.2260800000000003e-01,	 7.8153610000000003e-04,	 1.1739927731561171e+00,	 1.9999999833851348e+02,	 2.4460103009613171e-07,	 3.0000000128182410e+02,	 1.0132500119656409e+05,	 3.4760788148516792e+02,	 5.7536094257703785e-01 
7.2929690000000003e-01,	 7.8384890000000006e-04,	 1.1739927793549216e+00,	 1.9999999946281528e+02,	 2.0206840297034902e-07,	 3.0000000168977760e+02,	 1.0132500186935699e+05,	 3.4760788172151433e+02,	 5.7536094542023375e-01 
7.3605089999999995e-01,	 7.8618410000000003e-04,	 1.1739927854290191e+00,	 1.9999999873826107e+02,	 1.1525745467355260e-07,	 3.0000000230707508e+02,	 1.0132500260209259e+05,	 3.4760788207914345e+02,	 5.7536094274388472e-01 
7.4287060000000005e-01,	 7.8854210000000007e-04,	 1.1739927894805324e+00,	 1.9999999762749604e+02,	 5.3154475661866797e-08,	 3.0000000264977950e+02,	 1.0132500306751912e+05,	 3.4760788227768808e+02,	 5.7536093921979936e-01 
7.4975670000000005e-01,	 7.9092300000000002e-04,	 1.1739927910758947e+00,	 1.9999999734941593e+02,	 9.5436501346526790e-09,	 3.0000000275209743e+02,	 1.0132500323976959e+05,	 3.4760788233696559e+02,	 5.7536093832170099e-01 
7.5670970000000004e-01,	 7.9332710000000006e-04,	 1.1739927918133595e+00,	 1.9999999774708027e+02,	 -5.2602523988466181e-09,	 3.0000000274536535e+02,	 1.0132500330114497e+05,	 3.4760788233306539e+02,	 5.7536093947215916e-01 
7.6373040000000003e-01,	 7.9575460000000007e-04,	 1.1739927929638885e+00,	 1.9999999854657921e+02,	 -2.4452641501822597e-08,	 3.0000000271134491e+02,	 1.0132500338895444e+05,	 3.4760788231335579e+02,	 5.7536094180478492e-01 
7.7081940000000004e-01,	 7.9820570000000010e-04,	 1.1739927924618681e+00,	 1.9999999994824722e+02,	 -2.4734921501130792e-08,	 3.0000000242273518e+02,	 1.0132500324814812e+05,	 3.4760788214615076e+02,	 5.7536094611386801e-01 
7.7797740000000004e-01,	 8.0068070000000003e-04,	 1.1739927830841594e+00,	 2.0000000134777650e+02,	 -1.8092409462617030e-09,	 3.0000000189816831e+02,	 1.0132500226160411e+05,	 3.4760788184224475e+02,	 5.7536095064306603e-01 
7.8520509999999999e-01,	 8.0317980000000006e-04,	 1.1739927757047672e+00,	 2.0000000213498214e+02,	 -2.2227602543664887e-09,	 3.0000000148986737e+02,	 1.0132500148679968e+05,	 3.4760788160569706e+02,	 5.7536095329923687e-01 
7.9250319999999996e-01,	 8.0570320000000002e-04,	 1.1739927729463289e+00,	 2.0000000185975529e+02,	 -1.5616482669655484e-08,	 3.0000000115012915e+02,	 1.0132500113397771e+05,	 3.4760788140887092e+02,	 5.7536095283324984e-01 
7.9987240000000004e-01,	 8.0825120000000002e-04,	 1.1739927706476767e+00,	 2.0000000100477229e+02,	 -3.6197330209947369e-08,	 3.0000000078401007e+02,	 1.0132500081192887e+05,	 3.4760788119676113e+02,	 5.7536095072471505e-01 
8.0731339999999996e-01,	 8.1082400000000003e-04,	 1.1739927681079090e+00,	 1.9999999978172002e+02,	 -3.4795857624646485e-08,	 3.0000000047089242e+02,	 1.0132500048697102e+05,	 3.4760788101535752e+02,	 5.7536094750649192e-01 
8.1482679999999996e-01,	 8.1342190000000003e-04,	 1.1739927665810912e+00,	 1.9999999846129583e+02,	 -3.4628763245195623e-08,	 3.0000000022351287e+02,	 1.0132500027164195e+05,	 3.4760788087203906e+02,	 5.7536094394511028e-01 
8.2241359999999997e-01,	 8.1604520000000001e-04,	 1.1739927646288244e+00,	 1.9999999785002336e+02,	 -4.7462850820794346e-08,	 3.0000000000077205e+02,	 1.0132500002791495e+05,	 3.4760788074299495e+02,	 5.7536094240019264e-01 
8.3007419999999998e-01,	 8.1869400000000002e-04,	 1.1739927656092093e+00,	 1.9999999817314063e+02,	 -7.5233747994252004e-08,	 3.0000000001393204e+02,	 1.0132500011697483e+05,	 3.4760788075061913e+02,	 5.7536094331711840e-01 
8.3780949999999998e-01,	 8.2136870000000008e-04,	 1.1739927665175793e+00,	 1.9999999878856161e+02,	 -9.9670985947524584e-08,	 3.0000000012074270e+02,	 1.0132500023144974e+05,	 3.4760788081249956e+02,	 5.7536094498513990e-01 
8.4562029999999999e-01,	 8.2407000000000010e-04,	 1.1739927659854688e+00,	 1.9999999973009440e+02,	 -1.1852466480700017e-07,	 3.0000000014582974e+02,	 1.0132500019399749e+05,	 3.4760788082703363e+02,	 5.7536094766968904e-01 