TITLE = "Final State"
VARIABLES = "X", "Y", "rho", "u", "v", "T", "p", "c", "M"
ZONE I=77, J=25, DATAPACKING=POINT, STRANDID=65000, SOLUTIONTIME=0.001568
2.1589400000000000e-01,	 1.8936299999999998e-01,	 1.1581772824918211e-02,	 1.7359372319414404e+03,	 4.0140205120186667e-01,	 3.0010309439206003e+02,	 9.9994348007963765e+02,	 3.4766760298403233e+02,	 4.9930947360355997e+00 
2.2017450000000000e-01,	 1.8988320000000000e-01,	 1.1585801957814007e-02,	 1.7359045717416134e+03,	 5.2107362049059103e-01,	 3.0016852667317318e+02,	 1.0005094422957178e+03,	 3.4770550236744998e+02,	 4.9924566569370539e+00 
2.2445490000000001e-01,	 1.9040340000000000e-01,	 1.1591636075197859e-02,	 1.7358532232186035e+03,	 6.9401646325631039e-01,	 3.0025782636515328e+02,	 1.0013110562825577e+03,	 3.4775721945720778e+02,	 4.9915667161887809e+00 
2.2873540000000001e-01,	 1.9092370000000000e-01,	 1.1597127254964042e-02,	 1.7358071285611190e+03,	 8.6231138623391090e-01,	 3.0033734267504587e+02,	 1.0020506960751550e+03,	 3.4780326411928178e+02,	 4.9907735832939384e+00 
2.3301580000000000e-01,	 1.9144390000000000e-01,	 1.1602255801968227e-02,	 1.7357672957615969e+03,	 1.0195094177161743e+00,	 3.0040556564989078e+02,	 1.0027215495547850e+03,	 3.4784276441216980e+02,	 4.9900925727209939e+00 
2.3729629999999999e-01,	 1.9196410000000000e-01,	 1.1606995656264905e-02,	 1.7357343945208477e+03,	 1.1614556876939086e+00,	 3.0046172949538709e+02,	 1.0033187355472841e+03,	 3.4787527924623890e+02,	 4.9895318427687112e+00 
2.4157670000000001e-01,	 1.9248430000000000e-01,	 1.1611294236934477e-02,	 1.7357081940032176e+03,	 1.2864779872811747e+00,	 3.0050618890837700e+02,	 1.0038388249338215e+03,	 3.4790101589935256e+02,	 4.9890876756258553e+00 
2.4585720000000000e-01,	 1.9300460000000000e-01,	 1.1615139862466874e-02,	 1.7356881024013005e+03,	 1.3952228286368649e+00,	 3.0054024141348179e+02,	 1.0042850831462911e+03,	 3.4792072691689873e+02,	 4.9887475188756900e+00 
2.5013760000000002e-01,	 1.9352480000000000e-01,	 1.1618436904740684e-02,	 1.7356735290368481e+03,	 1.4873516622186904e+00,	 3.0056471414037458e+02,	 1.0046519580635133e+03,	 3.4793489206756828e+02,	 4.9885027511934652e+00 
2.5441799999999998e-01,	 1.9404500000000000e-01,	 1.1621289645632646e-02,	 1.7356640045440313e+03,	 1.5633264411932508e+00,	 3.0058054611687646e+02,	 1.0049515681061953e+03,	 3.4794405552595077e+02,	 4.9883441922023222e+00 
2.5869850000000000e-01,	 1.9456530000000000e-01,	 1.1623691694902105e-02,	 1.7356589042190278e+03,	 1.6243436168868861e+00,	 3.0058889889312627e+02,	 1.0051872176119155e+03,	 3.4794888996831645e+02,	 4.9882603863476520e+00 
2.6297890000000002e-01,	 1.9508550000000000e-01,	 1.1625593011612680e-02,	 1.7356577845130228e+03,	 1.6714674429973357e+00,	 3.0059091765461523e+02,	 1.0053583905958869e+03,	 3.4795005838245680e+02,	 4.9882405463791741e+00 
2.6725939999999998e-01,	 1.9560569999999999e-01,	 1.1627094278814658e-02,	 1.7356591264227159e+03,	 1.7059232494170358e+00,	 3.0058762180835561e+02,	 1.0054771924943259e+03,	 3.4794815081809838e+02,	 4.9882718465093863e+00 
2.7153980000000000e-01,	 1.9612589999999999e-01,	 1.1628228844413783e-02,	 1.7356634170320481e+03,	 1.7288927961314204e+00,	 3.0057988235997709e+02,	 1.0055494151377236e+03,	 3.4794367135206136e+02,	 4.9883484627312651e+00 
2.7582030000000002e-01,	 1.9664619999999999e-01,	 1.1629028768756787e-02,	 1.7356699040940366e+03,	 1.7416156353900976e+00,	 3.0056850381700588e+02,	 1.0055805204822445e+03,	 3.4793708553292100e+02,	 4.9884615640388779e+00 
2.8010069999999998e-01,	 1.9716639999999999e-01,	 1.1629441818809542e-02,	 1.7356780284215595e+03,	 1.7450342451812211e+00,	 3.0055425060091295e+02,	 1.0055685503899728e+03,	 3.4792883569769560e+02,	 4.9886032072083353e+00 
2.8438120000000000e-01,	 1.9768659999999999e-01,	 1.1629612970870371e-02,	 1.7356875029081657e+03,	 1.7401980112437547e+00,	 3.0053771084108837e+02,	 1.0055280113580411e+03,	 3.4791926215391754e+02,	 4.9887676943284847e+00 
2.8866160000000002e-01,	 1.9820689999999999e-01,	 1.1629554769198837e-02,	 1.7356981058971619e+03,	 1.7281897489791653e+00,	 3.0051939000214554e+02,	 1.0054616822011542e+03,	 3.4790865737840556e+02,	 4.9889502012766478e+00 
2.9294209999999998e-01,	 1.9872709999999999e-01,	 1.1629201474775308e-02,	 1.7357093659508960e+03,	 1.7096892442602920e+00,	 3.0049979549453127e+02,	 1.0053655810025266e+03,	 3.4789731499886386e+02,	 4.9891451676939669e+00 
2.9722250000000000e-01,	 1.9924729999999999e-01,	 1.1628681710981213e-02,	 1.7357212340066046e+03,	 1.6855953841765530e+00,	 3.0047929903084287e+02,	 1.0052520756564063e+03,	 3.4788545012177053e+02,	 4.9893493730692517e+00 
3.0150290000000002e-01,	 1.9976749999999999e-01,	 1.1627999445047070e-02,	 1.7357334004902827e+03,	 1.6566125114454460e+00,	 3.0045822928613882e+02,	 1.0051226119550739e+03,	 3.4787325296519151e+02,	 4.9895592036588639e+00 
3.0578339999999998e-01,	 2.0028779999999999e-01,	 1.1627194472854784e-02,	 1.7357458207958225e+03,	 1.6235220082879680e+00,	 3.0043684250454862e+02,	 1.0049814900476338e+03,	 3.4786087184037012e+02,	 4.9897724078296433e+00 
3.1006380000000000e-01,	 2.0080799999999999e-01,	 1.1626196166773902e-02,	 1.7357582035255577e+03,	 1.5867667927077294e+00,	 3.0041542814342455e+02,	 1.0048235764238141e+03,	 3.4784847430780820e+02,	 4.9899857467007003e+00 
3.1434430000000002e-01,	 2.0132819999999998e-01,	 1.1625143824798543e-02,	 1.7357705184398933e+03,	 1.5469568081260219e+00,	 3.0039415058765036e+02,	 1.0046614627863476e+03,	 3.4783615553906560e+02,	 4.9901977702422959e+00 
3.1862469999999998e-01,	 2.0184849999999999e-01,	 1.1624036613944188e-02,	 1.7357816962891720e+03,	 1.5050031409421654e+00,	 3.0037529623045498e+02,	 1.0045027240829622e+03,	 3.4782523933111042e+02,	 4.9903864138231837e+00 
3.2290520000000000e-01,	 2.0236869999999998e-01,	 1.1622795614336361e-02,	 1.7357936771305494e+03,	 1.4609881966282066e+00,	 3.0035456968082224e+02,	 1.0043261763876691e+03,	 3.4781323877456634e+02,	 4.9905929345605582e+00 
3.2718560000000002e-01,	 2.0288889999999998e-01,	 1.1621534059601903e-02,	 1.7358064578593448e+03,	 1.4147521191092594e+00,	 3.0033227155190036e+02,	 1.0041426129662253e+03,	 3.4780032782003201e+02,	 4.9908148312539611e+00 
3.3146609999999999e-01,	 2.0340909999999998e-01,	 1.1620266341233601e-02,	 1.7358175971130659e+03,	 1.3704612885693532e+00,	 3.0031294071087711e+02,	 1.0039684530735627e+03,	 3.4778913458229022e+02,	 4.9910073821038479e+00 
3.3574650000000000e-01,	 2.0392939999999998e-01,	 1.1619029997451680e-02,	 1.7358283651658539e+03,	 1.3221718401249127e+00,	 3.0029454418169485e+02,	 1.0038001409517507e+03,	 3.4777848200945215e+02,	 4.9911911130386262e+00 
3.4002700000000002e-01,	 2.0444959999999998e-01,	 1.1617648265272560e-02,	 1.7358387674216192e+03,	 1.2700189788489853e+00,	 3.0027655162341932e+02,	 1.0036206323809263e+03,	 3.4776806304171009e+02,	 4.9913704462716346e+00 
3.4430739999999999e-01,	 2.0496979999999998e-01,	 1.1616314877969148e-02,	 1.7358487879179902e+03,	 1.2205456503231971e+00,	 3.0025928837090123e+02,	 1.0034477515559767e+03,	 3.4775806610030946e+02,	 4.9915426448363114e+00 
3.4858790000000001e-01,	 2.0549009999999998e-01,	 1.1615017429880354e-02,	 1.7358584061717484e+03,	 1.1712289433527205e+00,	 3.0024279573713329e+02,	 1.0032805633927618e+03,	 3.4774851514650476e+02,	 4.9917072990800646e+00 
3.5286830000000002e-01,	 2.0601029999999998e-01,	 1.1613680673039809e-02,	 1.7358674694307624e+03,	 1.1218946462057695e+00,	 3.0022713135605250e+02,	 1.0031127596627643e+03,	 3.4773944359443107e+02,	 4.9918634884475619e+00 
3.5714869999999999e-01,	 2.0653049999999998e-01,	 1.1612383207026015e-02,	 1.7358761189550337e+03,	 1.0727995237067227e+00,	 3.0021229076764217e+02,	 1.0029511136169334e+03,	 3.4773084889862679e+02,	 4.9920116548669755e+00 
3.6142920000000001e-01,	 2.0705069999999998e-01,	 1.1611128938812497e-02,	 1.7358842397093576e+03,	 1.0240783465079297e+00,	 3.0019826316278699e+02,	 1.0027959251482916e+03,	 3.4772272483429703e+02,	 4.9921515558470348e+00 
3.6570960000000002e-01,	 2.0757099999999998e-01,	 1.1609939996745164e-02,	 1.7358919990840541e+03,	 9.7602036024314842e-01,	 3.0018501040920512e+02,	 1.0026489765199417e+03,	 3.4771504934943630e+02,	 4.9922839886274559e+00 
3.6999009999999999e-01,	 2.0809119999999998e-01,	 1.1608702568289433e-02,	 1.7358991733477606e+03,	 9.2848965137374440e-01,	 3.0017259576163013e+02,	 1.0025006488597504e+03,	 3.4770785910962229e+02,	 4.9924077819407877e+00 
3.7427050000000001e-01,	 2.0861140000000000e-01,	 1.1607570602981239e-02,	 1.7359059245799558e+03,	 8.8169638085092239e-01,	 3.0016096668086936e+02,	 1.0023640605540151e+03,	 3.4770112371472715e+02,	 4.9925238375661012e+00 
3.7855100000000003e-01,	 2.0913169999999998e-01,	 1.1606501491714903e-02,	 1.7359122842028517e+03,	 8.3579570516312973e-01,	 3.0015009284475116e+02,	 1.0022354291794101e+03,	 3.4769482562853409e+02,	 4.9926324968211073e+00 
3.8283139999999999e-01,	 2.0965190000000000e-01,	 1.1605419233556742e-02,	 1.7359181008533360e+03,	 7.9063131621533855e-01,	 3.0014001936974336e+02,	 1.0021083415329334e+03,	 3.4768899100677731e+02,	 4.9927329475545426e+00 
3.8711190000000001e-01,	 2.1017210000000000e-01,	 1.1604407882296542e-02,	 1.7359235075704269e+03,	 7.4628961199139632e-01,	 3.0013073000642657e+02,	 1.0019900004108955e+03,	 3.4768361046079644e+02,	 4.9928257063603176e+00 
3.9139230000000003e-01,	 2.1069230000000000e-01,	 1.1603475384740495e-02,	 1.7359284330072369e+03,	 7.0276406791526502e-01,	 3.0012220448133269e+02,	 1.0018810230351986e+03,	 3.4767867226870243e+02,	 4.9929107354542142e+00 
3.9567279999999999e-01,	 2.1121260000000000e-01,	 1.1602621175505102e-02,	 1.7359329822562954e+03,	 6.6013231354925694e-01,	 3.0011441802210697e+02,	 1.0017812767050523e+03,	 3.4767416210030422e+02,	 4.9929885421610845e+00 
3.9995320000000001e-01,	 2.1173280000000000e-01,	 1.1601756290446684e-02,	 1.7359369840664108e+03,	 6.1813096117471056e-01,	 3.0010743737208952e+02,	 1.0016833020541103e+03,	 3.4767011863285796e+02,	 4.9930580774223552e+00 
4.0423360000000003e-01,	 2.1225300000000000e-01,	 1.1601009556123648e-02,	 1.7359405499140626e+03,	 5.7679381268974250e-01,	 3.0010122724090968e+02,	 1.0015981032815836e+03,	 3.4766652144074487e+02,	 4.9931199545607656e+00 
4.0851409999999999e-01,	 2.1277330000000000e-01,	 1.1600353657594088e-02,	 1.7359437296659266e+03,	 5.3615146269494729e-01,	 3.0009576862816027e+02,	 1.0015232575951937e+03,	 3.4766335953175542e+02,	 4.9931744742959125e+00 
4.1279450000000001e-01,	 2.1329350000000000e-01,	 1.1599703877795922e-02,	 1.7359463481108091e+03,	 4.9590794464921106e-01,	 3.0009112728041396e+02,	 1.0014516695663606e+03,	 3.4766067100202895e+02,	 4.9932205847169566e+00 
4.1707499999999997e-01,	 2.1381370000000000e-01,	 1.1599147049895755e-02,	 1.7359485376257435e+03,	 4.5605010671835988e-01,	 3.0008730015180402e+02,	 1.0013908251284857e+03,	 3.4765845409819246e+02,	 4.9932586913010351e+00 
4.2135539999999999e-01,	 2.1433389999999999e-01,	 1.1598690451743738e-02,	 1.7359502206827924e+03,	 4.1648311742488398e-01,	 3.0008427615654136e+02,	 1.0013413149048035e+03,	 3.4765670240765735e+02,	 4.9932886626987241e+00 
4.2563590000000001e-01,	 2.1485420000000000e-01,	 1.1598333852604240e-02,	 1.7359515040019364e+03,	 3.7722955979088751e-01,	 3.0008203514997649e+02,	 1.0013030511794861e+03,	 3.4765540426831967e+02,	 4.9933109730948324e+00 
4.2991629999999997e-01,	 2.1537439999999999e-01,	 1.1597977493592969e-02,	 1.7359522163211395e+03,	 3.3797853581604420e-01,	 3.0008065381259689e+02,	 1.0012676770698860e+03,	 3.4765460410386203e+02,	 4.9933244914070718e+00 
4.3419679999999999e-01,	 2.1589459999999999e-01,	 1.1597757155411335e-02,	 1.7359524569989958e+03,	 2.9875126756141912e-01,	 3.0008001600639426e+02,	 1.0012465269001636e+03,	 3.4765423464255576e+02,	 4.9933304695421015e+00 
4.3847720000000001e-01,	 2.1641489999999999e-01,	 1.1597648960674367e-02,	 1.7359523299526027e+03,	 2.5965449195390705e-01,	 3.0008029958273153e+02,	 1.0012381325067096e+03,	 3.4765439890956117e+02,	 4.9933277266629963e+00 
4.4275769999999998e-01,	 2.1693509999999999e-01,	 1.1597542578077505e-02,	 1.7359516043404467e+03,	 2.2039557152219408e-01,	 3.0008133281323165e+02,	 1.0012323957885179e+03,	 3.4765499742739081e+02,	 4.9933170274466274e+00 
4.4703809999999999e-01,	 2.1745529999999999e-01,	 1.1597542969422163e-02,	 1.7359505248707637e+03,	 1.8113439004347498e-01,	 3.0008314601611551e+02,	 1.0012384793921270e+03,	 3.4765604775612297e+02,	 4.9932988237229603e+00 
4.5131850000000001e-01,	 2.1797549999999999e-01,	 1.1597633762444725e-02,	 1.7359489604998932e+03,	 1.4184911753234414e-01,	 3.0008569762241996e+02,	 1.0012548313258021e+03,	 3.4765752581227059e+02,	 4.9932730845950859e+00 
4.5559899999999998e-01,	 2.1849579999999999e-01,	 1.1597822853230570e-02,	 1.7359470975692989e+03,	 1.0272878345416450e-01,	 3.0008889938085838e+02,	 1.0012818390834191e+03,	 3.4765938046988458e+02,	 4.9932410805733518e+00 
4.5987939999999999e-01,	 2.1901599999999999e-01,	 1.1597993956222585e-02,	 1.7359447849279675e+03,	 6.3611631188497136e-02,	 3.0009277084867983e+02,	 1.0013095288186976e+03,	 3.4766162305160964e+02,	 4.9932022144295072e+00 
4.6415990000000001e-01,	 2.1953619999999999e-01,	 1.1598283556355766e-02,	 1.7359421313218045e+03,	 2.4851895599752129e-02,	 3.0009725291237180e+02,	 1.0013494868900090e+03,	 3.4766421930828568e+02,	 4.9931572911170843e+00 
4.6844029999999998e-01,	 2.2005649999999999e-01,	 1.1598659699492267e-02,	 1.7359392996382126e+03,	 -1.3162366193815372e-02,	 3.0010223679756655e+02,	 1.0013985921042517e+03,	 3.4766710622468452e+02,	 4.9931076843555022e+00 
4.7272080000000000e-01,	 2.2057669999999999e-01,	 1.1598989392834120e-02,	 1.7359361707692860e+03,	 -5.0874997195049843e-02,	 3.0010754284224970e+02,	 1.0014447630052302e+03,	 3.4767017972567891e+02,	 4.9930545463648386e+00 
4.7700120000000001e-01,	 2.2109689999999999e-01,	 1.1599381149653795e-02,	 1.7359330344026630e+03,	 -8.7889004580294888e-02,	 3.0011304800771643e+02,	 1.0014969579832159e+03,	 3.4767336853771559e+02,	 4.9929997339995476e+00 
4.8128169999999998e-01,	 2.2161709999999998e-01,	 1.1599804660837671e-02,	 1.7359297473946624e+03,	 -1.2386242305847382e-01,	 3.0011872266500302e+02,	 1.0015524615677092e+03,	 3.4767665549558211e+02,	 4.9929430819540581e+00 
4.8556210000000000e-01,	 2.2213739999999998e-01,	 1.1600275032475975e-02,	 1.7359265724785600e+03,	 -1.5831983149987516e-01,	 3.0012441986465041e+02,	 1.0016120878766084e+03,	 3.4767995547950380e+02,	 4.9928865680622518e+00 
4.8984260000000002e-01,	 2.2265759999999998e-01,	 1.1600643310654109e-02,	 1.7359233006450263e+03,	 -1.9135073882250839e-01,	 3.0013012502547866e+02,	 1.0016629269903691e+03,	 3.4768326004338633e+02,	 4.9928297122349141e+00 
4.9412299999999998e-01,	 2.2317779999999998e-01,	 1.1601073669815980e-02,	 1.7359201976851964e+03,	 -2.2248903120768812e-01,	 3.0013564775624349e+02,	 1.0017185189563598e+03,	 3.4768645890955031e+02,	 4.9927748621201076e+00 
4.9840350000000000e-01,	 2.2369809999999998e-01,	 1.1601496484451669e-02,	 1.7359173595081431e+03,	 -2.5135613262790713e-01,	 3.0014084590698963e+02,	 1.0017723774879435e+03,	 3.4768946974617359e+02,	 4.9927234752702514e+00 
5.0268389999999996e-01,	 2.2421829999999998e-01,	 1.1601816095387808e-02,	 1.7359146574325980e+03,	 -2.7797342180466722e-01,	 3.0014567807245055e+02,	 1.0018161040668676e+03,	 3.4769226857596897e+02,	 4.9926755253959989e+00 
5.0696430000000003e-01,	 2.2473849999999998e-01,	 1.1602111426031587e-02,	 1.7359123319496418e+03,	 -3.0198281700681051e-01,	 3.0015001948952454e+02,	 1.0018560968538427e+03,	 3.4769478314106715e+02,	 4.9926327410903824e+00 
5.1124480000000005e-01,	 2.2525869999999998e-01,	 1.1602370303536308e-02,	 1.7359103031861400e+03,	 -3.2323329401142731e-01,	 3.0015375446249482e+02,	 1.0018909182958498e+03,	 3.4769694643690707e+02,	 4.9925958541450388e+00 
5.1552520000000002e-01,	 2.2577899999999998e-01,	 1.1602604759388249e-02,	 1.7359088203996776e+03,	 -3.4134467499924803e-01,	 3.0015675105651263e+02,	 1.0019211666991466e+03,	 3.4769868205402622e+02,	 4.9925666778642555e+00 
5.1980570000000004e-01,	 2.2629919999999998e-01,	 1.1602664982968726e-02,	 1.7359076337865004e+03,	 -3.5655924785492926e-01,	 3.0015905061426884e+02,	 1.0019340431412414e+03,	 3.4770001394422519e+02,	 4.9925441495207572e+00 
5.2408610000000000e-01,	 2.2681939999999998e-01,	 1.1602734582528123e-02,	 1.7359069686800849e+03,	 -3.6856958734106526e-01,	 3.0016051675217545e+02,	 1.0019449473396529e+03,	 3.4770086311993225e+02,	 4.9925300507777557e+00 
5.2836660000000002e-01,	 2.2733969999999998e-01,	 1.1602732693409799e-02,	 1.7359069026659804e+03,	 -3.7722234042604791e-01,	 3.0016108209428978e+02,	 1.0019466713352273e+03,	 3.4770119056114714e+02,	 4.9925251646412470e+00 
5.3264699999999998e-01,	 2.2785989999999998e-01,	 1.1602581404323260e-02,	 1.7359072200512821e+03,	 -3.8281460886428731e-01,	 3.0016080993001162e+02,	 1.0019326983808239e+03,	 3.4770103292601283e+02,	 4.9925283444043291e+00 
5.3692750000000000e-01,	 2.2838010000000000e-01,	 1.1613647753369719e-02,	 1.7358644490837191e+03,	 -3.7191895045100754e-01,	 3.0019485801339204e+02,	 1.0030020855521415e+03,	 3.4772075271898348e+02,	 4.9921221996475875e+00 
5.4120789999999996e-01,	 2.2890030000000000e-01,	 1.1634435998682717e-02,	 1.7358733947215906e+03,	 -5.4236105101482179e-01,	 3.0025617072916737e+02,	 1.0050026662824272e+03,	 3.4775626068093283e+02,	 4.9916383275199889e+00 
2.1455240000000000e-01,	 1.9405780000000000e-01,	 1.1582098533358004e-02,	 1.7359866148676301e+03,	 1.9227643813896175e-01,	 3.0000986352794791e+02,	 9.9966094702716271e+02,	 3.4761359509565602e+02,	 4.9940124609859184e+00 
2.1884200000000001e-01,	 1.9455639999999999e-01,	 1.1584066071991224e-02,	 1.7359686147780435e+03,	 2.6298582790107072e-01,	 3.0004484859714898e+02,	 9.9994736031771595e+02,	 3.4763386264788937e+02,	 4.9936695507034869e+00 
2.2313150000000001e-01,	 1.9505499999999998e-01,	 1.1587104310677259e-02,	 1.7359390546791969e+03,	 3.7202343587471770e-01,	 3.0009543578900502e+02,	 1.0003782580181123e+03,	 3.4766316673328390e+02,	 4.9931636729136679e+00 
2.2742100000000001e-01,	 1.9555349999999999e-01,	 1.1590316147299407e-02,	 1.7359107542552119e+03,	 4.8533641670409677e-01,	 3.0014453046949393e+02,	 1.0008192576253396e+03,	 3.4769160387698116e+02,	 4.9926739752854301e+00 
2.3171050000000001e-01,	 1.9605209999999998e-01,	 1.1593526913960879e-02,	 1.7358842689456633e+03,	 5.9889615596029111e-01,	 3.0019081036457430e+02,	 1.0012508671730217e+03,	 3.4771840848123190e+02,	 4.9922130376704397e+00 
2.3599999999999999e-01,	 1.9655059999999999e-01,	 1.1596670387405968e-02,	 1.7358601406871592e+03,	 7.0934119690530639e-01,	 3.0023321234787477e+02,	 1.0016638118627806e+03,	 3.4774296524484907e+02,	 4.9917912340724699e+00 
2.4028949999999999e-01,	 1.9704919999999998e-01,	 1.1599685962502441e-02,	 1.7358386107383139e+03,	 8.1426479063346724e-01,	 3.0027109543461637e+02,	 1.0020507041990132e+03,	 3.4776490345961651e+02,	 4.9914145575120399e+00 
2.4457899999999999e-01,	 1.9754769999999999e-01,	 1.1602558147821842e-02,	 1.7358197726104740e+03,	 9.1266277663447171e-01,	 3.0030443264137460e+02,	 1.0024100997770109e+03,	 3.4778420799624263e+02,	 4.9910834725423667e+00 
2.4886849999999999e-01,	 1.9804629999999998e-01,	 1.1605222967137400e-02,	 1.7358035822168144e+03,	 1.0035096414754303e+00,	 3.0033322504785565e+02,	 1.0027364590119088e+03,	 3.4780087991844772e+02,	 4.9907978171311278e+00 
2.5315799999999999e-01,	 1.9854479999999999e-01,	 1.1607677526633940e-02,	 1.7357898966962862e+03,	 1.0861817880391194e+00,	 3.0035753713027179e+02,	 1.0030297315559634e+03,	 3.4781495693663021e+02,	 4.9905566219084516e+00 
2.5744760000000000e-01,	 1.9904339999999998e-01,	 1.1609930212959833e-02,	 1.7357787068623795e+03,	 1.1604725127534221e+00,	 3.0037758158805531e+02,	 1.0032913386888384e+03,	 3.4782656251506114e+02,	 4.9903580745361493e+00 
2.6173710000000000e-01,	 1.9954189999999999e-01,	 1.1611940699327359e-02,	 1.7357699459376406e+03,	 1.2262720838911099e+00,	 3.0039366822260337e+02,	 1.0035188184786705e+03,	 3.4783587626586649e+02,	 4.9901993944236782e+00 
2.6602660000000000e-01,	 2.0004049999999998e-01,	 1.1613726880197465e-02,	 1.7357629004994374e+03,	 1.2837105960711523e+00,	 3.0040612378262040e+02,	 1.0037147989502465e+03,	 3.4784308754589904e+02,	 4.9900758052708341e+00 
2.7031610000000000e-01,	 2.0053900000000000e-01,	 1.1615291316006974e-02,	 1.7357578767097718e+03,	 1.3330289703383214e+00,	 3.0041526025245156e+02,	 1.0038805359267197e+03,	 3.4784837710802833e+02,	 4.9899855880053714e+00 
2.7460560000000001e-01,	 2.0103759999999998e-01,	 1.1616658004902757e-02,	 1.7357546142196391e+03,	 1.3745485756949734e+00,	 3.0042138868322752e+02,	 1.0040191368619797e+03,	 3.4785192511991369e+02,	 4.9899254054019746e+00 
2.7889510000000001e-01,	 2.0153610000000000e-01,	 1.1617798342671667e-02,	 1.7357529028462163e+03,	 1.4084968561597764e+00,	 3.0042483343762956e+02,	 1.0041292090335148e+03,	 3.4785391942035386e+02,	 4.9898919558217472e+00 
2.8318460000000001e-01,	 2.0203469999999998e-01,	 1.1618737176886794e-02,	 1.7357524568689184e+03,	 1.4352841472175857e+00,	 3.0042588229016104e+02,	 1.0042138586393849e+03,	 3.4785452663904039e+02,	 4.9898820264145680e+00 
2.8747410000000001e-01,	 2.0253320000000000e-01,	 1.1619512609455773e-02,	 1.7357532953455984e+03,	 1.4553802406172849e+00,	 3.0042479462189675e+02,	 1.0042772437838616e+03,	 3.4785389694850113e+02,	 4.9898935177090493e+00 
2.9176360000000001e-01,	 2.0303179999999998e-01,	 1.1620087309469701e-02,	 1.7357551848515493e+03,	 1.4690425068333437e+00,	 3.0042184000549383e+02,	 1.0043170378932422e+03,	 3.4785218640833409e+02,	 4.9899235201875811e+00 
2.9605310000000001e-01,	 2.0353030000000000e-01,	 1.1620501684132367e-02,	 1.7357579990463294e+03,	 1.4767338935912726e+00,	 3.0041725137258055e+02,	 1.0043375115907294e+03,	 3.4784952985698868e+02,	 4.9899697376092105e+00 
3.0034270000000002e-01,	 2.0402889999999999e-01,	 1.1620758847634617e-02,	 1.7357615589053219e+03,	 1.4788627000007972e+00,	 3.0041124935503484e+02,	 1.0043396716948128e+03,	 3.4784605500759170e+02,	 4.9900298247171895e+00 
3.0463220000000002e-01,	 2.0452740000000000e-01,	 1.1620891722869477e-02,	 1.7357658610429407e+03,	 1.4758856283495376e+00,	 3.0040402512833344e+02,	 1.0043270031893386e+03,	 3.4784187251796840e+02,	 4.9901021861897830e+00 
3.0892170000000002e-01,	 2.0502599999999999e-01,	 1.1620874511713297e-02,	 1.7357707700006179e+03,	 1.4680648976590609e+00,	 3.0039577690775707e+02,	 1.0042979398710322e+03,	 3.4783709712226027e+02,	 4.9901847881794454e+00 
3.1321120000000002e-01,	 2.0552460000000000e-01,	 1.1620734129677665e-02,	 1.7357761062096665e+03,	 1.4558489984973522e+00,	 3.0038667321732385e+02,	 1.0042553722521194e+03,	 3.4783182636699564e+02,	 4.9902757170670640e+00 
3.1750070000000002e-01,	 2.0602309999999999e-01,	 1.1620511420394259e-02,	 1.7357825557896986e+03,	 1.4397439795111429e+00,	 3.0037559033669856e+02,	 1.0041990742041548e+03,	 3.4782540961400457e+02,	 4.9903862826276173e+00 
3.2179020000000003e-01,	 2.0652170000000000e-01,	 1.1620168351471311e-02,	 1.7357886569863167e+03,	 1.4200878080126924e+00,	 3.0036495039784052e+02,	 1.0041338577263319e+03,	 3.4781924920353163e+02,	 4.9904921647203375e+00 
3.2607969999999997e-01,	 2.0702019999999999e-01,	 1.1619743955968261e-02,	 1.7357943878993206e+03,	 1.3967912649789698e+00,	 3.0035531690958783e+02,	 1.0040649804100594e+03,	 3.4781367142304526e+02,	 4.9905886183121098e+00 
3.3036919999999997e-01,	 2.0751879999999998e-01,	 1.1619238870307941e-02,	 1.7358007455483762e+03,	 1.3687017726470145e+00,	 3.0034430676893425e+02,	 1.0039845313689406e+03,	 3.4780729645259697e+02,	 4.9906983058492651e+00 
3.3465869999999998e-01,	 2.0801729999999999e-01,	 1.1618689088826840e-02,	 1.7358073525986688e+03,	 1.3395905231700707e+00,	 3.0033300396067722e+02,	 1.0038992453569675e+03,	 3.4780075190342484e+02,	 4.9908111469172969e+00 
3.3894829999999998e-01,	 2.0851589999999998e-01,	 1.1618051869349898e-02,	 1.7358140820284545e+03,	 1.3103703581847070e+00,	 3.0032148435785723e+02,	 1.0038056836048260e+03,	 3.4779408169920316e+02,	 4.9909261484517051e+00 
3.4323779999999998e-01,	 2.0901439999999999e-01,	 1.1617367691491600e-02,	 1.7358207648275311e+03,	 1.2774907413639560e+00,	 3.0030989106368781e+02,	 1.0037078227093386e+03,	 3.4778736869626664e+02,	 4.9910416281766059e+00 
3.4752729999999998e-01,	 2.0951299999999998e-01,	 1.1616657415305829e-02,	 1.7358275102228654e+03,	 1.2427772569346338e+00,	 3.0029829106066398e+02,	 1.0036076892216309e+03,	 3.4778065167893277e+02,	 4.9911573479729654e+00 
3.5181679999999999e-01,	 2.1001149999999999e-01,	 1.1615892205812512e-02,	 1.7358342024524188e+03,	 1.2064828111132810e+00,	 3.0028676398632223e+02,	 1.0035030584725977e+03,	 3.4777397676266224e+02,	 4.9912723139629369e+00 
3.5610629999999999e-01,	 2.1051009999999998e-01,	 1.1615101710332740e-02,	 1.7358408289113745e+03,	 1.1689004107942189e+00,	 3.0027536355079502e+02,	 1.0033966715877699e+03,	 3.4776737505238532e+02,	 4.9913860442303957e+00 
3.6039579999999999e-01,	 2.1100859999999999e-01,	 1.1614284029502566e-02,	 1.7358472650316717e+03,	 1.1302640243950390e+00,	 3.0026414583185709e+02,	 1.0032885520305343e+03,	 3.4776087902643997e+02,	 4.9914977149417927e+00 
3.6468529999999999e-01,	 2.1150719999999998e-01,	 1.1613477542083273e-02,	 1.7358536501871865e+03,	 1.0908537909428768e+00,	 3.0025314266970850e+02,	 1.0031821215069796e+03,	 3.4775450712947884e+02,	 4.9916074626193980e+00 
3.6897479999999999e-01,	 2.1200569999999999e-01,	 1.1612635578657065e-02,	 1.7358598827846613e+03,	 1.0506619660301442e+00,	 3.0024241752434102e+02,	 1.0030735605742431e+03,	 3.4774829611880421e+02,	 4.9917144674034315e+00 
3.7326429999999999e-01,	 2.1250429999999998e-01,	 1.1611794403126638e-02,	 1.7358658429950231e+03,	 1.0099408542984922e+00,	 3.0023200879577155e+02,	 1.0029661299252371e+03,	 3.4774226824135405e+02,	 4.9918180656315867e+00 
3.7755379999999999e-01,	 2.1300279999999999e-01,	 1.1610978339208553e-02,	 1.7358716669755956e+03,	 9.6887074308065435e-01,	 3.0022194411772506e+02,	 1.0028620225158410e+03,	 3.4773643951023467e+02,	 4.9919184190370256e+00 
3.8184340000000000e-01,	 2.1350139999999998e-01,	 1.1610153003251489e-02,	 1.7358772614998516e+03,	 9.2741317609528306e-01,	 3.0021228057477259e+02,	 1.0027584588730298e+03,	 3.4773084299551203e+02,	 4.9920147844435681e+00 
3.8613290000000000e-01,	 2.1399989999999999e-01,	 1.1609344015564863e-02,	 1.7358825859713602e+03,	 8.8567915633742389e-01,	 3.0020305488435122e+02,	 1.0026577741569155e+03,	 3.4772549997332118e+02,	 4.9921067395097856e+00 
3.9042240000000000e-01,	 2.1449849999999998e-01,	 1.1608557354677633e-02,	 1.7358875640929614e+03,	 8.4376042891149461e-01,	 3.0019430838957567e+02,	 1.0025606223346189e+03,	 3.4772043439958276e+02,	 4.9921937206626108e+00 
3.9471190000000000e-01,	 2.1499699999999999e-01,	 1.1607818598397421e-02,	 1.7358923072114540e+03,	 8.0173563045334306e-01,	 3.0018606816405975e+02,	 1.0024693022635165e+03,	 3.4771566196656363e+02,	 4.9922758225436148e+00 
3.9900140000000001e-01,	 2.1549559999999998e-01,	 1.1607092502160420e-02,	 1.7358967387352729e+03,	 7.5946465316111988e-01,	 3.0017839297240073e+02,	 1.0023809658147718e+03,	 3.4771121672127970e+02,	 4.9923523354778006e+00 
4.0329090000000001e-01,	 2.1599420000000000e-01,	 1.1606405463032404e-02,	 1.7359007294983492e+03,	 7.1702545176863597e-01,	 3.0017131739328119e+02,	 1.0022980075910895e+03,	 3.4770711870360043e+02,	 4.9924225999646081e+00 
4.0758040000000001e-01,	 2.1649269999999998e-01,	 1.1605786709818133e-02,	 1.7359044187806248e+03,	 6.7447457232494767e-01,	 3.0016486595797608e+02,	 1.0022230329727180e+03,	 3.4770338213400726e+02,	 4.9924868120580541e+00 
4.1186990000000001e-01,	 2.1699130000000000e-01,	 1.1605198599687262e-02,	 1.7359077188987219e+03,	 6.3163876952922116e-01,	 3.0015909287397449e+02,	 1.0021529716300291e+03,	 3.4770003842074800e+02,	 4.9925442680401089e+00 
4.1615940000000001e-01,	 2.1748979999999998e-01,	 1.1604665987541510e-02,	 1.7359105974463675e+03,	 5.8852565626611231e-01,	 3.0015402827191900e+02,	 1.0020900699384860e+03,	 3.4769710502675906e+02,	 4.9925946236356351e+00 
4.2044900000000002e-01,	 2.1798840000000000e-01,	 1.1604193605814727e-02,	 1.7359129829086714e+03,	 5.4515443180987755e-01,	 3.0014970230784786e+02,	 1.0020348366550591e+03,	 3.4769459942886283e+02,	 4.9926374219260392e+00 
4.2473850000000002e-01,	 2.1848689999999998e-01,	 1.1603805582642521e-02,	 1.7359149985023448e+03,	 5.0156191824473262e-01,	 3.0014612299433281e+02,	 1.0019893814684553e+03,	 3.4769252627723296e+02,	 4.9926729502863401e+00 
4.2902800000000002e-01,	 2.1898550000000000e-01,	 1.1603461307797391e-02,	 1.7359165926719477e+03,	 4.5756774986225113e-01,	 3.0014332500418607e+02,	 1.0019503129514311e+03,	 3.4769090566238020e+02,	 4.9927007715939302e+00 
4.3331750000000002e-01,	 2.1948399999999998e-01,	 1.1603181276703609e-02,	 1.7359176216495935e+03,	 4.1326695146978820e-01,	 3.0014127936267801e+02,	 1.0019193037967816e+03,	 3.4768972080817679e+02,	 4.9927207131906908e+00 
4.3760700000000002e-01,	 2.1998260000000000e-01,	 1.1602999803490541e-02,	 1.7359182946855651e+03,	 3.6879543607388215e-01,	 3.0014007230084678e+02,	 1.0018996045244203e+03,	 3.4768902166507002e+02,	 4.9927326596266033e+00 
4.4189650000000003e-01,	 2.2048109999999999e-01,	 1.1602860581614440e-02,	 1.7359185159182230e+03,	 3.2402041323347724e-01,	 3.0013959648726154e+02,	 1.0018859946510496e+03,	 3.4768874606837238e+02,	 4.9927372277304300e+00 
4.4618600000000003e-01,	 2.2097970000000000e-01,	 1.1602789882889479e-02,	 1.7359183189577850e+03,	 2.7911069863437266e-01,	 3.0013986135134280e+02,	 1.0018807740727922e+03,	 3.4768889948071961e+02,	 4.9927344358387833e+00 
4.5047549999999997e-01,	 2.2147819999999999e-01,	 1.1602781569350025e-02,	 1.7359176544480936e+03,	 2.3418870827237537e-01,	 3.0014083078761740e+02,	 1.0018832922340021e+03,	 3.4768946098887409e+02,	 4.9927244424028583e+00 