TITLE = "Final State"
VARIABLES = "X", "Y", "rho", "u", "v", "T", "p", "c", "M"
ZONE I=30, J=50, DATAPACKING=POINT, STRANDID=31000, SOLUTIONTIME=0.001116
-5.0000000000000003e-02,	 1.0000000000000000e-04,	 4.0569976978592965e+00,	 1.7559891630107285e+02,	 7.8025697757858337e-03,	 3.0843129142237294e+03,	 3.5999223321882412e+06,	 1.1145721901722593e+03,	 1.5754826652124126e-01 
-4.8275859999999997e-02,	 1.0000000000000000e-04,	 4.0602857682161169e+00,	 1.7652126349988816e+02,	 -1.2014327386683149e-02,	 3.0845730997478086e+03,	 3.6031438844575631e+06,	 1.1146192005505686e+03,	 1.5836912177858817e-01 
-4.6551719999999998e-02,	 1.0000000000000000e-04,	 4.0607311195204225e+00,	 1.8159910242930619e+02,	 -4.1418056257173000e-02,	 3.0837010085361326e+03,	 3.6025202775215576e+06,	 1.1144616231008631e+03,	 1.6294783363398432e-01 
-4.4827590000000000e-02,	 1.0000000000000000e-04,	 4.0575163191099932e+00,	 1.8924381975362513e+02,	 -6.0550325494293650e-02,	 3.0822993515172229e+03,	 3.5980320502109355e+06,	 1.1142083121443666e+03,	 1.6984600399922842e-01 
-4.3103450000000001e-02,	 1.0000000000000000e-04,	 4.0513991460276273e+00,	 1.9721998254440035e+02,	 -4.8053520404537114e-02,	 3.0807174429095076e+03,	 3.5907637917558355e+06,	 1.1139223564785430e+03,	 1.7705003158577468e-01 
-4.1379310000000002e-02,	 1.0000000000000000e-04,	 4.0448198542345715e+00,	 2.0376796126995433e+02,	 -4.0318993700270381e-02,	 3.0793702073213021e+03,	 3.5833648162147459e+06,	 1.1136787638779210e+03,	 1.8296834946310769e-01 
-3.9655169999999997e-02,	 1.0000000000000000e-04,	 4.0392623163553303e+00,	 2.0818435738465965e+02,	 -2.0318036291919563e-02,	 3.0784323253175853e+03,	 3.5773514286678038e+06,	 1.1135091547138738e+03,	 1.8696241292209018e-01 
-3.7931029999999998e-02,	 1.0000000000000000e-04,	 4.0354411133000454e+00,	 2.1053191764542115e+02,	 -1.1553573248828962e-02,	 3.0779278510961067e+03,	 3.5733815209017452e+06,	 1.1134179135203171e+03,	 1.8908616019729416e-01 
-3.6206900000000000e-02,	 1.0000000000000000e-04,	 4.0333964681044758e+00,	 2.1126730569496010e+02,	 -3.4885121815125177e-03,	 3.0777715896480754e+03,	 3.5713896654677182e+06,	 1.1133896499429804e+03,	 1.8975145469924329e-01 
-3.4482760000000001e-02,	 1.0000000000000000e-04,	 4.0327071426526997e+00,	 2.1112751963182239e+02,	 3.7022796629444903e-03,	 3.0778256703839170e+03,	 3.5708420426081233e+06,	 1.1133994318038642e+03,	 1.8962423873544390e-01 
-3.2758620000000002e-02,	 1.0000000000000000e-04,	 4.0328525938665836e+00,	 2.1037310193916107e+02,	 1.0523842734232460e-02,	 3.0779928926358366e+03,	 3.5711648507920504e+06,	 1.1134296776090785e+03,	 1.8894152583945065e-01 
-3.1034480000000000e-02,	 1.0000000000000000e-04,	 4.0335699371008129e+00,	 2.0936431933081721e+02,	 8.2357530338033769e-03,	 3.0782425876259354e+03,	 3.5720898253122079e+06,	 1.1134748388852520e+03,	 1.8802788548181798e-01 
-2.9310340000000001e-02,	 1.0000000000000000e-04,	 4.0344588991496817e+00,	 2.0840041438038912e+02,	 7.5473381797357287e-03,	 3.0784916467776434e+03,	 3.5731661611453732e+06,	 1.1135198833354009e+03,	 1.8715464145356697e-01 
-2.7586210000000000e-02,	 1.0000000000000000e-04,	 4.0353489390656909e+00,	 2.0755706321499946e+02,	 6.3218271641449289e-03,	 3.0787247776030167e+03,	 3.5742250871898662e+06,	 1.1135620453622496e+03,	 1.8639020984569890e-01 
-2.5862070000000001e-02,	 1.0000000000000000e-04,	 4.0362035371259131e+00,	 2.0689649882827052e+02,	 6.2898736277551227e-03,	 3.0789182047996451e+03,	 3.5752066349466606e+06,	 1.1135970257221782e+03,	 1.8579117413653795e-01 
-2.4137929999999998e-02,	 1.0000000000000000e-04,	 4.0370048762679849e+00,	 2.0650224354500540e+02,	 7.5462730634374654e-03,	 3.0790594648608849e+03,	 3.5760805109850946e+06,	 1.1136225712172723e+03,	 1.8543288275592867e-01 
-2.2413789999999999e-02,	 1.0000000000000000e-04,	 4.0377216512122303e+00,	 2.0651332368826789e+02,	 3.0184015797637530e-03,	 3.0791283508090091e+03,	 3.5767954679749617e+06,	 1.1136350283520705e+03,	 1.8544075792579878e-01 
-2.0689659999999999e-02,	 1.0000000000000000e-04,	 4.0383876141981085e+00,	 2.0709321547613627e+02,	 -3.5961117513655001e-03,	 3.0790863430328036e+03,	 3.5773366025726162e+06,	 1.1136274318043997e+03,	 1.8596274624073136e-01 
-1.8965520000000000e-02,	 1.0000000000000000e-04,	 4.0391758217676603e+00,	 2.0866535132060872e+02,	 -1.5571916064109258e-02,	 3.0788530310414408e+03,	 3.5777637038915888e+06,	 1.1135852394903684e+03,	 1.8738157125460939e-01 
-1.7241380000000001e-02,	 1.0000000000000000e-04,	 4.0390011750909700e+00,	 2.1196343007746918e+02,	 -2.5118412952781929e-02,	 3.0782971852971223e+03,	 3.5769631183760199e+06,	 1.1134847134909455e+03,	 1.9036043243130074e-01 
-1.5517240000000000e-02,	 1.0000000000000000e-04,	 4.0381610622345612e+00,	 2.1706299310381200e+02,	 -1.8765296716714591e-02,	 3.0772775025243645e+03,	 3.5750344906079983e+06,	 1.1133002778837870e+03,	 1.9497254983853421e-01 
-1.3793100000000001e-02,	 1.0000000000000000e-04,	 4.0363425546942882e+00,	 2.2523858246980228e+02,	 -3.6528359002782784e-02,	 3.0755710377514833e+03,	 3.5714429463887443e+06,	 1.1129915518823393e+03,	 2.0237223279088329e-01 
-1.2068970000000000e-02,	 1.0000000000000000e-04,	 4.0321806390384225e+00,	 2.3865784652522521e+02,	 -1.4571841172069622e-01,	 3.0726281124355983e+03,	 3.5643465065240324e+06,	 1.1124589296643082e+03,	 2.1453186688268649e-01 
-1.0344829999999999e-02,	 1.0000000000000000e-04,	 4.0231726463222977e+00,	 2.5985852888638391e+02,	 -2.8593858791440779e-01,	 3.0676613549067974e+03,	 3.5506349415724329e+06,	 1.1115594474913164e+03,	 2.3377848732325235e-01 
-8.6206900000000003e-03,	 1.0000000000000000e-04,	 4.0049535363423825e+00,	 2.9140307376591556e+02,	 -4.1597678336242350e-01,	 3.0595143907276974e+03,	 3.5251688164978074e+06,	 1.1100824501184773e+03,	 2.6250606037173557e-01 
-6.8965520000000002e-03,	 1.0000000000000000e-04,	 3.9706888464003560e+00,	 3.3587458940758233e+02,	 -5.8491641521306248e-01,	 3.0464333982734788e+03,	 3.4800660068607973e+06,	 1.1077068223676233e+03,	 3.0321660202224515e-01 
-5.1724140000000002e-03,	 1.0000000000000000e-04,	 3.9103323517798847e+00,	 3.9632415128989840e+02,	 -7.7121324971725280e-01,	 3.0256210116199618e+03,	 3.4037537750906302e+06,	 1.1039165651369894e+03,	 3.5901707988035947e-01 
-3.4482760000000001e-03,	 1.0000000000000000e-04,	 3.8077075575930346e+00,	 4.7647451799083694e+02,	 -9.8317822108066899e-01,	 2.9925222277460216e+03,	 3.2781657490503937e+06,	 1.0978618124615455e+03,	 4.3400319325049352e-01 
-1.7241380000000001e-03,	 1.0000000000000000e-04,	 3.6359742414485874e+00,	 5.8102817271007063e+02,	 -1.1547676388748962e+00,	 2.9391887490571680e+03,	 3.0745262960009570e+06,	 1.0880346463254334e+03,	 5.3401729641226825e-01 
0.0000000000000000e+00,	 1.0000000000000000e-04,	 3.5135360278457526e+00,	 6.6645636393445716e+02,	 -6.3136128161727401e-01,	 2.8814732228855141e+03,	 2.9126542665658491e+06,	 1.0772990593124928e+03,	 6.1863663318971707e-01 
-5.0000000000000003e-02,	 4.0612240000000000e-04,	 4.0569858909906351e+00,	 1.7559244260233345e+02,	 -1.3606609379356138e-01,	 3.0843055897831287e+03,	 3.5999033066682392e+06,	 1.1145708667620095e+03,	 1.5754269249030836e-01 
-4.8274079999999997e-02,	 4.0247640000000000e-04,	 4.0602965909721380e+00,	 1.7652228482142698e+02,	 -3.4528334985850834e-01,	 3.0845854169537060e+03,	 3.6031678766770307e+06,	 1.1146214259769147e+03,	 1.5837002447637344e-01 
-4.6548369999999999e-02,	 3.9874269999999997e-04,	 4.0607475697926905e+00,	 1.8160682135633081e+02,	 -6.8867116799250383e-01,	 3.0837366451770085e+03,	 3.6025765040726434e+06,	 1.1144680626930576e+03,	 1.6295498559882027e-01 
-4.4822200000000000e-02,	 3.9495010000000001e-04,	 4.0575127919312672e+00,	 1.8925555221043422e+02,	 -8.4432763490235152e-01,	 3.0823187563483029e+03,	 3.5980515741022490e+06,	 1.1142118194270133e+03,	 1.6985768083301417e-01 
-4.3095000000000001e-02,	 3.9112169999999999e-04,	 4.0514117771868685e+00,	 1.9722950089410870e+02,	 -7.5133830547312719e-01,	 3.0807186309511681e+03,	 3.5907763715187074e+06,	 1.1139225712639077e+03,	 1.7705982181734845e-01 
-4.1366370000000000e-02,	 3.8725680000000000e-04,	 4.0447552484133755e+00,	 2.0377415282740236e+02,	 -5.6412992102797854e-01,	 3.0793644192075158e+03,	 3.5833008456411781e+06,	 1.1136777172187014e+03,	 1.8297477856125619e-01 
-3.9636970000000001e-02,	 3.8335239999999997e-04,	 4.0391566599618880e+00,	 2.0818571783386520e+02,	 -3.3894946357658107e-01,	 3.0784257285606982e+03,	 3.5772501889510178e+06,	 1.1135079616466983e+03,	 1.8696408191773423e-01 
-3.7906660000000002e-02,	 3.7940279999999999e-04,	 4.0353756366548907e+00,	 2.1052922835792569e+02,	 -1.5477187969028178e-01,	 3.0779222509526471e+03,	 3.5733170398658002e+06,	 1.1134169006143647e+03,	 1.8908396767869198e-01 
-3.6176479999999997e-02,	 3.7541359999999999e-04,	 4.0333625783766305e+00,	 2.1126722011480331e+02,	 -3.4266280578224971e-02,	 3.0777697580466092e+03,	 3.5713575323116798e+06,	 1.1133893186502969e+03,	 1.8975143676589637e-01 
-3.4446430000000000e-02,	 3.7138809999999998e-04,	 4.0327096189197444e+00,	 2.1111825307348317e+02,	 3.5675962805417585e-02,	 3.0778293236367308e+03,	 3.5708484737144508e+06,	 1.1134000925833941e+03,	 1.8961580611871004e-01 
-3.2716540000000002e-02,	 3.6732049999999998e-04,	 4.0328690228493773e+00,	 2.1036600914645945e+02,	 8.1909551289435292e-02,	 3.0779983899359841e+03,	 3.5711857770893038e+06,	 1.1134306719022122e+03,	 1.8893500098528501e-01 
-3.0986900000000001e-02,	 3.6320839999999998e-04,	 4.0335884200116752e+00,	 2.0935730222932742e+02,	 7.9604859890893442e-02,	 3.0782474669590988e+03,	 3.5721118557542055e+06,	 1.1134757213713460e+03,	 1.8802144792680320e-01 
-2.9257410000000001e-02,	 3.5905399999999998e-04,	 4.0344773518757941e+00,	 2.0839366587120080e+02,	 6.7653883170068069e-02,	 3.0784939917830802e+03,	 3.5731852258506166e+06,	 1.1135203074407716e+03,	 1.8714851939421834e-01 
-2.7528250000000001e-02,	 3.5485610000000000e-04,	 4.0353664517994492e+00,	 2.0755057087535215e+02,	 5.0088414942864784e-02,	 3.0787229131452364e+03,	 3.5742384341846113e+06,	 1.1135617081788564e+03,	 1.8638444137840543e-01 
-2.5799249999999999e-02,	 3.5061439999999999e-04,	 4.0362233365075983e+00,	 2.0688971289800156e+02,	 3.2005441088299939e-02,	 3.0789149230256226e+03,	 3.5752203621532544e+06,	 1.1135964322386035e+03,	 1.8578518158296567e-01 
-2.4070510000000000e-02,	 3.4629929999999999e-04,	 4.0370289596211730e+00,	 2.0650032903485976e+02,	 3.6270163385890269e-03,	 3.0790584371643154e+03,	 3.5761006510311831e+06,	 1.1136223853705542e+03,	 1.8543119443311146e-01 
-2.2341810000000000e-02,	 3.4231069999999999e-04,	 4.0377410406169165e+00,	 2.0650660968155861e+02,	 -3.7773190569553056e-02,	 3.0791285486441757e+03,	 3.5768128737933999e+06,	 1.1136350641278070e+03,	 1.8543472613978632e-01 
-2.0612800000000001e-02,	 3.3857570000000000e-04,	 4.0383901505300930e+00,	 2.0709021859364833e+02,	 -1.0616642135420454e-01,	 3.0790862011848949e+03,	 3.5773386845374322e+06,	 1.1136274061530041e+03,	 1.8596008383320739e-01 
-1.8883839999999999e-02,	 3.3487230000000000e-04,	 4.0390967691408814e+00,	 2.0862956451699395e+02,	 -2.3889201441887353e-01,	 3.0788533772815854e+03,	 3.5776940841188519e+06,	 1.1135853021058781e+03,	 1.8734954645547425e-01 
-1.7151079999999999e-02,	 3.3242240000000000e-04,	 4.0388820218620376e+00,	 2.1195209173223122e+02,	 -3.9249438155262661e-01,	 3.0782870968883658e+03,	 3.5768458732525031e+06,	 1.1134828888948359e+03,	 1.9035088662585881e-01 
-1.5432649999999999e-02,	 3.2597639999999998e-04,	 4.0379583843377160e+00,	 2.1709628467956128e+02,	 -5.6843272217793928e-01,	 3.0772680176693102e+03,	 3.5748440388312167e+06,	 1.1132985621626835e+03,	 1.9500342157337983e-01 
-1.3716080000000000e-02,	 3.1918369999999998e-04,	 4.0361556754327701e+00,	 2.2529335766072106e+02,	 -8.8676475714770020e-01,	 3.0755605033494639e+03,	 3.5712653592985938e+06,	 1.1129896457793184e+03,	 2.0242335917611476e-01 
-1.1999970000000000e-02,	 3.1226810000000002e-04,	 4.0323029366869791e+00,	 2.3851644225976349e+02,	 -1.3796083500284122e+00,	 3.0726846748334665e+03,	 3.5645202307503251e+06,	 1.1124691689533975e+03,	 2.1440633034596890e-01 
-1.0284470000000000e-02,	 3.0567670000000003e-04,	 4.0235359347729531e+00,	 2.5923599056131445e+02,	 -2.0558370354102804e+00,	 3.0678438520030177e+03,	 3.5511668089141194e+06,	 1.1115925106836071e+03,	 2.3321868374837984e-01 
-8.5693650000000007e-03,	 2.9903170000000003e-04,	 4.0053740772810054e+00,	 2.9011796322768924e+02,	 -2.8765473288830163e+00,	 3.0598655485437885e+03,	 3.5259436236475660e+06,	 1.1101461535194799e+03,	 2.6134597014838157e-01 
-6.8551920000000004e-03,	 2.9217710000000000e-04,	 3.9711989229510536e+00,	 3.3379536737895728e+02,	 -3.7490085632610461e+00,	 3.0470391183165443e+03,	 3.4812050855442062e+06,	 1.1078169391481536e+03,	 3.0132814216341736e-01 
-5.1415300000000001e-03,	 2.8519489999999999e-04,	 3.9109118364174615e+00,	 3.9335658789037132e+02,	 -4.7527613844182071e+00,	 3.0266431973097478e+03,	 3.4054082939421898e+06,	 1.1041030247796753e+03,	 3.5629401497604701e-01 
-3.4276810000000001e-03,	 2.7878689999999998e-04,	 3.8082863367174822e+00,	 4.7266415324785635e+02,	 -5.6242447538721558e+00,	 2.9941327702641402e+03,	 3.2804285776559645e+06,	 1.0981572012936574e+03,	 4.3044621756710660e-01 
-1.7143670000000001e-03,	 2.7222109999999999e-04,	 3.6363129467265614e+00,	 5.7647450488550726e+02,	 -5.8986380742162350e+00,	 2.9413012047256871e+03,	 3.0770226316019511e+06,	 1.0884255725842320e+03,	 5.2966844662742707e-01 
0.0000000000000000e+00,	 2.6326529999999999e-04,	 3.5140243767547004e+00,	 6.6148808620920613e+02,	 -4.9420471546347766e+00,	 2.8840093638371654e+03,	 2.9156230398798469e+06,	 1.0777730497210723e+03,	 6.1377165387478405e-01 
-5.0000000000000003e-02,	 7.1224490000000010e-04,	 4.0570562424298000e+00,	 1.7559450321410901e+02,	 -2.6070228831066722e-01,	 3.0842859046170001e+03,	 3.5999427556254459e+06,	 1.1145673099569128e+03,	 1.5754517037737570e-01 
-4.8269279999999998e-02,	 7.0685670000000009e-04,	 4.0603680191549891e+00,	 1.7658131936205464e+02,	 -6.4772290538991806e-01,	 3.0845738004830755e+03,	 3.6032176934362352e+06,	 1.1146193271568952e+03,	 1.5842404937816817e-01 
-4.6538900000000001e-02,	 7.0132030000000006e-04,	 4.0607853664620279e+00,	 1.8176863045861600e+02,	 -1.2818361650024253e+00,	 3.0837285528467532e+03,	 3.6026005822165897e+06,	 1.1144666004006222e+03,	 1.6310327299601279e-01 
-4.4807710000000001e-02,	 6.9566000000000007e-04,	 4.0574805465274455e+00,	 1.8951054810669427e+02,	 -1.5633932809028730e+00,	 3.0822903583613547e+03,	 3.5979898308086088e+06,	 1.1142066866928469e+03,	 1.7009141927987956e-01 
-4.3075090000000003e-02,	 6.8993330000000010e-04,	 4.0513649871677737e+00,	 1.9753590302058919e+02,	 -1.3986539936339155e+00,	 3.0806929036630117e+03,	 3.5907049149397048e+06,	 1.1139179200331007e+03,	 1.7733878860761668e-01 
-4.1340189999999999e-02,	 6.8410690000000006e-04,	 4.0446779502126180e+00,	 2.0409626176765232e+02,	 -1.0445518053079648e+00,	 3.0793323939830425e+03,	 3.5831951007440565e+06,	 1.1136719261094399e+03,	 1.8326666044129736e-01 
-3.9604420000000001e-02,	 6.7820780000000006e-04,	 4.0390929514455420e+00,	 2.0848953864862611e+02,	 -6.2824465836772037e-01,	 3.0783939867363815e+03,	 3.5771568813092900e+06,	 1.1135022209096589e+03,	 1.8723849964635633e-01 
-3.7867510000000000e-02,	 6.7220700000000008e-04,	 4.0353309913515734e+00,	 2.1080354594545173e+02,	 -2.8241980470102979e-01,	 3.0778989218329139e+03,	 3.5732504228729908e+06,	 1.1134126810332173e+03,	 1.8933117856432985e-01 
-3.6130770000000000e-02,	 6.6613170000000006e-04,	 4.0333575754506006e+00,	 2.1151863243760630e+02,	 -5.6153106457045208e-02,	 3.0777489885023997e+03,	 3.5713290020846715e+06,	 1.1133855619320389e+03,	 1.8997789007090291e-01 
-3.4394260000000003e-02,	 6.5995300000000002e-04,	 4.0327435232303532e+00,	 2.1131498911822931e+02,	 7.0502859718445166e-02,	 3.0778032984196680e+03,	 3.5708483007116891e+06,	 1.1133953852820309e+03,	 1.8979331482134973e-01 
-3.2657970000000001e-02,	 6.5369340000000003e-04,	 4.0329218183181261e+00,	 2.1054327011287461e+02,	 1.5385486206513621e-01,	 3.0779730653157121e+03,	 3.5712031457611481e+06,	 1.1134260914470931e+03,	 1.8909501757236846e-01 
-3.0922089999999999e-02,	 6.4732560000000001e-04,	 4.0336516445035020e+00,	 2.0952675031497472e+02,	 1.4590174163550007e-01,	 3.0782254921783424e+03,	 3.5721423460849607e+06,	 1.1134717469624029e+03,	 1.8817433103725842e-01 
-2.9186440000000001e-02,	 6.4087490000000003e-04,	 4.0345409063436950e+00,	 2.0856238437153900e+02,	 1.2376254609843301e-01,	 3.0784752534883537e+03,	 3.5732197639155877e+06,	 1.1135169185266611e+03,	 1.8730063066156491e-01 
-2.7451340000000001e-02,	 6.3430940000000003e-04,	 4.0354263511966622e+00,	 2.0772298707556143e+02,	 9.1870774142763262e-02,	 3.0787064142076588e+03,	 3.5742723340788824e+06,	 1.1135587243751422e+03,	 1.8653978712098415e-01 
-2.5716500000000000e-02,	 6.2765910000000006e-04,	 4.0362895488513368e+00,	 2.0707453680510000e+02,	 5.6365148815565223e-02,	 3.0788995828906150e+03,	 3.5752611987811942e+06,	 1.1135936580890541e+03,	 1.8595161976017949e-01 
-2.3982050000000001e-02,	 6.2092190000000006e-04,	 4.0370951233431747e+00,	 2.0672170545025381e+02,	 -2.5375767926999358e-03,	 3.0790393063944543e+03,	 3.5761370411507045e+06,	 1.1136189257923920e+03,	 1.8563056057864355e-01 
-2.2247590000000001e-02,	 6.1470330000000007e-04,	 4.0377946338770645e+00,	 2.0677486508629192e+02,	 -8.3215352322695571e-02,	 3.0791032061494097e+03,	 3.5768309100848217e+06,	 1.1136304812810033e+03,	 1.8567638485721816e-01 
-2.0512240000000001e-02,	 6.0918940000000003e-04,	 4.0384151203146104e+00,	 2.0741819982362205e+02,	 -2.1667865132139347e-01,	 3.0790448203029946e+03,	 3.5773127262300127e+06,	 1.1136199229199935e+03,	 1.8625592873374500e-01 
-1.8776689999999999e-02,	 6.0385800000000009e-04,	 4.0390692124350229e+00,	 2.0905699878137932e+02,	 -4.7710660830073226e-01,	 3.0787880299233288e+03,	 3.5775937408063663e+06,	 1.1135734843550954e+03,	 1.8773574096401596e-01 
-1.7033540000000000e-02,	 6.0126280000000003e-04,	 4.0388571913167048e+00,	 2.1253177058262600e+02,	 -7.6030707185729507e-01,	 3.0781812733159059e+03,	 3.5767009212664547e+06,	 1.1134637493951432e+03,	 1.9087566222760413e-01 
-1.5323790000000000e-02,	 5.8577970000000005e-04,	 4.0378001988321950e+00,	 2.1769465394287894e+02,	 -1.0892265936880647e+00,	 3.0771604930182375e+03,	 3.5745790897992412e+06,	 1.1132791117793474e+03,	 1.9554609133820700e-01 
-1.3618000000000000e-02,	 5.6865669999999998e-04,	 4.0357523607927259e+00,	 2.2576020504762738e+02,	 -1.6803332947012763e+00,	 3.0754732874404626e+03,	 3.5708072361760372e+06,	 1.1129738647384734e+03,	 2.0284973931059896e-01 
-1.1913000000000000e-02,	 5.5124700000000004e-04,	 4.0314997788161691e+00,	 2.3881713688590119e+02,	 -2.5723547647238472e+00,	 3.0726181184413708e+03,	 3.5637330517780911e+06,	 1.1124571204773915e+03,	 2.1468781654835203e-01 
-1.0209060000000001e-02,	 5.3426610000000007e-04,	 4.0223595014145808e+00,	 2.5925813534253274e+02,	 -3.7640773986768838e+00,	 3.0678234947336241e+03,	 3.5501049330263259e+06,	 1.1115888225842730e+03,	 2.3325662627284635e-01 
-8.5057280000000006e-03,	 5.1716290000000003e-04,	 4.0037694090469573e+00,	 2.8957797889895301e+02,	 -5.1914986171322965e+00,	 3.0599718410770856e+03,	 3.5246534629830439e+06,	 1.1101654352853566e+03,	 2.6088410074032425e-01 
-6.8039939999999998e-03,	 4.9962810000000004e-04,	 3.9690957821878894e+00,	 3.3257837341457770e+02,	 -6.7849614476843927e+00,	 3.0473516931137756e+03,	 3.4797183685268438e+06,	 1.1078737593532155e+03,	 3.0025765454961068e-01 
-5.1029780000000002e-03,	 4.8187229999999999e-04,	 3.9081590519051028e+00,	 3.9143698478732006e+02,	 -8.3717597273251059e+00,	 3.0272098875429892e+03,	 3.4036484787373645e+06,	 1.1042063827038269e+03,	 3.5457728295567303e-01 
-3.4014549999999998e-03,	 4.6530569999999997e-04,	 3.8055111871973626e+00,	 4.7002987255442747e+02,	 -9.9720831273542991e+00,	 2.9950561577163489e+03,	 3.2790490287487558e+06,	 1.0983265235129854e+03,	 4.2804724614879663e-01 
-1.7006840000000000e-03,	 4.4840640000000002e-04,	 3.6332761976681294e+00,	 5.7320366341240560e+02,	 -1.0529350385722633e+01,	 2.9426813957652184e+03,	 3.0758956275872518e+06,	 1.0886809117912958e+03,	 5.2660091441618062e-01 
0.0000000000000000e+00,	 4.2653059999999999e-04,	 3.5108005478117725e+00,	 6.5773228849258874e+02,	 -8.7453130810177164e+00,	 2.8859759974878957e+03,	 2.9149345623654816e+06,	 1.0781404589874671e+03,	 6.1011570429103545e-01 
-5.0000000000000003e-02,	 1.0183672999999999e-03,	 4.0571706613912237e+00,	 1.7558390442609283e+02,	 -3.9090534211714834e-01,	 3.0842854111957995e+03,	 3.6000437069308544e+06,	 1.1145672208031867e+03,	 1.5753589042258737e-01 
-4.8262790000000000e-02,	 1.0122824999999999e-03,	 4.0604966479255484e+00,	 1.7662516080206723e+02,	 -9.5829701574768889e-01,	 3.0845612418160808e+03,	 3.6033171693388522e+06,	 1.1146170580999510e+03,	 1.5846497159386061e-01 
-4.6525930000000000e-02,	 1.0060274000000000e-03,	 4.0608837439897627e+00,	 1.8190283802171450e+02,	 -1.8805570293978602e+00,	 3.0837064953441827e+03,	 3.6026620901036477e+06,	 1.1144626145773823e+03,	 1.6322894659449894e-01 
-4.4788090000000003e-02,	 9.9959989999999998e-04,	 4.0574737706310522e+00,	 1.8972244427182790e+02,	 -2.2716952410707179e+00,	 3.0822441187474055e+03,	 3.5979298463551141e+06,	 1.1141983291609004e+03,	 1.7028929160159972e-01 
-4.3048830000000003e-02,	 9.9309490000000001e-04,	 4.0512949102222082e+00,	 1.9778560113360436e+02,	 -2.0430287935568483e+00,	 3.0806415121560794e+03,	 3.5905829076967137e+06,	 1.1139086289156407e+03,	 1.7756945898713283e-01 
-4.1306770000000000e-02,	 9.8643920000000005e-04,	 4.0445539102726480e+00,	 2.0435070228332273e+02,	 -1.5068272916977161e+00,	 3.0792821527150663e+03,	 3.5830267529882924e+06,	 1.1136628409392238e+03,	 1.8349921553070311e-01 
-3.9564030000000000e-02,	 9.7969870000000001e-04,	 4.0389777592839460e+00,	 2.0872109343778638e+02,	 -8.9872648807450461e-01,	 3.0783539036950506e+03,	 3.5770082872608141e+06,	 1.1134949715612936e+03,	 1.8744855941032676e-01 
-3.7820079999999999e-02,	 9.7281720000000002e-04,	 4.0352733340003750e+00,	 2.1100568636945329e+02,	 -3.9723425836665011e-01,	 3.0778528664538044e+03,	 3.5731459011062123e+06,	 1.1134043508644468e+03,	 1.8951431267279839e-01 
-3.6076310000000000e-02,	 9.6584720000000000e-04,	 4.0333599741842168e+00,	 2.1170333481914719e+02,	 -6.8267785073993309e-02,	 3.0777018923827436e+03,	 3.5712764770604973e+06,	 1.1133770433133272e+03,	 1.9014524064216315e-01 
-3.4332799999999997e-02,	 9.5871800000000001e-04,	 4.0327854931032725e+00,	 2.1145249407533029e+02,	 1.1079839471450013e-01,	 3.0777701907220426e+03,	 3.5708470517685344e+06,	 1.1133893969108926e+03,	 1.8991785236187247e-01 
-3.2589519999999997e-02,	 9.5149090000000002e-04,	 4.0329875684430583e+00,	 2.1066764782546997e+02,	 2.2405374225419961e-01,	 3.0779508671432359e+03,	 3.5712356125856298e+06,	 1.1134220764559843e+03,	 1.8920746357140114e-01 
-3.0846740000000001e-02,	 9.4410950000000000e-04,	 4.0337229126150298e+00,	 2.0964780582967796e+02,	 2.0896588069502964e-01,	 3.0782115826465833e+03,	 3.5721893184006773e+06,	 1.1134692312454481e+03,	 1.8828352332488035e-01 
-2.9104209999999998e-02,	 9.3662760000000009e-04,	 4.0346095831617550e+00,	 2.0868488229871281e+02,	 1.7648170241433647e-01,	 3.0784605232306367e+03,	 3.5732634901648676e+06,	 1.1135142544788041e+03,	 1.8741112301283772e-01 
-2.7362379999999999e-02,	 9.2897630000000008e-04,	 4.0354908701409888e+00,	 2.0784926990441321e+02,	 1.3244742865172607e-01,	 3.0786859825262809e+03,	 3.5743057591710757e+06,	 1.1135550293305782e+03,	 1.8665383086544121e-01 
-2.5620810000000001e-02,	 9.2122800000000006e-04,	 4.0363580907125796e+00,	 2.0720826215467343e+02,	 7.2089427085529373e-02,	 3.0788777622196276e+03,	 3.5752965728358217e+06,	 1.1135897119707697e+03,	 1.8607236800725654e-01 
-2.3879689999999999e-02,	 9.1342550000000000e-04,	 4.0371560512651010e+00,	 2.0687518423748122e+02,	 -2.1128248689294828e-02,	 3.0790148054285164e+03,	 3.5761625553122284e+06,	 1.1136144950607688e+03,	 1.8576912049363245e-01 
-2.2138470000000000e-02,	 9.0623760000000005e-04,	 4.0378607945988563e+00,	 2.0694665332965289e+02,	 -1.4842843660009947e-01,	 3.0790734040285070e+03,	 3.5768548976389943e+06,	 1.1136250919471081e+03,	 1.8583157658248109e-01 
-2.0395630000000001e-02,	 9.0023820000000000e-04,	 4.0384798403753051e+00,	 2.0769146390318937e+02,	 -3.5158323107037315e-01,	 3.0789917815620038e+03,	 3.5773084338675211e+06,	 1.1136103314303493e+03,	 1.8650308426907286e-01 
-1.8652209999999999e-02,	 8.9462210000000001e-04,	 4.0390311279341677e+00,	 2.0961575806127536e+02,	 -7.3826558997488057e-01,	 3.0787047208849244e+03,	 3.5774632022434594e+06,	 1.1135584181402646e+03,	 1.8824073773432654e-01 
-1.6897949999999998e-02,	 8.9287019999999999e-04,	 4.0388118826292345e+00,	 2.1321580640429110e+02,	 -1.1566690623493130e+00,	 3.0780678152459332e+03,	 3.5765289657107550e+06,	 1.1134432287368550e+03,	 1.9149511916789730e-01 
-1.5199280000000001e-02,	 8.6649720000000000e-04,	 4.0376537536725836e+00,	 2.1832274490900170e+02,	 -1.6485627389765254e+00,	 3.0770334607677250e+03,	 3.5743018835174646e+06,	 1.1132561321832345e+03,	 1.9611746361529039e-01 
-1.3506550000000001e-02,	 8.3673750000000000e-04,	 4.0354568102491042e+00,	 2.2634705141282569e+02,	 -2.5264743876111413e+00,	 3.0753465809663649e+03,	 3.5703986320203152e+06,	 1.1129509377881320e+03,	 2.0338825682062064e-01 
-1.1814830000000000e-02,	 8.0649020000000005e-04,	 4.0309604730363482e+00,	 2.3931182199718145e+02,	 -3.8519349107341236e+00,	 3.0724994816423741e+03,	 3.5631187397308247e+06,	 1.1124356437398528e+03,	 2.1515205979048527e-01 
-1.0124550000000000e-02,	 7.7655800000000000e-04,	 4.0213711229746467e+00,	 2.5965473215872589e+02,	 -5.5769795776085793e+00,	 3.0677100554023618e+03,	 3.5491013570176130e+06,	 1.1115682707079027e+03,	 2.3364702332565537e-01 
-8.4348909999999999e-03,	 7.4647960000000008e-04,	 4.0022921270623195e+00,	 2.8991186976052967e+02,	 -7.5945542802193184e+00,	 3.0598503220742828e+03,	 3.5232130407415531e+06,	 1.1101433913674646e+03,	 2.6123771823385367e-01 
-6.7472430000000000e-03,	 7.1582860000000005e-04,	 3.9671147369821211e+00,	 3.3263006697505455e+02,	 -9.7812686772975432e+00,	 3.0472481658068182e+03,	 3.4778634231139547e+06,	 1.1078549403634083e+03,	 3.0037673436994994e-01 
-5.0602939999999999e-03,	 6.8494830000000000e-04,	 3.9057208228401423e+00,	 3.9097432135749187e+02,	 -1.2100983875896963e+01,	 3.0272291818840613e+03,	 3.4015466846963163e+06,	 1.1042099016043005e+03,	 3.5424564095404054e-01 
-3.3723709999999999e-03,	 6.5591580000000003e-04,	 3.8020979531496506e+00,	 4.6901712057027703e+02,	 -1.4211510003616237e+01,	 2.9952642476000128e+03,	 3.2763356051859055e+06,	 1.0983646775002244e+03,	 4.2721000554181227e-01 
-1.6851870000000001e-03,	 6.2646750000000008e-04,	 3.6297377973916327e+00,	 5.7165852157538347e+02,	 -1.4834131171302291e+01,	 2.9431856145814186e+03,	 3.0734265843309076e+06,	 1.0887741787499415e+03,	 5.2522457632844211e-01 
0.0000000000000000e+00,	 5.8979590000000004e-04,	 3.5084041846255003e+00,	 6.5592625282456595e+02,	 -1.2670770657661890e+01,	 2.8868737825816152e+03,	 2.9138510934878434e+06,	 1.0783081428434100e+03,	 6.0840551817341604e-01 
-5.0000000000000003e-02,	 1.3244900000000000e-03,	 4.0573006137546663e+00,	 1.7560491142432031e+02,	 -5.2753169753364360e-01,	 3.0842876984723980e+03,	 3.6001616872277241e+06,	 1.1145676340793123e+03,	 1.5755500018807417e-01 
-4.8255010000000001e-02,	 1.3184840000000000e-03,	 4.0606514584438829e+00,	 1.7672644171822364e+02,	 -1.2817209935336420e+00,	 3.0845477142159839e+03,	 3.6034387461798885e+06,	 1.1146146139743246e+03,	 1.5855802295013466e-01 
-4.6510320000000001e-02,	 1.3123130000000001e-03,	 4.0610084301394576e+00,	 1.8216285805811384e+02,	 -2.4934187649965307e+00,	 3.0836737243900207e+03,	 3.6027344197892030e+06,	 1.1144566927913199e+03,	 1.6346971866595403e-01 
-4.4764510000000000e-02,	 1.3059480000000001e-03,	 4.0574789134369977e+00,	 1.9012469138422094e+02,	 -2.9861733988054251e+00,	 3.0821869097104618e+03,	 3.5978676260125302e+06,	 1.1141879888850005e+03,	 1.7066073485234512e-01 
-4.3017479999999997e-02,	 1.2995070000000001e-03,	 4.0511953376289167e+00,	 1.9824926667018605e+02,	 -2.6816100278130679e+00,	 3.0805795149884129e+03,	 3.5904224006285877e+06,	 1.1138974202879551e+03,	 1.7799430950271819e-01 
-4.1267520000000002e-02,	 1.2928770000000000e-03,	 4.0444091336531658e+00,	 2.0480029122243803e+02,	 -1.9546014560719702e+00,	 3.0792188597836175e+03,	 3.5828248524549925e+06,	 1.1136513955203627e+03,	 1.8390819526853616e-01 
-3.9517040000000003e-02,	 1.2861640000000000e-03,	 4.0388548822872821e+00,	 2.0910841352423262e+02,	 -1.1543304194921067e+00,	 3.0782874796200049e+03,	 3.5768222830805611e+06,	 1.1134829581159815e+03,	 1.8779955101351398e-01 
-3.7765600000000003e-02,	 1.2792890000000001e-03,	 4.0351993844305589e+00,	 2.1131903671706110e+02,	 -5.0110582138577686e-01,	 3.0777996780623553e+03,	 3.5730186739650737e+06,	 1.1133947304496846e+03,	 1.8979758488070977e-01 
-3.6014329999999997e-02,	 1.2723270000000000e-03,	 4.0333405961458668e+00,	 2.1195278404596800e+02,	 -7.2078951779199180e-02,	 3.0776654624489497e+03,	 3.5712170470338627e+06,	 1.1133704539207513e+03,	 1.9037041584456083e-01 
-3.4263349999999998e-02,	 1.2651600000000000e-03,	 4.0328247694308184e+00,	 2.1162554917282466e+02,	 1.5802812249823217e-01,	 3.0777412477495045e+03,	 3.5708482490258901e+06,	 1.1133841618100726e+03,	 1.9007420388601790e-01 
-3.2512569999999998e-02,	 1.2578950000000000e-03,	 4.0330693686015451e+00,	 2.1080253010896854e+02,	 2.9581868861503807e-01,	 3.0779262814756371e+03,	 3.5712795206916519e+06,	 1.1134176296209121e+03,	 1.8932944122814868e-01 
-3.0762319999999999e-02,	 1.2504480000000001e-03,	 4.0338240211738894e+00,	 2.0977135690876113e+02,	 2.7137704245683980e-01,	 3.0781886787769195e+03,	 3.5722522781958268e+06,	 1.1134650887749092e+03,	 1.8839524881470399e-01 