TITLE = "Final State"
VARIABLES = "X", "Y", "rho", "u", "v", "T", "p", "c", "M"
ZONE I=77, J=27, DATAPACKING=POINT, STRANDID=46000, SOLUTIONTIME=0.001110
2.5077519999999998e-01,	 6.7296190000000006e-02,	 2.6598094311110914e-02,	 1.5933326833307610e+03,	 4.1239019645208828e+02,	 4.5175552968103273e+02,	 3.4568770732962375e+03,	 4.2656058680831234e+02,	 3.8583864004060233e+00 
2.5481999999999999e-01,	 6.8379999999999996e-02,	 2.6613919578930185e-02,	 1.5932581601373231e+03,	 4.1255864422509336e+02,	 4.5181901790852766e+02,	 3.4594199445135991e+03,	 4.2659055946207587e+02,	 3.8580451489379293e+00 
2.5886480000000001e-01,	 6.9463810000000001e-02,	 2.6637359715409786e-02,	 1.5931323895359999e+03,	 4.1280263999122371e+02,	 4.5191670887516409e+02,	 3.4632154634119934e+03,	 4.2663667504159338e+02,	 3.8574861578471582e+00 
2.6290950000000002e-01,	 7.0547620000000005e-02,	 2.6660258818135517e-02,	 1.5930068507688363e+03,	 4.1304734624464481e+02,	 4.5201371366958796e+02,	 3.4669366800754087e+03,	 4.2668246177783931e+02,	 3.8569313060788613e+00 
2.6695429999999998e-01,	 7.1631429999999996e-02,	 2.6682514705685050e-02,	 1.5928827183348562e+03,	 4.1328915237488201e+02,	 4.5210929459092910e+02,	 3.4705645821263729e+03,	 4.2672757163388650e+02,	 3.8563842761412150e+00 
2.7099899999999999e-01,	 7.2715240000000000e-02,	 2.6704221896859864e-02,	 1.5927604386899188e+03,	 4.1352725455301663e+02,	 4.5220347206237210e+02,	 3.4741115425708304e+03,	 4.2677201446167692e+02,	 3.8558455096004001e+00 
2.7504380000000000e-01,	 7.3799050000000005e-02,	 2.6725242655959172e-02,	 1.5926407521290953e+03,	 4.1375941216740830e+02,	 4.5229567206981483e+02,	 3.4775551545714734e+03,	 4.2681551963120160e+02,	 3.8553178001030366e+00 
2.7908860000000002e-01,	 7.4882860000000009e-02,	 2.6745790565207990e-02,	 1.5925229207999755e+03,	 4.1398698487932330e+02,	 4.5238678613451896e+02,	 3.4809299849123790e+03,	 4.2685850803563289e+02,	 3.8547964613344585e+00 
2.8313329999999998e-01,	 7.5966670000000000e-02,	 2.6765847661958442e-02,	 1.5924073602244946e+03,	 4.1420888574076707e+02,	 4.5247665614443628e+02,	 3.4842324213505531e+03,	 4.2690090524362171e+02,	 3.8542824572955281e+00 
2.8717809999999999e-01,	 7.7050480000000005e-02,	 2.6785316173199222e-02,	 1.5922946160721376e+03,	 4.1442339581751821e+02,	 4.5256483987544641e+02,	 3.4874462664677380e+03,	 4.2694250283772811e+02,	 3.8537778814175061e+00 
2.9122290000000001e-01,	 7.8134290000000009e-02,	 2.6804425373024514e-02,	 1.5921837175503638e+03,	 4.1463250801565414e+02,	 4.5265235468339017e+02,	 3.4906091496045574e+03,	 4.2698378088422447e+02,	 3.8532773638914835e+00 
2.9526760000000002e-01,	 7.9218100000000000e-02,	 2.6823131353840131e-02,	 1.5920750212704856e+03,	 4.1483548080112564e+02,	 4.5273899128681956e+02,	 3.4937136986296900e+03,	 4.2702464077837504e+02,	 3.8527821567529243e+00 
2.9931239999999998e-01,	 8.0301900000000009e-02,	 2.6841397159673562e-02,	 1.5919684920376735e+03,	 4.1503189266761456e+02,	 4.5282465018316032e+02,	 3.4967542864177544e+03,	 4.2706503571909377e+02,	 3.8522923442524184e+00 
3.0335709999999999e-01,	 8.1385710000000000e-02,	 2.6859396760964330e-02,	 1.5918637096640202e+03,	 4.1522328187748428e+02,	 4.5290986845418274e+02,	 3.4997576833705739e+03,	 4.2710521907908281e+02,	 3.8518055889374501e+00 
3.0740190000000001e-01,	 8.2469520000000004e-02,	 2.6876936282387451e-02,	 1.5917612436031397e+03,	 4.1540802263997443e+02,	 4.5299394418500844e+02,	 3.5026931691079144e+03,	 4.2714485998734375e+02,	 3.8513251965473376e+00 
3.1144670000000002e-01,	 8.3553330000000009e-02,	 2.6894235522591313e-02,	 1.5916601201314979e+03,	 4.1558842774327331e+02,	 4.5307776200965469e+02,	 3.5055961877697691e+03,	 4.2718437563369105e+02,	 3.8508465589048999e+00 
3.1549139999999998e-01,	 8.4637140000000000e-02,	 2.6911252260102436e-02,	 1.5915606488128274e+03,	 4.1576412073907659e+02,	 4.5316103602624810e+02,	 3.5084590001381789e+03,	 4.2722363128399536e+02,	 3.8503713638895087e+00 
3.1953619999999999e-01,	 8.5720950000000004e-02,	 2.6927850179736534e-02,	 1.5914633234527989e+03,	 4.1593383557759057e+02,	 4.5324317798515995e+02,	 3.5112592459199309e+03,	 4.2726234974503274e+02,	 3.8499024721462018e+00 
3.2358100000000001e-01,	 8.6804760000000009e-02,	 2.6944244257077282e-02,	 1.5913671394017379e+03,	 4.1609990779691896e+02,	 4.5332510628456515e+02,	 3.5140320351055120e+03,	 4.2730096400078543e+02,	 3.8494350824527213e+00 
3.2762570000000002e-01,	 8.7888569999999999e-02,	 2.6960385454686667e-02,	 1.5912723473042249e+03,	 4.1626201781549690e+02,	 4.5340659039726501e+02,	 3.5167691656645034e+03,	 4.2733936544264395e+02,	 3.8489705474427978e+00 
3.3167049999999998e-01,	 8.8972380000000004e-02,	 2.6976199604974525e-02,	 1.5911792066913104e+03,	 4.1641932821364225e+02,	 4.5348671008413186e+02,	 3.5194537954583780e+03,	 4.2737712050010822e+02,	 3.8485128580988404e+00 
3.3571519999999999e-01,	 9.0056190000000008e-02,	 2.6991792553889553e-02,	 1.5910877380849947e+03,	 4.1657237636936577e+02,	 4.5356313115852265e+02,	 3.5220815690517252e+03,	 4.2741312954086470e+02,	 3.8480722717776481e+00 
3.3976000000000001e-01,	 9.1139999999999999e-02,	 2.7006998201204530e-02,	 1.5909984321825018e+03,	 4.1671960212063806e+02,	 4.5363589795502037e+02,	 3.5246310891296348e+03,	 4.2744741389374747e+02,	 3.8476487691466490e+00 
3.4380480000000002e-01,	 9.2223810000000003e-02,	 2.7022031828335971e-02,	 1.5909098853935193e+03,	 4.1686425419666114e+02,	 4.5371347123999169e+02,	 3.5271961581652640e+03,	 4.2748395981390587e+02,	 3.8472052115190545e+00 
3.4784949999999998e-01,	 9.3307620000000008e-02,	 2.7036844000124002e-02,	 1.5908221287001427e+03,	 4.1700718447556665e+02,	 4.5379656065496181e+02,	 3.5297758928653179e+03,	 4.2752310099919873e+02,	 3.8467391820490606e+00 
3.5189429999999999e-01,	 9.4391429999999998e-02,	 2.7051339179967326e-02,	 1.5907356582387788e+03,	 4.1714726963528796e+02,	 4.5387840064534691e+02,	 3.5323052198417372e+03,	 4.2756165011145549e+02,	 3.8462798227156205e+00 
3.5593900000000001e-01,	 9.5475240000000003e-02,	 2.7065612509758412e-02,	 1.5906505945349350e+03,	 4.1728459067308563e+02,	 4.5395660663148192e+02,	 3.5347779589358611e+03,	 4.2759848425047807e+02,	 3.8458375478299991e+00 
3.5998380000000002e-01,	 9.6559050000000007e-02,	 2.7079487882823182e-02,	 1.5905674792960058e+03,	 4.1741749059019412e+02,	 4.5403176293057277e+02,	 3.5371755992138537e+03,	 4.2763387903170644e+02,	 3.8454101089374477e+00 
3.6402859999999998e-01,	 9.7642859999999998e-02,	 2.7093176907342455e-02,	 1.5904852676773926e+03,	 4.1754843942059284e+02,	 4.5410624484592341e+02,	 3.5395442377739846e+03,	 4.2766895332257423e+02,	 3.8449865392280906e+00 
3.6807329999999999e-01,	 9.8726670000000002e-02,	 2.7106620065105475e-02,	 1.5904043838451275e+03,	 4.1767675750612477e+02,	 4.5417983097706963e+02,	 3.5418743511767061e+03,	 4.2770360295493339e+02,	 3.8445683273797098e+00 
3.7211810000000001e-01,	 9.9810480000000007e-02,	 2.7119687930371304e-02,	 1.5903253178993616e+03,	 4.1780122445269120e+02,	 4.5425194905263027e+02,	 3.5441445343999358e+03,	 4.2773755859793260e+02,	 3.8441582728252848e+00 
3.7616290000000002e-01,	 1.0089430000000001e-01,	 2.7132552482562834e-02,	 1.5902473278290090e+03,	 4.1792387640200974e+02,	 4.5432326676716252e+02,	 3.5463824381325912e+03,	 4.2777113475310608e+02,	 3.8437530753548286e+00 
3.8020759999999998e-01,	 1.0197810000000000e-01,	 2.7145089061298699e-02,	 1.5901710225570414e+03,	 4.1804333112934683e+02,	 4.5439324298950373e+02,	 3.5485675186634689e+03,	 4.2780407677665119e+02,	 3.8433555743546690e+00 
3.8425239999999999e-01,	 1.0306190000000000e-01,	 2.7157321074360599e-02,	 1.5900962051508413e+03,	 4.1815984872987605e+02,	 4.5446196488772267e+02,	 3.5507034831788242e+03,	 4.2783642584562693e+02,	 3.8429651038423298e+00 
3.8829710000000001e-01,	 1.0414570000000001e-01,	 2.7169340525277978e-02,	 1.5900225922457407e+03,	 4.1827456754528680e+02,	 4.5452975891507356e+02,	 3.5528048829278632e+03,	 4.2786833574676973e+02,	 3.8425803140386718e+00 
3.9234190000000002e-01,	 1.0522950000000000e-01,	 2.7180978904043640e-02,	 1.5899507407015117e+03,	 4.1838574039594852e+02,	 4.5459601445229794e+02,	 3.5548448824436441e+03,	 4.2789951919833663e+02,	 3.8422040003724689e+00 
3.9638669999999998e-01,	 1.0631330000000000e-01,	 2.7192469530090860e-02,	 1.5898794237921475e+03,	 4.1849595753307398e+02,	 4.5466190220996322e+02,	 3.5568631219200070e+03,	 4.2793052729941945e+02,	 3.8418299779743768e+00 
4.0043139999999999e-01,	 1.0739710000000001e-01,	 2.7204006702160888e-02,	 1.5898074476383977e+03,	 4.1860757194915959e+02,	 4.5472839814221959e+02,	 3.5588926460958733e+03,	 4.2796181934176639e+02,	 3.8414528248837518e+00 
4.0447620000000001e-01,	 1.0848100000000001e-01,	 2.7215258857740027e-02,	 1.5897373685638386e+03,	 4.1871591722381243e+02,	 4.5479345015070601e+02,	 3.5608740142894094e+03,	 4.2799242968018052e+02,	 3.8410842084755967e+00 
4.0852100000000002e-01,	 1.0956480000000000e-01,	 2.7225870126838858e-02,	 1.5896705915138405e+03,	 4.1881701619692342e+02,	 4.5485555817630564e+02,	 3.5627488780287981e+03,	 4.2802165267944514e+02,	 3.8407312618584735e+00 
4.1256569999999998e-01,	 1.1064860000000000e-01,	 2.7236396821748311e-02,	 1.5896048411584873e+03,	 4.1891681132526872e+02,	 4.5491708102775209e+02,	 3.5646084669048760e+03,	 4.2805059837627078e+02,	 3.8403824131697712e+00 
4.1661049999999999e-01,	 1.1173240000000001e-01,	 2.7246694134363217e-02,	 1.5895400192150137e+03,	 4.1901433416635871e+02,	 4.5497790200961651e+02,	 3.5664329018315693e+03,	 4.2807921192876586e+02,	 3.8400373534540098e+00 
4.2065520000000001e-01,	 1.1281620000000001e-01,	 2.7256889722560594e-02,	 1.5894760883293561e+03,	 4.1911011620315787e+02,	 4.5503826682534179e+02,	 3.5682408031224254e+03,	 4.2810760898449831e+02,	 3.8396952749165010e+00 
4.2470000000000002e-01,	 1.1390000000000000e-01,	 2.7266804732688742e-02,	 1.5894134602239901e+03,	 4.1920275761970822e+02,	 4.5509765506162984e+02,	 3.5700046620060002e+03,	 4.2813554479582496e+02,	 3.8393584664040010e+00 
4.2874479999999998e-01,	 1.1498380000000000e-01,	 2.7276695181557436e-02,	 1.5893510713266101e+03,	 4.1929440748201881e+02,	 4.5515715633758543e+02,	 3.5717665305655382e+03,	 4.2816353195232364e+02,	 3.8390212067594010e+00 
4.3278949999999999e-01,	 1.1606760000000001e-01,	 2.7286506171827301e-02,	 1.5892892958037719e+03,	 4.1938441135846278e+02,	 4.5521651954377444e+02,	 3.5735172477450778e+03,	 4.2819145234309531e+02,	 3.8386850095382603e+00 
4.3683430000000001e-01,	 1.1715140000000000e-01,	 2.7296144751516496e-02,	 1.5892283105027404e+03,	 4.1947195808822937e+02,	 4.5527542739008345e+02,	 3.5752421418145145e+03,	 4.2821915676418399e+02,	 3.8383511268809287e+00 
4.4087900000000002e-01,	 1.1823520000000000e-01,	 2.7305743307477353e-02,	 1.5891677132401524e+03,	 4.1955819400180917e+02,	 4.5533445443057684e+02,	 3.5769630559572697e+03,	 4.2824691544470562e+02,	 3.8380169101603694e+00 
4.4492379999999998e-01,	 1.1931900000000001e-01,	 2.7315399938949173e-02,	 1.5891064128064429e+03,	 4.1964452849359338e+02,	 4.5539434779695114e+02,	 3.5786987127757802e+03,	 4.2827507969381713e+02,	 3.8376775877497669e+00 
4.4896860000000000e-01,	 1.2040290000000001e-01,	 2.7325166046851250e-02,	 1.5890452708217390e+03,	 4.1973067440031048e+02,	 4.5545466265102397e+02,	 3.5804523606356179e+03,	 4.2830344027163943e+02,	 3.8373368101694663e+00 
4.5301330000000001e-01,	 1.2148670000000000e-01,	 2.7334330555877535e-02,	 1.5889873495190029e+03,	 4.1980914302088064e+02,	 4.5551234129769398e+02,	 3.5821067778026436e+03,	 4.2833055952493572e+02,	 3.8370099027467104e+00 
4.5705810000000002e-01,	 1.2257050000000000e-01,	 2.7343382557215284e-02,	 1.5889306396599302e+03,	 4.1988499467413237e+02,	 4.5556936947557728e+02,	 3.5837416364331048e+03,	 4.2835737125388226e+02,	 3.8366869762117632e+00 
4.6110289999999998e-01,	 1.2365430000000001e-01,	 2.7352488148691220e-02,	 1.5888735560612067e+03,	 4.1996132106414893e+02,	 4.5562698793170955e+02,	 3.5853884617000017e+03,	 4.2838445879719796e+02,	 3.8363610707345051e+00 
4.6514759999999999e-01,	 1.2473810000000000e-01,	 2.7361557885087699e-02,	 1.5888166814906540e+03,	 4.2003703832674091e+02,	 4.5568468202473684e+02,	 3.5870314837276383e+03,	 4.2841158018281033e+02,	 3.8360350228401536e+00 
4.6919240000000001e-01,	 1.2582189999999999e-01,	 2.7370473601405324e-02,	 1.5887604421337651e+03,	 4.2011104741240166e+02,	 4.5574187211618425e+02,	 3.5886506439739901e+03,	 4.2843846294815711e+02,	 3.8357115775934627e+00 
4.7323710000000002e-01,	 1.2690569999999998e-01,	 2.7379333999859940e-02,	 1.5887047112081223e+03,	 4.2018455742298539e+02,	 4.5579873794390909e+02,	 3.5902602895734312e+03,	 4.2846519161778906e+02,	 3.8353904121615505e+00 
4.7728189999999998e-01,	 1.2798949999999998e-01,	 2.7387916045650079e-02,	 1.5886501434625047e+03,	 4.2025585645220781e+02,	 4.5585446735925666e+02,	 3.5918247659008425e+03,	 4.2849138452136975e+02,	 3.8350753970521434e+00 
4.8132670000000000e-01,	 1.2907330000000000e-01,	 2.7396454637495501e-02,	 1.5885954411394400e+03,	 4.2032795799817734e+02,	 4.5591019067698016e+02,	 3.5933837698375569e+03,	 4.2851757295829435e+02,	 3.8347606456084038e+00 
4.8537140000000001e-01,	 1.3015710000000000e-01,	 2.7405134495437074e-02,	 1.5885394709697011e+03,	 4.2040339071601238e+02,	 4.5596671994345979e+02,	 3.5949679329256946e+03,	 4.2854413853384557e+02,	 3.8344416967499098e+00 
4.8941620000000002e-01,	 1.3124100000000000e-01,	 2.7413528303868992e-02,	 1.5884852761943089e+03,	 4.2047706624560601e+02,	 4.5602145081604431e+02,	 3.5965006667239345e+03,	 4.2856985739646240e+02,	 3.8341333286983503e+00 
4.9346099999999998e-01,	 1.3232479999999999e-01,	 2.7421187680320161e-02,	 1.5884344982362286e+03,	 4.2054476053380506e+02,	 4.5607248152736190e+02,	 3.5979081097622684e+03,	 4.2859383610714025e+02,	 3.8338447086949157e+00 
4.9750570000000000e-01,	 1.3340859999999999e-01,	 2.7428715353682763e-02,	 1.5883847537757697e+03,	 4.2061312483730961e+02,	 4.5612219909170335e+02,	 3.5992881330039941e+03,	 4.2861719649588446e+02,	 3.8335643910473696e+00 
5.0155050000000001e-01,	 1.3449239999999998e-01,	 2.7435895120571301e-02,	 1.5883361091641846e+03,	 4.2068111637583809e+02,	 4.5617016623563393e+02,	 3.6006088968665849e+03,	 4.2863973322211638e+02,	 3.8332937364364215e+00 
5.0559520000000002e-01,	 1.3557619999999998e-01,	 2.7442824338880966e-02,	 1.5882887053346089e+03,	 4.2074935246121578e+02,	 4.5621635957267040e+02,	 3.6018829697288847e+03,	 4.2866143542876364e+02,	 3.8330335252302601e+00 
5.0963999999999998e-01,	 1.3665999999999998e-01,	 2.7449254604091467e-02,	 1.5882431961659613e+03,	 4.2081615433074001e+02,	 4.5625992685369511e+02,	 3.6030709944290784e+03,	 4.2868190287472993e+02,	 3.8327878042500458e+00 
5.1368480000000005e-01,	 1.3774380000000000e-01,	 2.7455442691400420e-02,	 1.5881985395671170e+03,	 4.2088395403011407e+02,	 4.5630184138538618e+02,	 3.6042143336401982e+03,	 4.2870159295433712e+02,	 3.8325515831537520e+00 
5.1772949999999995e-01,	 1.3882760000000000e-01,	 2.7461285502515233e-02,	 1.5881553353569689e+03,	 4.2095189207712508e+02,	 4.5634158139811734e+02,	 3.6052953121425339e+03,	 4.2872026068071580e+02,	 3.8323278882779896e+00 
5.2177430000000002e-01,	 1.3991139999999999e-01,	 2.7466648136847023e-02,	 1.5881139331463369e+03,	 4.2101886515038757e+02,	 4.5637862284751145e+02,	 3.6062920540623204e+03,	 4.2873766003488976e+02,	 3.8321190440246133e+00 
5.2581900000000004e-01,	 1.4099519999999999e-01,	 2.7471662995743010e-02,	 1.5880739632115083e+03,	 4.2108611358222385e+02,	 4.5641350176668436e+02,	 3.6072261532765642e+03,	 4.2875404294563367e+02,	 3.8319227026300884e+00 
5.2986380000000000e-01,	 1.4207899999999998e-01,	 2.7476429206196432e-02,	 1.5880342866500948e+03,	 4.2115499388016400e+02,	 4.5644698143610174e+02,	 3.6081166405438044e+03,	 4.2876976802862657e+02,	 3.8317338999754442e+00 
5.3390859999999996e-01,	 1.4316289999999998e-01,	 2.7481001231697586e-02,	 1.5879960034774240e+03,	 4.2122487761470478e+02,	 4.5647850631109770e+02,	 3.6089662632033269e+03,	 4.2878457443606032e+02,	 3.8315570696568235e+00 
5.3795329999999997e-01,	 1.4424669999999998e-01,	 2.7484568864973691e-02,	 1.5879625233248330e+03,	 4.2128725744475753e+02,	 4.5650471522899613e+02,	 3.6096420230449162e+03,	 4.2879688368857535e+02,	 3.8314089116667311e+00 
5.4199810000000004e-01,	 1.4533050000000000e-01,	 2.7487726265217255e-02,	 1.5879314383586329e+03,	 4.2134776035271807e+02,	 4.5652808606065264e+02,	 3.6102415125987923e+03,	 4.2880785971049966e+02,	 3.8312769571789276e+00 
5.4604290000000000e-01,	 1.4641430000000000e-01,	 2.7490698369823263e-02,	 1.5879009281366307e+03,	 4.2140947992487435e+02,	 4.5655021788243783e+02,	 3.6108069074155574e+03,	 4.2881825357716940e+02,	 3.8311522400332305e+00 
5.5008760000000001e-01,	 1.4749809999999999e-01,	 2.7493412919781756e-02,	 1.5878715737693069e+03,	 4.2147095069997818e+02,	 4.5657075721091587e+02,	 3.6113259134366194e+03,	 4.2882789932868269e+02,	 3.8310366751737832e+00 
5.5413239999999997e-01,	 1.4858189999999999e-01,	 2.7497118696020569e-02,	 1.5878647306653484e+03,	 4.2143680387265061e+02,	 4.5660410258304449e+02,	 3.6120764626368023e+03,	 4.2884355863732043e+02,	 3.8308609340289093e+00 
5.5817709999999998e-01,	 1.4966569999999998e-01,	 2.7498824579808429e-02,	 1.5879733119604452e+03,	 4.2096382092777310e+02,	 4.5663826436447096e+02,	 3.6125708126859658e+03,	 4.2885960074669379e+02,	 3.8306795931887621e+00 
2.4943370000000001e-01,	 7.1991070000000004e-02,	 2.6472610222235071e-02,	 1.5975201038787052e+03,	 3.9611788009965670e+02,	 4.5148090069468537e+02,	 3.4384766974477157e+03,	 4.2643091079664686e+02,	 3.8597058660120132e+00 
2.5348749999999998e-01,	 7.3053199999999999e-02,	 2.6492527549843339e-02,	 1.5973830500199883e+03,	 3.9651836672805848e+02,	 4.5156296128200393e+02,	 3.4416891643394893e+03,	 4.2646966280254895e+02,	 3.8592693572721735e+00 
2.5754129999999997e-01,	 7.4115330000000007e-02,	 2.6521416580302062e-02,	 1.5971638686354095e+03,	 3.9709754877547118e+02,	 4.5168427280700479e+02,	 3.4463677987063688e+03,	 4.2652694408488418e+02,	 3.8585797435159432e+00 
2.6159510000000002e-01,	 7.5177469999999996e-02,	 2.6549227373755920e-02,	 1.5969510035806979e+03,	 3.9765966136205827e+02,	 4.5180192099049384e+02,	 3.4508803179565748e+03,	 4.2658248825155005e+02,	 3.8579112626079914e+00 
2.6564900000000002e-01,	 7.6239600000000005e-02,	 2.6575998289408483e-02,	 1.5967441332517840e+03,	 3.9820513894695767e+02,	 4.5191612893307422e+02,	 3.4552332176484665e+03,	 4.2663640129132096e+02,	 3.8572624088056511e+00 
2.6970280000000002e-01,	 7.7301729999999999e-02,	 2.6601860089538232e-02,	 1.5965429227730529e+03,	 3.9873459428077382e+02,	 4.5202736544482065e+02,	 3.4594469086825966e+03,	 4.2668890508797216e+02,	 3.8566307047807689e+00 
2.7375660000000002e-01,	 7.8363870000000002e-02,	 2.6626829517468441e-02,	 1.5963473469526307e+03,	 3.9924769915118998e+02,	 4.5213570821569647e+02,	 3.4635240104990503e+03,	 4.2674003682478929e+02,	 3.8560155174913624e+00 
2.7781040000000001e-01,	 7.9425999999999997e-02,	 2.6651034974062057e-02,	 1.5961567458595348e+03,	 3.9974536375312329e+02,	 4.5224176082079993e+02,	 3.4674857109258878e+03,	 4.2679008179827912e+02,	 3.8554132359240558e+00 
2.8186430000000001e-01,	 8.0488130000000005e-02,	 2.6674565184691894e-02,	 1.5959709752529507e+03,	 4.0022805527693072e+02,	 4.5234585221514868e+02,	 3.4713459630626844e+03,	 4.2683919559375579e+02,	 3.8548223477625743e+00 
2.8591810000000001e-01,	 8.1550270000000008e-02,	 2.6697402749849844e-02,	 1.5957901354524984e+03,	 4.0069537743078831e+02,	 4.5244787822499245e+02,	 3.4751016014630122e+03,	 4.2688732938833692e+02,	 3.8542432534845306e+00 
2.8997190000000000e-01,	 8.2612400000000002e-02,	 2.6719648269704015e-02,	 1.5956135721717535e+03,	 4.0114861729631048e+02,	 4.5254828593576258e+02,	 3.4787690588432069e+03,	 4.2693469440405357e+02,	 3.8536732531465123e+00 
2.9402570000000000e-01,	 8.3674529999999997e-02,	 2.6741355581617776e-02,	 1.5954412031855395e+03,	 4.0158854807231421e+02,	 4.5264720769989543e+02,	 3.4823562819490867e+03,	 4.2698135332066795e+02,	 3.8531120000307442e+00 
2.9807960000000000e-01,	 8.4736670000000000e-02,	 2.6762492794211605e-02,	 1.5952728926335535e+03,	 4.0201533370216509e+02,	 4.5274452511571388e+02,	 3.4858581314642956e+03,	 4.2702725053158855e+02,	 3.8525597476203508e+00 
3.0213340000000000e-01,	 8.5798800000000008e-02,	 2.6783163096823662e-02,	 1.5951082468662648e+03,	 4.0243035681106198e+02,	 4.5284056125949439e+02,	 3.4892904630690923e+03,	 4.2707253862854344e+02,	 3.8520149853132168e+00 
3.0618719999999999e-01,	 8.6860930000000003e-02,	 2.6803310733810988e-02,	 1.5949474155663511e+03,	 4.0283351097634636e+02,	 4.5293504549208797e+02,	 3.4926438629459376e+03,	 4.2711709019914611e+02,	 3.8514791128651642e+00 
3.1024109999999999e-01,	 8.7923070000000006e-02,	 2.6823010058083453e-02,	 1.5947898289192481e+03,	 4.0322593760424940e+02,	 4.5302831402485845e+02,	 3.4959305466141241e+03,	 4.2716106398097310e+02,	 3.8509500325756210e+00 
3.1429489999999999e-01,	 8.8985200000000000e-02,	 2.6842306002068134e-02,	 1.5946354111866249e+03,	 4.0360832248722977e+02,	 4.5312048600509394e+02,	 3.4991572347934612e+03,	 4.2720451631881343e+02,	 3.8504274343760190e+00 
3.1834869999999998e-01,	 9.0047330000000009e-02,	 2.6861143374132659e-02,	 1.5944843540596669e+03,	 4.0398028738689038e+02,	 4.5321128317801168e+02,	 3.5023145306267688e+03,	 4.2724731621484545e+02,	 3.8499126939772754e+00 
3.2240249999999998e-01,	 9.1109469999999998e-02,	 2.6879598182554330e-02,	 1.5943361083345153e+03,	 4.0434288904139697e+02,	 4.5330105023975739e+02,	 3.5054149537537896e+03,	 4.2728962632351414e+02,	 3.8494036848881810e+00 
3.2645639999999998e-01,	 9.2171600000000006e-02,	 2.6897709430373971e-02,	 1.5941906155084246e+03,	 4.0469678398583068e+02,	 4.5338989762044764e+02,	 3.5084644001179063e+03,	 4.2733149883189975e+02,	 3.8489001627986270e+00 
3.3051019999999998e-01,	 9.3233730000000001e-02,	 2.6915428670316436e-02,	 1.5940479333563112e+03,	 4.0504172095140109e+02,	 4.5347790054968664e+02,	 3.5114570909734612e+03,	 4.2737296931809396e+02,	 3.8484017756887225e+00 
3.3456399999999997e-01,	 9.4295870000000004e-02,	 2.6932813099972475e-02,	 1.5939079071955716e+03,	 4.0537844328145877e+02,	 4.5356645389539938e+02,	 3.5144112551982130e+03,	 4.2741469512090038e+02,	 3.8479026659749711e+00 
3.3861780000000002e-01,	 9.5357999999999998e-02,	 2.6949796500362725e-02,	 1.5937708155631972e+03,	 4.0570646208123571e+02,	 4.5365491082027313e+02,	 3.5173132178658452e+03,	 4.2745637142440847e+02,	 3.8474059143974806e+00 
3.4267170000000002e-01,	 9.6420130000000007e-02,	 2.6966446931567325e-02,	 1.5936361416257855e+03,	 4.0602703788531932e+02,	 4.5373981569701903e+02,	 3.5201450224414248e+03,	 4.2749637036599523e+02,	 3.8469257114615147e+00 
3.4672550000000002e-01,	 9.7482270000000010e-02,	 2.6982795475398107e-02,	 1.5935036712204426e+03,	 4.0634129109852472e+02,	 4.5382081140918979e+02,	 3.5229078793497524e+03,	 4.2753452420073796e+02,	 3.8464637067416674e+00 
3.5077930000000002e-01,	 9.8544400000000004e-02,	 2.6998787038647793e-02,	 1.5933734525155778e+03,	 4.0664895258916573e+02,	 4.5390079824238950e+02,	 3.5256170456694663e+03,	 4.2757219945176115e+02,	 3.8460075414053851e+00 
3.5483310000000001e-01,	 9.9606529999999999e-02,	 2.7014471084949990e-02,	 1.5932454420215965e+03,	 4.0695050305078104e+02,	 4.5398113266545977e+02,	 3.5282894854493152e+03,	 4.2761003508282005e+02,	 3.8455516359744921e+00 
3.5888700000000001e-01,	 1.0066870000000000e-01,	 2.7029774436858608e-02,	 1.5931199961610046e+03,	 4.0724519206974958e+02,	 4.5406085096680584e+02,	 3.5309081287598706e+03,	 4.2764757722592958e+02,	 3.8451004357186207e+00 
3.6294080000000001e-01,	 1.0173080000000000e-01,	 2.7044759259775390e-02,	 1.5929965964330759e+03,	 4.0753402119310118e+02,	 4.5413951962848893e+02,	 3.5334776903420602e+03,	 4.2768462182627252e+02,	 3.8446551688760162e+00 
3.6699460000000000e-01,	 1.0279290000000001e-01,	 2.7059457824718601e-02,	 1.5928753644005474e+03,	 4.0781715754230055e+02,	 4.5421710432591084e+02,	 3.5360020848069012e+03,	 4.2772115285195792e+02,	 3.8442163405042273e+00 
3.7104850000000000e-01,	 1.0385510000000001e-01,	 2.7073790312958729e-02,	 1.5927565009297584e+03,	 4.0809415163718478e+02,	 4.5429327777497713e+02,	 3.5384682979437739e+03,	 4.2775701635123517e+02,	 3.8437855170036692e+00 
3.7510230000000000e-01,	 1.0491720000000000e-01,	 2.7087817758707364e-02,	 1.5926396160662007e+03,	 4.0836589452540869e+02,	 4.5436828704690623e+02,	 3.5408861919636188e+03,	 4.2779232880202716e+02,	 3.8433612739409231e+00 
3.7915610000000000e-01,	 1.0597930000000000e-01,	 2.7101530499853116e-02,	 1.5925250380075238e+03,	 4.0863193016590742e+02,	 4.5444198667954305e+02,	 3.5432533356406793e+03,	 4.2782702186929771e+02,	 3.8429446930446796e+00 
3.8320989999999999e-01,	 1.0704150000000000e-01,	 2.7114897403095736e-02,	 1.5924126158878730e+03,	 4.0889232392183027e+02,	 4.5451432210447223e+02,	 3.5455651967659037e+03,	 4.2786107001948568e+02,	 3.8425356889861493e+00 
3.8726379999999999e-01,	 1.0810360000000001e-01,	 2.7127991219391953e-02,	 1.5923021892038710e+03,	 4.0914781197926010e+02,	 4.5458549845841873e+02,	 3.5478328534659058e+03,	 4.2789456995262725e+02,	 3.8421334475382700e+00 
3.9131759999999999e-01,	 1.0916570000000000e-01,	 2.7140743524262771e-02,	 1.5921940721070114e+03,	 4.0939752140922138e+02,	 4.5465526319940835e+02,	 3.5500453539465429e+03,	 4.2792740294960583e+02,	 3.8417392282336027e+00 
3.9537139999999998e-01,	 1.1022790000000000e-01,	 2.7153231650098062e-02,	 1.5920876831744204e+03,	 4.0964233308702950e+02,	 4.5472403263653831e+02,	 3.5522160309341311e+03,	 4.2795976506690107e+02,	 3.8413504576791979e+00 
3.9942519999999998e-01,	 1.1129000000000000e-01,	 2.7165572023715723e-02,	 1.5919820906605032e+03,	 4.0988408135995411e+02,	 4.5479252402638946e+02,	 3.5543656969931335e+03,	 4.2799199390609658e+02,	 3.8409630581570227e+00 
4.0347909999999998e-01,	 1.1235210000000000e-01,	 2.7177739369954386e-02,	 1.5918783335034595e+03,	 4.1012172047413100e+02,	 4.5486029579405010e+02,	 3.5564875802980891e+03,	 4.2802388173618647e+02,	 3.8405806304027914e+00 
4.0753289999999998e-01,	 1.1341430000000001e-01,	 2.7189468568266460e-02,	 1.5917774794645516e+03,	 4.1035207850214459e+02,	 4.5492616848316425e+02,	 3.5585377383175619e+03,	 4.2805487373925791e+02,	 3.8402087106489655e+00 
4.1158670000000003e-01,	 1.1447640000000001e-01,	 2.7200959483192004e-02,	 1.5916785594877383e+03,	 4.1057727903462637e+02,	 4.5499094450182054e+02,	 3.5605485679940025e+03,	 4.2808534758914379e+02,	 3.8398429454980976e+00 
4.1564050000000002e-01,	 1.1553850000000000e-01,	 2.7212207460706565e-02,	 1.5915814623866008e+03,	 4.1079719630684627e+02,	 4.5505479210455712e+02,	 3.5625207530687167e+03,	 4.2811538254340417e+02,	 3.8394822909507891e+00 
4.1969440000000002e-01,	 1.1660070000000000e-01,	 2.7223285820718614e-02,	 1.5914859444823678e+03,	 4.1101260488721584e+02,	 4.5511801866283975e+02,	 3.5644662785589221e+03,	 4.2814512327186850e+02,	 3.8391253432649624e+00 
4.2374820000000002e-01,	 1.1766280000000000e-01,	 2.7234133484373424e-02,	 1.5913922651125895e+03,	 4.1122278087331875e+02,	 4.5518038041558566e+02,	 3.5663752209555928e+03,	 4.2817445518651323e+02,	 3.8387732869892512e+00 
4.2780200000000002e-01,	 1.1872490000000001e-01,	 2.7244836016352449e-02,	 1.5912998644630654e+03,	 4.1142854336219648e+02,	 4.5524233195141812e+02,	 3.5682623292981839e+03,	 4.2820359216575781e+02,	 3.8384234106491726e+00 
4.3185590000000001e-01,	 1.1978710000000001e-01,	 2.7255429532501950e-02,	 1.5912086914647484e+03,	 4.1163037298028553e+02,	 4.5530404184123563e+02,	 3.5701336445768316e+03,	 4.2823261352341223e+02,	 3.8380751637495290e+00 
4.3590970000000001e-01,	 1.2084920000000000e-01,	 2.7265858055374476e-02,	 1.5911188533025124e+03,	 4.1182775190034840e+02,	 4.5536530027633626e+02,	 3.5719801796301408e+03,	 4.2826142062267292e+02,	 3.8377293650751656e+00 
4.3996350000000001e-01,	 1.2191130000000000e-01,	 2.7276195751085398e-02,	 1.5910301666902060e+03,	 4.1202124845989232e+02,	 4.5542638273893380e+02,	 3.5738138009046183e+03,	 4.2829014304069938e+02,	 3.8373847667958043e+00 
4.4401730000000000e-01,	 1.2297350000000000e-01,	 2.7286453887741192e-02,	 1.5909419347562991e+03,	 4.1221156654115134e+02,	 4.5548762058431441e+02,	 3.5756385798056085e+03,	 4.2831893658994659e+02,	 3.8370388062267096e+00 
4.4807120000000000e-01,	 1.2403560000000001e-01,	 2.7296758276551959e-02,	 1.5908542143160437e+03,	 4.1240005162618172e+02,	 4.5554925639892070e+02,	 3.5774729071819243e+03,	 4.2834791530675665e+02,	 3.8366913762061290e+00 
4.5212500000000000e-01,	 1.2509770000000001e-01,	 2.7306770301738066e-02,	 1.5907688485973672e+03,	 4.1258269323666673e+02,	 4.5560964808453809e+02,	 3.5792595042172729e+03,	 4.2837630718204184e+02,	 3.8363512042150996e+00 
4.5617880000000000e-01,	 1.2615989999999999e-01,	 2.7316560599838842e-02,	 1.5906851792270277e+03,	 4.1276056492467370e+02,	 4.5566904548749881e+02,	 3.5810095683631284e+03,	 4.2840422978092181e+02,	 3.8360163713069220e+00 
4.6023259999999999e-01,	 1.2722200000000000e-01,	 2.7326243553230285e-02,	 1.5906022518315606e+03,	 4.1293575900184487e+02,	 4.5572815053460522e+02,	 3.5827435947547465e+03,	 4.2843201313749483e+02,	 3.8356829874817562e+00 
4.6428649999999999e-01,	 1.2828409999999998e-01,	 2.7335849161026479e-02,	 1.5905201729154755e+03,	 4.1310864495868867e+02,	 4.5578702494598815e+02,	 3.5844659945525113e+03,	 4.2845968628865694e+02,	 3.8353512473429201e+00 
4.6834029999999999e-01,	 1.2934630000000000e-01,	 2.7345285020805993e-02,	 1.5904390620841766e+03,	 4.1327890727963745e+02,	 4.5584532151339852e+02,	 3.5861619124016265e+03,	 4.2848708607077691e+02,	 3.8350226936681207e+00 
4.7239409999999998e-01,	 1.3040839999999998e-01,	 2.7354600043608256e-02,	 1.5903588434011679e+03,	 4.1344738749958401e+02,	 4.5590305558255085e+02,	 3.5878378710091079e+03,	 4.2851421974819624e+02,	 3.8346975806274526e+00 