TITLE = "Final State"
VARIABLES = "X", "Y", "rho", "u", "v", "T", "p", "c", "M"
ZONE I=77, J=27, DATAPACKING=POINT, STRANDID=77000, SOLUTIONTIME=0.001858
2.5077519999999998e-01,	 6.7296190000000006e-02,	 2.6598094311111015e-02,	 1.5933326833307594e+03,	 4.1239019645208759e+02,	 4.5175552968103511e+02,	 3.4568770732962685e+03,	 4.2656058680831347e+02,	 3.8583864004060087e+00 
2.5481999999999999e-01,	 6.8379999999999996e-02,	 2.6613919578930292e-02,	 1.5932581601373211e+03,	 4.1255864422509256e+02,	 4.5181901790853078e+02,	 3.4594199445136373e+03,	 4.2659055946207729e+02,	 3.8580451489379115e+00 
2.5886480000000001e-01,	 6.9463810000000001e-02,	 2.6637359715409894e-02,	 1.5931323895359983e+03,	 4.1280263999122303e+02,	 4.5191670887516688e+02,	 3.4632154634120288e+03,	 4.2663667504159474e+02,	 3.8574861578471418e+00 
2.6290950000000002e-01,	 7.0547620000000005e-02,	 2.6660258818135635e-02,	 1.5930068507688347e+03,	 4.1304734624464413e+02,	 4.5201371366959131e+02,	 3.4669366800754501e+03,	 4.2668246177784090e+02,	 3.8569313060788430e+00 
2.6695429999999998e-01,	 7.1631429999999996e-02,	 2.6682514705685171e-02,	 1.5928827183348544e+03,	 4.1328915237488133e+02,	 4.5210929459093279e+02,	 3.4705645821264175e+03,	 4.2672757163388826e+02,	 3.8563842761411937e+00 
2.7099899999999999e-01,	 7.2715240000000000e-02,	 2.6704221896859986e-02,	 1.5927604386899175e+03,	 4.1352725455301601e+02,	 4.5220347206237500e+02,	 3.4741115425708686e+03,	 4.2677201446167828e+02,	 3.8558455096003845e+00 
2.7504380000000000e-01,	 7.3799050000000005e-02,	 2.6725242655959290e-02,	 1.5926407521290930e+03,	 4.1375941216740773e+02,	 4.5229567206981983e+02,	 3.4775551545715275e+03,	 4.2681551963120398e+02,	 3.8553178001030086e+00 
2.7908860000000002e-01,	 7.4882860000000009e-02,	 2.6745790565208108e-02,	 1.5925229207999732e+03,	 4.1398698487932279e+02,	 4.5238678613452299e+02,	 3.4809299849124254e+03,	 4.2685850803563477e+02,	 3.8547964613344363e+00 
2.8313329999999998e-01,	 7.5966670000000000e-02,	 2.6765847661958553e-02,	 1.5924073602244923e+03,	 4.1420888574076662e+02,	 4.5247665614443980e+02,	 3.4842324213505944e+03,	 4.2690090524362341e+02,	 3.8542824572955077e+00 
2.8717809999999999e-01,	 7.7050480000000005e-02,	 2.6785316173199333e-02,	 1.5922946160721349e+03,	 4.1442339581751764e+02,	 4.5256483987545016e+02,	 3.4874462664677812e+03,	 4.2694250283772988e+02,	 3.8537778814174839e+00 
2.9122290000000001e-01,	 7.8134290000000009e-02,	 2.6804425373024608e-02,	 1.5921837175503615e+03,	 4.1463250801565368e+02,	 4.5265235468339426e+02,	 3.4906091496046010e+03,	 4.2698378088422646e+02,	 3.8532773638914595e+00 
2.9526760000000002e-01,	 7.9218100000000000e-02,	 2.6823131353840200e-02,	 1.5920750212704829e+03,	 4.1483548080112519e+02,	 4.5273899128682353e+02,	 3.4937136986297296e+03,	 4.2702464077837692e+02,	 3.8527821567529013e+00 
2.9931239999999998e-01,	 8.0301900000000009e-02,	 2.6841397159673628e-02,	 1.5919684920376708e+03,	 4.1503189266761399e+02,	 4.5282465018316537e+02,	 3.4967542864178022e+03,	 4.2706503571909616e+02,	 3.8522923442523904e+00 
3.0335709999999999e-01,	 8.1385710000000000e-02,	 2.6859396760964382e-02,	 1.5918637096640173e+03,	 4.1522328187748377e+02,	 4.5290986845418786e+02,	 3.4997576833706203e+03,	 4.2710521907908520e+02,	 3.8518055889374216e+00 
3.0740190000000001e-01,	 8.2469520000000004e-02,	 2.6876936282387496e-02,	 1.5917612436031372e+03,	 4.1540802263997381e+02,	 4.5299394418501373e+02,	 3.5026931691079608e+03,	 4.2714485998734625e+02,	 3.8513251965473092e+00 
3.1144670000000002e-01,	 8.3553330000000009e-02,	 2.6894235522591358e-02,	 1.5916601201314952e+03,	 4.1558842774327286e+02,	 4.5307776200965941e+02,	 3.5055961877698110e+03,	 4.2718437563369332e+02,	 3.8508465589048728e+00 
3.1549139999999998e-01,	 8.4637140000000000e-02,	 2.6911252260102471e-02,	 1.5915606488128246e+03,	 4.1576412073907613e+02,	 4.5316103602625265e+02,	 3.5084590001382189e+03,	 4.2722363128399752e+02,	 3.8503713638894825e+00 
3.1953619999999999e-01,	 8.5720950000000004e-02,	 2.6927850179736576e-02,	 1.5914633234527955e+03,	 4.1593383557759000e+02,	 4.5324317798516518e+02,	 3.5112592459199768e+03,	 4.2726234974503518e+02,	 3.8499024721461717e+00 
3.2358100000000001e-01,	 8.6804760000000009e-02,	 2.6944244257077313e-02,	 1.5913671394017342e+03,	 4.1609990779691839e+02,	 4.5332510628457050e+02,	 3.5140320351055575e+03,	 4.2730096400078793e+02,	 3.8494350824526902e+00 
3.2762570000000002e-01,	 8.7888569999999999e-02,	 2.6960385454686694e-02,	 1.5912723473042215e+03,	 4.1626201781549622e+02,	 4.5340659039726955e+02,	 3.5167691656645425e+03,	 4.2733936544264611e+02,	 3.8489705474427698e+00 
3.3167049999999998e-01,	 8.8972380000000004e-02,	 2.6976199604974542e-02,	 1.5911792066913067e+03,	 4.1641932821364151e+02,	 4.5348671008413748e+02,	 3.5194537954584243e+03,	 4.2737712050011089e+02,	 3.8485128580988079e+00 
3.3571519999999999e-01,	 9.0056190000000008e-02,	 2.6991792553889567e-02,	 1.5910877380849913e+03,	 4.1657237636936509e+02,	 4.5356313115852811e+02,	 3.5220815690517688e+03,	 4.2741312954086726e+02,	 3.8480722717776166e+00 
3.3976000000000001e-01,	 9.1139999999999999e-02,	 2.7006998201204550e-02,	 1.5909984321824982e+03,	 4.1671960212063743e+02,	 4.5363589795502628e+02,	 3.5246310891296835e+03,	 4.2744741389375025e+02,	 3.8476487691466152e+00 
3.4380480000000002e-01,	 9.2223810000000003e-02,	 2.7022031828335982e-02,	 1.5909098853935154e+03,	 4.1686425419666034e+02,	 4.5371347123999692e+02,	 3.5271961581653063e+03,	 4.2748395981390831e+02,	 3.8472052115190225e+00 
3.4784949999999998e-01,	 9.3307620000000008e-02,	 2.7036844000124009e-02,	 1.5908221287001393e+03,	 4.1700718447556591e+02,	 4.5379656065496653e+02,	 3.5297758928653557e+03,	 4.2752310099920095e+02,	 3.8467391820490326e+00 
3.5189429999999999e-01,	 9.4391429999999998e-02,	 2.7051339179967333e-02,	 1.5907356582387752e+03,	 4.1714726963528733e+02,	 4.5387840064535226e+02,	 3.5323052198417795e+03,	 4.2756165011145799e+02,	 3.8462798227155894e+00 
3.5593900000000001e-01,	 9.5475240000000003e-02,	 2.7065612509758412e-02,	 1.5906505945349318e+03,	 4.1728459067308529e+02,	 4.5395660663148624e+02,	 3.5347779589358947e+03,	 4.2759848425048011e+02,	 3.8458375478299729e+00 
3.5998380000000002e-01,	 9.6559050000000007e-02,	 2.7079487882823189e-02,	 1.5905674792960021e+03,	 4.1741749059019412e+02,	 4.5403176293057760e+02,	 3.5371755992138928e+03,	 4.2763387903170872e+02,	 3.8454101089374189e+00 
3.6402859999999998e-01,	 9.7642859999999998e-02,	 2.7093176907342423e-02,	 1.5904852676773892e+03,	 4.1754843942059335e+02,	 4.5410624484592597e+02,	 3.5395442377740005e+03,	 4.2766895332257542e+02,	 3.8449865392280729e+00 
3.6807329999999999e-01,	 9.8726670000000002e-02,	 2.7106620065105360e-02,	 1.5904043838451241e+03,	 4.1767675750612580e+02,	 4.5417983097707065e+02,	 3.5418743511766993e+03,	 4.2770360295493384e+02,	 3.8445683273796987e+00 
3.7211810000000001e-01,	 9.9810480000000007e-02,	 2.7119687930371096e-02,	 1.5903253178993587e+03,	 4.1780122445269240e+02,	 4.5425194905262896e+02,	 3.5441445343998985e+03,	 4.2773755859793204e+02,	 3.8441582728252834e+00 
3.7616290000000002e-01,	 1.0089430000000001e-01,	 2.7132552482562536e-02,	 1.5902473278290074e+03,	 4.1792387640201116e+02,	 4.5432326676716093e+02,	 3.5463824381325398e+03,	 4.2777113475310534e+02,	 3.8437530753548326e+00 
3.8020759999999998e-01,	 1.0197810000000000e-01,	 2.7145089061298318e-02,	 1.5901710225570414e+03,	 4.1804333112934842e+02,	 4.5439324298950078e+02,	 3.5485675186633957e+03,	 4.2780407677664977e+02,	 3.8433555743546832e+00 
3.8425239999999999e-01,	 1.0306190000000000e-01,	 2.7157321074360155e-02,	 1.5900962051508418e+03,	 4.1815984872987764e+02,	 4.5446196488771841e+02,	 3.5507034831787328e+03,	 4.2783642584562494e+02,	 3.8429651038423494e+00 
3.8829710000000001e-01,	 1.0414570000000001e-01,	 2.7169340525277474e-02,	 1.5900225922457403e+03,	 4.1827456754528851e+02,	 4.5452975891507037e+02,	 3.5528048829277723e+03,	 4.2786833574676825e+02,	 3.8425803140386852e+00 
3.9234190000000002e-01,	 1.0522950000000000e-01,	 2.7180978904043071e-02,	 1.5899507407015114e+03,	 4.1838574039595017e+02,	 4.5459601445229413e+02,	 3.5548448824435395e+03,	 4.2789951919833487e+02,	 3.8422040003724853e+00 
3.9638669999999998e-01,	 1.0631330000000000e-01,	 2.7192469530090239e-02,	 1.5898794237921475e+03,	 4.1849595753307568e+02,	 4.5466190220995793e+02,	 3.5568631219198842e+03,	 4.2793052729941689e+02,	 3.8418299779744007e+00 
4.0043139999999999e-01,	 1.0739710000000001e-01,	 2.7204006702160215e-02,	 1.5898074476383979e+03,	 4.1860757194916130e+02,	 4.5472839814221390e+02,	 3.5588926460957409e+03,	 4.2796181934176371e+02,	 3.8414528248837767e+00 
4.0447620000000001e-01,	 1.0848100000000001e-01,	 2.7215258857739309e-02,	 1.5897373685638393e+03,	 4.1871591722381402e+02,	 4.5479345015070004e+02,	 3.5608740142892689e+03,	 4.2799242968017768e+02,	 3.8410842084756243e+00 
4.0852100000000002e-01,	 1.0956480000000000e-01,	 2.7225870126838088e-02,	 1.5896705915138414e+03,	 4.1881701619692490e+02,	 4.5485555817629944e+02,	 3.5627488780286490e+03,	 4.2802165267944218e+02,	 3.8407312618585028e+00 
4.1256569999999998e-01,	 1.1064860000000000e-01,	 2.7236396821747499e-02,	 1.5896048411584891e+03,	 4.1891681132527009e+02,	 4.5491708102774459e+02,	 3.5646084669047109e+03,	 4.2805059837626726e+02,	 3.8403824131698081e+00 
4.1661049999999999e-01,	 1.1173240000000001e-01,	 2.7246694134362384e-02,	 1.5895400192150150e+03,	 4.1901433416635990e+02,	 4.5497790200960935e+02,	 3.5664329018314038e+03,	 4.2807921192876250e+02,	 3.8400373534540435e+00 
4.2065520000000001e-01,	 1.1281620000000001e-01,	 2.7256889722559734e-02,	 1.5894760883293579e+03,	 4.1911011620315901e+02,	 4.5503826682533395e+02,	 3.5682408031222512e+03,	 4.2810760898449462e+02,	 3.8396952749165392e+00 
4.2470000000000002e-01,	 1.1390000000000000e-01,	 2.7266804732687881e-02,	 1.5894134602239919e+03,	 4.1920275761970925e+02,	 4.5509765506162199e+02,	 3.5700046620058265e+03,	 4.2813554479582126e+02,	 3.8393584664040392e+00 
4.2874479999999998e-01,	 1.1498380000000000e-01,	 2.7276695181556555e-02,	 1.5893510713266119e+03,	 4.1929440748201978e+02,	 4.5515715633757765e+02,	 3.5717665305653618e+03,	 4.2816353195231994e+02,	 3.8390212067594391e+00 
4.3278949999999999e-01,	 1.1606760000000001e-01,	 2.7286506171826413e-02,	 1.5892892958037742e+03,	 4.1938441135846364e+02,	 4.5521651954376694e+02,	 3.5735172477449023e+03,	 4.2819145234309178e+02,	 3.8386850095382976e+00 
4.3683430000000001e-01,	 1.1715140000000000e-01,	 2.7296144751515608e-02,	 1.5892283105027436e+03,	 4.1947195808823017e+02,	 4.5527542739007379e+02,	 3.5752421418143226e+03,	 4.2821915676417944e+02,	 3.8383511268809771e+00 
4.4087900000000002e-01,	 1.1823520000000000e-01,	 2.7305743307476468e-02,	 1.5891677132401555e+03,	 4.1955819400180985e+02,	 4.5533445443056712e+02,	 3.5769630559570778e+03,	 4.2824691544470107e+02,	 3.8380169101604182e+00 
4.4492379999999998e-01,	 1.1931900000000001e-01,	 2.7315399938948291e-02,	 1.5891064128064459e+03,	 4.1964452849359418e+02,	 4.5539434779694113e+02,	 3.5786987127755860e+03,	 4.2827507969381247e+02,	 3.8376775877498162e+00 
4.4896860000000000e-01,	 1.2040290000000001e-01,	 2.7325166046850355e-02,	 1.5890452708217426e+03,	 4.1973067440031127e+02,	 4.5545466265101481e+02,	 3.5804523606354287e+03,	 4.2830344027163511e+02,	 3.8373368101695129e+00 
4.5301330000000001e-01,	 1.2148670000000000e-01,	 2.7334330555876647e-02,	 1.5889873495190072e+03,	 4.1980914302088149e+02,	 4.5551234129768363e+02,	 3.5821067778024458e+03,	 4.2833055952493089e+02,	 3.8370099027467637e+00 
4.5705810000000002e-01,	 1.2257050000000000e-01,	 2.7343382557214423e-02,	 1.5889306396599345e+03,	 4.1988499467413317e+02,	 4.5556936947556608e+02,	 3.5837416364329038e+03,	 4.2835737125387698e+02,	 3.8366869762118210e+00 
4.6110289999999998e-01,	 1.2365430000000001e-01,	 2.7352488148690412e-02,	 1.5888735560612113e+03,	 4.1996132106414939e+02,	 4.5562698793169864e+02,	 3.5853884616998098e+03,	 4.2838445879719285e+02,	 3.8363610707345615e+00 
4.6514759999999999e-01,	 1.2473810000000000e-01,	 2.7361557885086950e-02,	 1.5888166814906581e+03,	 4.2003703832674114e+02,	 4.5568468202472604e+02,	 3.5870314837274550e+03,	 4.2841158018280527e+02,	 3.8360350228402087e+00 
4.6919240000000001e-01,	 1.2582189999999999e-01,	 2.7370473601404641e-02,	 1.5887604421337692e+03,	 4.2011104741240160e+02,	 4.5574187211617419e+02,	 3.5886506439738209e+03,	 4.2843846294815239e+02,	 3.8357115775935142e+00 
4.7323710000000002e-01,	 1.2690569999999998e-01,	 2.7379333999859347e-02,	 1.5887047112081268e+03,	 4.2018455742298488e+02,	 4.5579873794389869e+02,	 3.5902602895732716e+03,	 4.2846519161778417e+02,	 3.8353904121616043e+00 
4.7728189999999998e-01,	 1.2798949999999998e-01,	 2.7387916045649597e-02,	 1.5886501434625088e+03,	 4.2025585645220690e+02,	 4.5585446735924609e+02,	 3.5918247659006956e+03,	 4.2849138452136481e+02,	 3.8350753970521962e+00 
4.8132670000000000e-01,	 1.2907330000000000e-01,	 2.7396454637495148e-02,	 1.5885954411394441e+03,	 4.2032795799817598e+02,	 4.5591019067696993e+02,	 3.5933837698374296e+03,	 4.2851757295828958e+02,	 3.8347606456084549e+00 
4.8537140000000001e-01,	 1.3015710000000000e-01,	 2.7405134495436884e-02,	 1.5885394709697057e+03,	 4.2040339071601079e+02,	 4.5596671994344894e+02,	 3.5949679329255837e+03,	 4.2854413853384045e+02,	 3.8344416967499648e+00 
4.8941620000000002e-01,	 1.3124100000000000e-01,	 2.7413528303868985e-02,	 1.5884852761943123e+03,	 4.2047706624560391e+02,	 4.5602145081603533e+02,	 3.5965006667238627e+03,	 4.2856985739645819e+02,	 3.8341333286983947e+00 
4.9346099999999998e-01,	 1.3232479999999999e-01,	 2.7421187680320282e-02,	 1.5884344982362309e+03,	 4.2054476053380233e+02,	 4.5607248152735644e+02,	 3.5979081097622411e+03,	 4.2859383610713769e+02,	 3.8338447086949423e+00 
4.9750570000000000e-01,	 1.3340859999999999e-01,	 2.7428715353683047e-02,	 1.5883847537757711e+03,	 4.2061312483730660e+02,	 4.5612219909170346e+02,	 3.5992881330040323e+03,	 4.2861719649588451e+02,	 3.8335643910473700e+00 
5.0155050000000001e-01,	 1.3449239999999998e-01,	 2.7435895120571749e-02,	 1.5883361091641846e+03,	 4.2068111637583490e+02,	 4.5617016623563683e+02,	 3.6006088968666668e+03,	 4.2863973322211768e+02,	 3.8332937364364081e+00 
5.0559520000000002e-01,	 1.3557619999999998e-01,	 2.7442824338881538e-02,	 1.5882887053346089e+03,	 4.2074935246121277e+02,	 4.5621635957267392e+02,	 3.6018829697289880e+03,	 4.2866143542876534e+02,	 3.8330335252302428e+00 
5.0963999999999998e-01,	 1.3665999999999998e-01,	 2.7449254604092151e-02,	 1.5882431961659613e+03,	 4.2081615433073722e+02,	 4.5625992685369977e+02,	 3.6030709944292048e+03,	 4.2868190287473209e+02,	 3.8327878042500250e+00 
5.1368480000000005e-01,	 1.3774380000000000e-01,	 2.7455442691401204e-02,	 1.5881985395671168e+03,	 4.2088395403011168e+02,	 4.5630184138539164e+02,	 3.6042143336403442e+03,	 4.2870159295433973e+02,	 3.8325515831537271e+00 
5.1772949999999995e-01,	 1.3882760000000000e-01,	 2.7461285502516093e-02,	 1.5881553353569684e+03,	 4.2095189207712303e+02,	 4.5634158139812359e+02,	 3.6052953121426963e+03,	 4.2872026068071870e+02,	 3.8323278882779612e+00 
5.2177430000000002e-01,	 1.3991139999999999e-01,	 2.7466648136847946e-02,	 1.5881139331463369e+03,	 4.2101886515038581e+02,	 4.5637862284751827e+02,	 3.6062920540624955e+03,	 4.2873766003489294e+02,	 3.8321190440245836e+00 
5.2581900000000004e-01,	 1.4099519999999999e-01,	 2.7471662995743992e-02,	 1.5880739632115074e+03,	 4.2108611358222242e+02,	 4.5641350176669209e+02,	 3.6072261532767543e+03,	 4.2875404294563731e+02,	 3.8319227026300533e+00 
5.2986380000000000e-01,	 1.4207899999999998e-01,	 2.7476429206197452e-02,	 1.5880342866500928e+03,	 4.2115499388016275e+02,	 4.5644698143611174e+02,	 3.6081166405440176e+03,	 4.2876976802863123e+02,	 3.8317338999753967e+00 
5.3390859999999996e-01,	 1.4316289999999998e-01,	 2.7481001231698630e-02,	 1.5879960034774222e+03,	 4.2122487761470381e+02,	 4.5647850631110686e+02,	 3.6089662632035365e+03,	 4.2878457443606464e+02,	 3.8315570696567809e+00 
5.3795329999999997e-01,	 1.4424669999999998e-01,	 2.7484568864974745e-02,	 1.5879625233248312e+03,	 4.2128725744475673e+02,	 4.5650471522900511e+02,	 3.6096420230451258e+03,	 4.2879688368857961e+02,	 3.8314089116666881e+00 
5.4199810000000004e-01,	 1.4533050000000000e-01,	 2.7487726265218317e-02,	 1.5879314383586307e+03,	 4.2134776035271739e+02,	 4.5652808606066299e+02,	 3.6102415125990137e+03,	 4.2880785971050449e+02,	 3.8312769571788783e+00 
5.4604290000000000e-01,	 1.4641430000000000e-01,	 2.7490698369824332e-02,	 1.5879009281366284e+03,	 4.2140947992487366e+02,	 4.5655021788244892e+02,	 3.6108069074157852e+03,	 4.2881825357717457e+02,	 3.8311522400331790e+00 
5.5008760000000001e-01,	 1.4749809999999999e-01,	 2.7493412919782807e-02,	 1.5878715737693044e+03,	 4.2147095069997761e+02,	 4.5657075721092781e+02,	 3.6113259134368518e+03,	 4.2882789932868832e+02,	 3.8310366751737268e+00 
5.5413239999999997e-01,	 1.4858189999999999e-01,	 2.7497118696021623e-02,	 1.5878647306653452e+03,	 4.2143680387264988e+02,	 4.5660410258305734e+02,	 3.6120764626370424e+03,	 4.2884355863732651e+02,	 3.8308609340288471e+00 
5.5817709999999998e-01,	 1.4966569999999998e-01,	 2.7498824579809476e-02,	 1.5879733119604423e+03,	 4.2096382092777242e+02,	 4.5663826436448380e+02,	 3.6125708126862050e+03,	 4.2885960074669981e+02,	 3.8306795931887008e+00 
2.4943370000000001e-01,	 7.1991070000000004e-02,	 2.6472610222235141e-02,	 1.5975201038787036e+03,	 3.9611788009965596e+02,	 4.5148090069468810e+02,	 3.4384766974477457e+03,	 4.2643091079664816e+02,	 3.8597058660119972e+00 
2.5348749999999998e-01,	 7.3053199999999999e-02,	 2.6492527549843412e-02,	 1.5973830500199865e+03,	 3.9651836672805769e+02,	 4.5156296128200700e+02,	 3.4416891643395224e+03,	 4.2646966280255043e+02,	 3.8592693572721561e+00 
2.5754129999999997e-01,	 7.4115330000000007e-02,	 2.6521416580302139e-02,	 1.5971638686354074e+03,	 3.9709754877547033e+02,	 4.5168427280700814e+02,	 3.4463677987064048e+03,	 4.2652694408488577e+02,	 3.8585797435159233e+00 
2.6159510000000002e-01,	 7.5177469999999996e-02,	 2.6549227373755990e-02,	 1.5969510035806959e+03,	 3.9765966136205748e+02,	 4.5180192099049759e+02,	 3.4508803179566125e+03,	 4.2658248825155187e+02,	 3.8579112626079701e+00 
2.6564900000000002e-01,	 7.6239600000000005e-02,	 2.6575998289408560e-02,	 1.5967441332517819e+03,	 3.9820513894695699e+02,	 4.5191612893307877e+02,	 3.4552332176485111e+03,	 4.2663640129132312e+02,	 3.8572624088056267e+00 
2.6970280000000002e-01,	 7.7301729999999999e-02,	 2.6601860089538305e-02,	 1.5965429227730513e+03,	 3.9873459428077331e+02,	 4.5202736544482406e+02,	 3.4594469086826321e+03,	 4.2668890508797375e+02,	 3.8566307047807507e+00 
2.7375660000000002e-01,	 7.8363870000000002e-02,	 2.6626829517468521e-02,	 1.5963473469526289e+03,	 3.9924769915118952e+02,	 4.5213570821570067e+02,	 3.4635240104990930e+03,	 4.2674003682479128e+02,	 3.8560155174913402e+00 
2.7781040000000001e-01,	 7.9425999999999997e-02,	 2.6651034974062147e-02,	 1.5961567458595330e+03,	 3.9974536375312277e+02,	 4.5224176082080402e+02,	 3.4674857109259310e+03,	 4.2679008179828105e+02,	 3.8554132359240345e+00 
2.8186430000000001e-01,	 8.0488130000000005e-02,	 2.6674565184691981e-02,	 1.5959709752529484e+03,	 4.0022805527693026e+02,	 4.5234585221515295e+02,	 3.4713459630627281e+03,	 4.2683919559375778e+02,	 3.8548223477625512e+00 
2.8591810000000001e-01,	 8.1550270000000008e-02,	 2.6697402749849934e-02,	 1.5957901354524959e+03,	 4.0069537743078791e+02,	 4.5244787822499643e+02,	 3.4751016014630550e+03,	 4.2688732938833880e+02,	 3.8542432534845079e+00 
2.8997190000000000e-01,	 8.2612400000000002e-02,	 2.6719648269704098e-02,	 1.5956135721717515e+03,	 4.0114861729631019e+02,	 4.5254828593576690e+02,	 3.4787690588432511e+03,	 4.2693469440405562e+02,	 3.8536732531464897e+00 
2.9402570000000000e-01,	 8.3674529999999997e-02,	 2.6741355581617852e-02,	 1.5954412031855368e+03,	 4.0158854807231387e+02,	 4.5264720769989987e+02,	 3.4823562819491303e+03,	 4.2698135332067000e+02,	 3.8531120000307193e+00 
2.9807960000000000e-01,	 8.4736670000000000e-02,	 2.6762492794211678e-02,	 1.5952728926335512e+03,	 4.0201533370216481e+02,	 4.5274452511571894e+02,	 3.4858581314643443e+03,	 4.2702725053159094e+02,	 3.8525597476203237e+00 
3.0213340000000000e-01,	 8.5798800000000008e-02,	 2.6783163096823732e-02,	 1.5951082468662619e+03,	 4.0243035681106164e+02,	 4.5284056125949962e+02,	 3.4892904630691414e+03,	 4.2707253862854589e+02,	 3.8520149853131880e+00 
3.0618719999999999e-01,	 8.6860930000000003e-02,	 2.6803310733811050e-02,	 1.5949474155663486e+03,	 4.0283351097634602e+02,	 4.5293504549209302e+02,	 3.4926438629459849e+03,	 4.2711709019914849e+02,	 3.8514791128651376e+00 
3.1024109999999999e-01,	 8.7923070000000006e-02,	 2.6823010058083512e-02,	 1.5947898289192458e+03,	 4.0322593760424905e+02,	 4.5302831402486311e+02,	 3.4959305466141677e+03,	 4.2716106398097531e+02,	 3.8509500325755952e+00 
3.1429489999999999e-01,	 8.8985200000000000e-02,	 2.6842306002068179e-02,	 1.5946354111866219e+03,	 4.0360832248722932e+02,	 4.5312048600509888e+02,	 3.4991572347935053e+03,	 4.2720451631881576e+02,	 3.8504274343759914e+00 
3.1834869999999998e-01,	 9.0047330000000009e-02,	 2.6861143374132708e-02,	 1.5944843540596639e+03,	 4.0398028738689004e+02,	 4.5321128317801640e+02,	 3.5023145306268116e+03,	 4.2724731621484767e+02,	 3.8499126939772488e+00 
3.2240249999999998e-01,	 9.1109469999999998e-02,	 2.6879598182554369e-02,	 1.5943361083345121e+03,	 4.0434288904139657e+02,	 4.5330105023976233e+02,	 3.5054149537538328e+03,	 4.2728962632351647e+02,	 3.8494036848881525e+00 
3.2645639999999998e-01,	 9.2171600000000006e-02,	 2.6897709430373999e-02,	 1.5941906155084214e+03,	 4.0469678398583028e+02,	 4.5338989762045247e+02,	 3.5084644001179472e+03,	 4.2733149883190208e+02,	 3.8489001627985990e+00 
3.3051019999999998e-01,	 9.3233730000000001e-02,	 2.6915428670316460e-02,	 1.5940479333563078e+03,	 4.0504172095140058e+02,	 4.5347790054969107e+02,	 3.5114570909734985e+03,	 4.2737296931809607e+02,	 3.8484017756886959e+00 
3.3456399999999997e-01,	 9.4295870000000004e-02,	 2.6932813099972492e-02,	 1.5939079071955684e+03,	 4.0537844328145837e+02,	 4.5356645389540375e+02,	 3.5144112551982494e+03,	 4.2741469512090242e+02,	 3.8479026659749449e+00 
3.3861780000000002e-01,	 9.5357999999999998e-02,	 2.6949796500362735e-02,	 1.5937708155631940e+03,	 4.0570646208123537e+02,	 4.5365491082027785e+02,	 3.5173132178658830e+03,	 4.2745637142441069e+02,	 3.8474059143974526e+00 
3.4267170000000002e-01,	 9.6420130000000007e-02,	 2.6966446931567328e-02,	 1.5936361416257819e+03,	 4.0602703788531886e+02,	 4.5373981569702380e+02,	 3.5201450224414621e+03,	 4.2749637036599745e+02,	 3.8469257114614863e+00 
3.4672550000000002e-01,	 9.7482270000000010e-02,	 2.6982795475398107e-02,	 1.5935036712204389e+03,	 4.0634129109852421e+02,	 4.5382081140919468e+02,	 3.5229078793497902e+03,	 4.2753452420074029e+02,	 3.8464637067416381e+00 
3.5077930000000002e-01,	 9.8544400000000004e-02,	 2.6998787038647786e-02,	 1.5933734525155737e+03,	 4.0664895258916550e+02,	 4.5390079824239490e+02,	 3.5256170456695077e+03,	 4.2757219945176365e+02,	 3.8460075414053527e+00 
3.5483310000000001e-01,	 9.9606529999999999e-02,	 2.7014471084949948e-02,	 1.5932454420215927e+03,	 4.0695050305078166e+02,	 4.5398113266546324e+02,	 3.5282894854493366e+03,	 4.2761003508282170e+02,	 3.8455516359744681e+00 
3.5888700000000001e-01,	 1.0066870000000000e-01,	 2.7029774436858549e-02,	 1.5931199961610007e+03,	 4.0724519206975123e+02,	 4.5406085096680783e+02,	 3.5309081287598788e+03,	 4.2764757722593049e+02,	 3.8451004357186047e+00 
3.6294080000000001e-01,	 1.0173080000000000e-01,	 2.7044759259775300e-02,	 1.5929965964330727e+03,	 4.0753402119310368e+02,	 4.5413951962848904e+02,	 3.5334776903420493e+03,	 4.2768462182627258e+02,	 3.8446551688760096e+00 
3.6699460000000000e-01,	 1.0279290000000001e-01,	 2.7059457824718455e-02,	 1.5928753644005442e+03,	 4.0781715754230345e+02,	 4.5421710432590982e+02,	 3.5360020848068743e+03,	 4.2772115285195747e+02,	 3.8442163405042256e+00 
3.7104850000000000e-01,	 1.0385510000000001e-01,	 2.7073790312958517e-02,	 1.5927565009297555e+03,	 4.0809415163718785e+02,	 4.5429327777497491e+02,	 3.5384682979437289e+03,	 4.2775701635123414e+02,	 3.8437855170036732e+00 
3.7510230000000000e-01,	 1.0491720000000000e-01,	 2.7087817758707070e-02,	 1.5926396160661998e+03,	 4.0836589452541199e+02,	 4.5436828704690316e+02,	 3.5408861919635560e+03,	 4.2779232880202574e+02,	 3.8433612739409360e+00 
3.7915610000000000e-01,	 1.0597930000000000e-01,	 2.7101530499852755e-02,	 1.5925250380075238e+03,	 4.0863193016591089e+02,	 4.5444198667953941e+02,	 3.5432533356406038e+03,	 4.2782702186929600e+02,	 3.8429446930446964e+00 
3.8320989999999999e-01,	 1.0704150000000000e-01,	 2.7114897403095323e-02,	 1.5924126158878730e+03,	 4.0889232392183368e+02,	 4.5451432210446802e+02,	 3.5455651967658168e+03,	 4.2786107001948375e+02,	 3.8425356889861688e+00 
3.8726379999999999e-01,	 1.0810360000000001e-01,	 2.7127991219391488e-02,	 1.5923021892038707e+03,	 4.0914781197926357e+02,	 4.5458549845841441e+02,	 3.5478328534658108e+03,	 4.2789456995262520e+02,	 3.8421334475382896e+00 
3.9131759999999999e-01,	 1.0916570000000000e-01,	 2.7140743524262250e-02,	 1.5921940721070114e+03,	 4.0939752140922485e+02,	 4.5465526319940369e+02,	 3.5500453539464384e+03,	 4.2792740294960367e+02,	 3.8417392282336236e+00 
3.9537139999999998e-01,	 1.1022790000000000e-01,	 2.7153231650097497e-02,	 1.5920876831744206e+03,	 4.0964233308703285e+02,	 4.5472403263653257e+02,	 3.5522160309340120e+03,	 4.2795976506689834e+02,	 3.8413504576792250e+00 
3.9942519999999998e-01,	 1.1129000000000000e-01,	 2.7165572023715116e-02,	 1.5919820906605032e+03,	 4.0988408135995718e+02,	 4.5479252402638326e+02,	 3.5543656969930057e+03,	 4.2799199390609368e+02,	 3.8409630581570502e+00 
4.0347909999999998e-01,	 1.1235210000000000e-01,	 2.7177739369953734e-02,	 1.5918783335034602e+03,	 4.1012172047413384e+02,	 4.5486029579404396e+02,	 3.5564875802979554e+03,	 4.2802388173618357e+02,	 3.8405806304028207e+00 
4.0753289999999998e-01,	 1.1341430000000001e-01,	 2.7189468568265766e-02,	 1.5917774794645522e+03,	 4.1035207850214726e+02,	 4.5492616848315788e+02,	 3.5585377383174209e+03,	 4.2805487373925496e+02,	 3.8402087106489944e+00 
4.1158670000000003e-01,	 1.1447640000000001e-01,	 2.7200959483191268e-02,	 1.5916785594877397e+03,	 4.1057727903462882e+02,	 4.5499094450181320e+02,	 3.5605485679938492e+03,	 4.2808534758914038e+02,	 3.8398429454981331e+00 
4.1564050000000002e-01,	 1.1553850000000000e-01,	 2.7212207460705802e-02,	 1.5915814623866022e+03,	 4.1079719630684838e+02,	 4.5505479210455013e+02,	 3.5625207530685620e+03,	 4.2811538254340087e+02,	 3.8394822909508224e+00 
4.1969440000000002e-01,	 1.1660070000000000e-01,	 2.7223285820717827e-02,	 1.5914859444823692e+03,	 4.1101260488721778e+02,	 4.5511801866283213e+02,	 3.5644662785587598e+03,	 4.2814512327186492e+02,	 3.8391253432649988e+00 
4.2374820000000002e-01,	 1.1766280000000000e-01,	 2.7234133484372619e-02,	 1.5913922651125911e+03,	 4.1122278087332029e+02,	 4.5518038041557810e+02,	 3.5663752209554286e+03,	 4.2817445518650965e+02,	 3.8387732869892881e+00 
4.2780200000000002e-01,	 1.1872490000000001e-01,	 2.7244836016351623e-02,	 1.5912998644630675e+03,	 4.1142854336219784e+02,	 4.5524233195140988e+02,	 3.5682623292980111e+03,	 4.2820359216575395e+02,	 3.8384234106492126e+00 
4.3185590000000001e-01,	 1.1978710000000001e-01,	 2.7255429532501114e-02,	 1.5912086914647505e+03,	 4.1163037298028661e+02,	 4.5530404184122790e+02,	 3.5701336445766610e+03,	 4.2823261352340859e+02,	 3.8380751637495663e+00 
4.3590970000000001e-01,	 1.2084920000000000e-01,	 2.7265858055373637e-02,	 1.5911188533025152e+03,	 4.1182775190034931e+02,	 4.5536530027632739e+02,	 3.5719801796299612e+03,	 4.2826142062266877e+02,	 3.8377293650752100e+00 
4.3996350000000001e-01,	 1.2191130000000000e-01,	 2.7276195751084559e-02,	 1.5910301666902089e+03,	 4.1202124845989289e+02,	 4.5542638273892470e+02,	 3.5738138009044369e+03,	 4.2829014304069511e+02,	 3.8373847667958501e+00 
4.4401730000000000e-01,	 1.2297350000000000e-01,	 2.7286453887740356e-02,	 1.5909419347563023e+03,	 4.1221156654115180e+02,	 4.5548762058430418e+02,	 3.5756385798054189e+03,	 4.2831893658994181e+02,	 3.8370388062267597e+00 
4.4807120000000000e-01,	 1.2403560000000001e-01,	 2.7296758276551130e-02,	 1.5908542143160469e+03,	 4.1240005162618218e+02,	 4.5554925639891155e+02,	 3.5774729071817437e+03,	 4.2834791530675238e+02,	 3.8366913762061747e+00 
4.5212500000000000e-01,	 1.2509770000000001e-01,	 2.7306770301737258e-02,	 1.5907688485973708e+03,	 4.1258269323666701e+02,	 4.5560964808452775e+02,	 3.5792595042170856e+03,	 4.2837630718203701e+02,	 3.8363512042151515e+00 
4.5617880000000000e-01,	 1.2615989999999999e-01,	 2.7316560599838068e-02,	 1.5906851792270313e+03,	 4.1276056492467382e+02,	 4.5566904548748835e+02,	 3.5810095683629452e+03,	 4.2840422978091692e+02,	 3.8360163713069739e+00 
4.6023259999999999e-01,	 1.2722200000000000e-01,	 2.7326243553229559e-02,	 1.5906022518315644e+03,	 4.1293575900184419e+02,	 4.5572815053459453e+02,	 3.5827435947545673e+03,	 4.2843201313748983e+02,	 3.8356829874818095e+00 
4.6428649999999999e-01,	 1.2828409999999998e-01,	 2.7335849161025817e-02,	 1.5905201729154794e+03,	 4.1310864495868736e+02,	 4.5578702494597781e+02,	 3.5844659945523431e+03,	 4.2845968628865205e+02,	 3.8353512473429716e+00 
4.6834029999999999e-01,	 1.2934630000000000e-01,	 2.7345285020805399e-02,	 1.5904390620841805e+03,	 4.1327890727963546e+02,	 4.5584532151338897e+02,	 3.5861619124014737e+03,	 4.2848708607077242e+02,	 3.8350226936681686e+00 
4.7239409999999998e-01,	 1.3040839999999998e-01,	 2.7354600043607739e-02,	 1.5903588434011717e+03,	 4.1344738749958123e+02,	 4.5590305558254090e+02,	 3.5878378710089614e+03,	 4.2851421974819152e+02,	 3.8346975806275028e+00 