TITLE = "Final State"
VARIABLES = "X", "Y", "rho", "u", "v", "T", "p", "c", "M"
ZONE I=76, J=15, DATAPACKING=POINT, STRANDID=38000, SOLUTIONTIME=0.001376
1.3190160000000001e-01,	 2.3487609999999999e-02,	 1.1230774162361723e+00,	 1.1645091192319221e+02,	 -2.9830350905153176e+00,	 3.0337917245069190e+02,	 9.8022414069480757e+04,	 3.4956011032667504e+02,	 3.3324486774950945e-01 
1.3318700000000000e-01,	 2.3509380000000000e-02,	 1.1239263939672275e+00,	 1.1643659655510564e+02,	 -2.2250985012915985e+00,	 3.0341056365051986e+02,	 9.8106663236280277e+04,	 3.4957819467199971e+02,	 3.3313821387922943e-01 
1.3448019999999999e-01,	 2.3531290000000000e-02,	 1.1254661185592050e+00,	 1.1651399494423427e+02,	 -5.3466722641678455e-01,	 3.0344584288666226e+02,	 9.8252487637491562e+04,	 3.4959851778311719e+02,	 3.3328293962749317e-01 
1.3578160000000000e-01,	 2.3553339999999999e-02,	 1.1268536411134660e+00,	 1.1686539353706198e+02,	 1.6316665940354516e+00,	 3.0345094000436416e+02,	 9.8375269914276956e+04,	 3.4960145395336366e+02,	 3.3431435215378374e-01 
1.3709120000000000e-01,	 2.3575530000000001e-02,	 1.1275612272083415e+00,	 1.1762236559274695e+02,	 3.9763557915108501e+00,	 3.0339737742518048e+02,	 9.8419667505420890e+04,	 3.4957059825400131e+02,	 3.3666892916132152e-01 
1.3840910000000001e-01,	 2.3597859999999998e-02,	 1.1272892808069441e+00,	 1.1887549541122306e+02,	 6.1973215226368232e+00,	 3.0326596916036050e+02,	 9.8353313044086986e+04,	 3.4949488658957210e+02,	 3.4059705153133041e-01 
1.3973550000000001e-01,	 2.3620329999999998e-02,	 1.1261462873944139e+00,	 1.2064691991246548e+02,	 8.0858380005298294e+00,	 3.0307066039316629e+02,	 9.8190312494720652e+04,	 3.4938232795128465e+02,	 3.4608955808215380e-01 
1.4107049999999999e-01,	 2.3642949999999999e-02,	 1.1244729068235420e+00,	 1.2286122122489650e+02,	 9.5734509902819234e+00,	 3.0284802272391403e+02,	 9.7972383982053041e+04,	 3.4925397511471300e+02,	 3.5284821729874460e-01 
1.4241419999999999e-01,	 2.3665710000000000e-02,	 1.1223762591454967e+00,	 1.2542817244655799e+02,	 1.0697211905898332e+01,	 3.0265886556286296e+02,	 9.7728629653869400e+04,	 3.4914488704996347e+02,	 3.6054804033916305e-01 
1.4376680000000000e-01,	 2.3688629999999999e-02,	 1.1194829984437722e+00,	 1.2829542208658194e+02,	 1.1515831271903648e+01,	 3.0272374046322091e+02,	 9.7497598986507772e+04,	 3.4918230463237893e+02,	 3.6889388601719086e-01 
1.4512829999999999e-01,	 2.3711699999999999e-02,	 1.1156068161262946e+00,	 1.3144386638762279e+02,	 1.2125143459402601e+01,	 3.0305539171875228e+02,	 9.7266460332028844e+04,	 3.4937352691426656e+02,	 3.7782464406240507e-01 
1.4649889999999999e-01,	 2.3734920000000000e-02,	 1.1102336814855467e+00,	 1.3485415559685634e+02,	 1.2593190646332769e+01,	 3.0387789574478404e+02,	 9.7060706093537170e+04,	 3.4984731228018103e+02,	 3.8714283159985435e-01 
1.4787880000000000e-01,	 2.3758300000000000e-02,	 1.1027857476701559e+00,	 1.3855537839149110e+02,	 1.2952998202171198e+01,	 3.0534167962895390e+02,	 9.6873986601505210e+04,	 3.5068890959031302e+02,	 3.9681757797395517e-01 
1.4926809999999999e-01,	 2.3781839999999999e-02,	 1.0928218769029487e+00,	 1.4254585286219697e+02,	 1.3230407718091360e+01,	 3.0758929284072485e+02,	 9.6705356783948824e+04,	 3.5197724965074894e+02,	 4.0672664825718385e-01 
1.5066679999999999e-01,	 2.3805529999999998e-02,	 1.0800345947086540e+00,	 1.4684633945605282e+02,	 1.3453131919870764e+01,	 3.1073741580809229e+02,	 9.6551973214084297e+04,	 3.5377387730681698e+02,	 4.1682358888802551e-01 
1.5207519999999999e-01,	 2.3829389999999999e-02,	 1.0642802388633370e+00,	 1.5145758297675644e+02,	 1.3625314981953087e+01,	 3.1487452307681713e+02,	 9.6410305401833626e+04,	 3.5612113423922290e+02,	 4.2701544108261474e-01 
1.5349340000000000e-01,	 2.3853420000000000e-02,	 1.0455931091992774e+00,	 1.5639571342866753e+02,	 1.3784432261435676e+01,	 3.2006811888373750e+02,	 9.6279775139384699e+04,	 3.5904608474163240e+02,	 4.3727535889609775e-01 
1.5492149999999999e-01,	 2.3877619999999999e-02,	 1.0241125525303700e+00,	 1.6168485276600313e+02,	 1.3910279758899375e+01,	 3.2633891083710955e+02,	 9.6149379644367786e+04,	 3.6254624923442640e+02,	 4.4761771360621144e-01 
1.5635959999999999e-01,	 2.3901980000000000e-02,	 1.0002311437539573e+00,	 1.6729543942359541e+02,	 1.3997550798507408e+01,	 3.3368177881388999e+02,	 9.6020243359693151e+04,	 3.6660233988991888e+02,	 4.5793489279926297e-01 
1.5780790000000000e-01,	 2.3926520000000000e-02,	 9.7440126106783298e-01,	 1.7323641663577988e+02,	 1.4099530569667234e+01,	 3.4208601529887250e+02,	 9.5896574723820391e+04,	 3.7119032399877119e+02,	 4.6824831186749416e-01 
1.5926660000000001e-01,	 2.3951230000000000e-02,	 9.4709459081426084e-01,	 1.7951542000591976e+02,	 1.4142614931696492e+01,	 3.5147898177466834e+02,	 9.5768492955605674e+04,	 3.7625186938158896e+02,	 4.7859337290955162e-01 
1.6073570000000001e-01,	 2.3976120000000000e-02,	 9.1894845047790930e-01,	 1.8607549017068979e+02,	 1.4145363106699513e+01,	 3.6175741592296254e+02,	 9.5639771548472505e+04,	 3.8171366535024316e+02,	 4.8888052532822718e-01 
1.6221540000000001e-01,	 2.4001189999999999e-02,	 8.9049869752768673e-01,	 1.9289596779491362e+02,	 1.4137269501490936e+01,	 3.7284233618404312e+02,	 9.5518709563414232e+04,	 3.8751774729756795e+02,	 4.9910831902124358e-01 
1.6370580000000001e-01,	 2.4026440000000000e-02,	 8.6216677161165811e-01,	 1.9997398124263310e+02,	 1.4114122781917168e+01,	 3.8461711902021119e+02,	 9.5400319419821317e+04,	 3.9358930768561225e+02,	 5.0934170343596741e-01 
1.6520710000000000e-01,	 2.4051879999999998e-02,	 8.3444933776398844e-01,	 2.0724869816626122e+02,	 1.4000563282204698e+01,	 3.9688585579673480e+02,	 9.5278636529482508e+04,	 3.9981749836640034e+02,	 5.1953969148203727e-01 
1.6671949999999999e-01,	 2.4077499999999998e-02,	 8.0785446780043912e-01,	 2.1461090112175543e+02,	 1.3801269145735901e+01,	 4.0946124340618906e+02,	 9.5164697084362662e+04,	 4.0610224189915573e+02,	 5.2955681937572618e-01 
1.6824300000000000e-01,	 2.4103320000000001e-02,	 7.8267621283856204e-01,	 2.2200693986385983e+02,	 1.3542994778723120e+01,	 4.2217417128105063e+02,	 9.5061296229282903e+04,	 4.1235837199362572e+02,	 5.3938430781357327e-01 
1.6977790000000001e-01,	 2.4129319999999999e-02,	 7.5912054515450089e-01,	 2.2936326812159521e+02,	 1.3209889086530165e+01,	 4.3483563910204225e+02,	 9.4965490253804033e+04,	 4.1849623226989144e+02,	 5.4897353656430170e-01 
1.7132420000000001e-01,	 2.4155520000000000e-02,	 7.3738383914219063e-01,	 2.3659589720025056e+02,	 1.2781535999357740e+01,	 4.4723076635725386e+02,	 9.4875750639445032e+04,	 4.2441900486819702e+02,	 5.5827116396836418e-01 
1.7288220000000001e-01,	 2.4181910000000001e-02,	 7.1766817713095543e-01,	 2.4357162623771387e+02,	 1.2217330697158484e+01,	 4.5909876069263919e+02,	 9.4789394057844955e+04,	 4.3001345701837101e+02,	 5.6714001587617446e-01 
1.7445189999999999e-01,	 2.4208509999999999e-02,	 7.0014067972010918e-01,	 2.5014525786386224e+02,	 1.1528540547655705e+01,	 4.7020608674065585e+02,	 9.4711670361745768e+04,	 4.3518419062391331e+02,	 5.7541331343687718e-01 
1.7603350000000001e-01,	 2.4235299999999998e-02,	 6.8486235629300940e-01,	 2.5620794264266664e+02,	 1.0735060061253119e+01,	 4.8034538382384585e+02,	 9.4642641840154000e+04,	 4.3985121634994226e+02,	 5.8299882526908731e-01 
1.7762720000000001e-01,	 2.4262309999999999e-02,	 6.7188556235509289e-01,	 2.6164299811353044e+02,	 9.8227145332227526e+00,	 4.8929515269353857e+02,	 9.4579314022513558e+04,	 4.4392994723810119e+02,	 5.8979422117460978e-01 
1.7923310000000001e-01,	 2.4289510000000000e-02,	 6.6127708876495639e-01,	 2.6631413601142742e+02,	 8.7874521900070448e+00,	 4.9683786404085197e+02,	 9.4520954690749335e+04,	 4.4733855401365821e+02,	 5.9565416854172271e-01 
1.8085140000000000e-01,	 2.4316930000000000e-02,	 6.5311832868603537e-01,	 2.7009065884501240e+02,	 7.6301212411265720e+00,	 5.0276358237126692e+02,	 9.4468195836663581e+04,	 4.4999832021346634e+02,	 6.0044316061862968e-01 
1.8248220000000001e-01,	 2.4344559999999998e-02,	 6.4748073257664829e-01,	 2.7284193696881829e+02,	 6.3612876554694537e+00,	 5.0688629133005486e+02,	 9.4420725443545278e+04,	 4.5183956772655608e+02,	 6.0401103143822787e-01 
1.8412570000000000e-01,	 2.4372410000000001e-02,	 6.4453218689427205e-01,	 2.7448235706687001e+02,	 5.0158587783638726e+00,	 5.0899104750560230e+02,	 9.4381025394964643e+04,	 4.5277668809603239e+02,	 6.0632137225718941e-01 
1.8578210000000001e-01,	 2.4400470000000000e-02,	 6.4404517162769359e-01,	 2.7512290293069964e+02,	 3.6559482657209283e+00,	 5.0914144753982237e+02,	 9.4337577359928808e+04,	 4.5284357787727333e+02,	 6.0759875194313773e-01 
1.8745139999999999e-01,	 2.4428749999999999e-02,	 6.4553108472972975e-01,	 2.7489558327071336e+02,	 2.3013572698531544e+00,	 5.0782535406206421e+02,	 9.4310810564243875e+04,	 4.5225791536162575e+02,	 6.0785053607451489e-01 
1.8913400000000000e-01,	 2.4457259999999998e-02,	 6.4935111767618270e-01,	 2.7363726782328115e+02,	 9.3386533380034176e-01,	 5.0482559328276159e+02,	 9.4308512345095180e+04,	 4.5092017693912396e+02,	 6.0684545814120094e-01 
1.9082979999999999e-01,	 2.4485989999999999e-02,	 6.5591543593030566e-01,	 2.7133341196086099e+02,	 -4.0456473389137598e-01,	 4.9992141725851786e+02,	 9.4336450570784160e+04,	 4.4872457821089853e+02,	 6.0467762797942748e-01 
1.9253909999999999e-01,	 2.4514950000000001e-02,	 6.6517915575327535e-01,	 2.6819590235271488e+02,	 -1.7569550615353657e+00,	 4.9315737822989911e+02,	 9.4374378395467007e+04,	 4.4567857218835047e+02,	 6.0178270607110651e-01 
1.9426209999999999e-01,	 2.4544139999999999e-02,	 6.7684905361346293e-01,	 2.6441277962005142e+02,	 -3.0696285338300027e+00,	 4.8485392780252329e+02,	 9.4413192171190705e+04,	 4.4191062713056607e+02,	 5.9838026242363274e-01 
1.9599890000000000e-01,	 2.4573559999999998e-02,	 6.9087497879203208e-01,	 2.6005849659611602e+02,	 -4.3095228212516155e+00,	 4.7521509204700442e+02,	 9.4453841660052683e+04,	 4.3749601235055172e+02,	 5.9450645063818996e-01 
1.9774960000000000e-01,	 2.4603230000000000e-02,	 7.0727195288649602e-01,	 2.5519702963241895e+02,	 -5.4822784661018957e+00,	 4.6442820007479884e+02,	 9.4500684882583184e+04,	 4.3250215694059284e+02,	 5.9018413054410723e-01 
1.9951450000000001e-01,	 2.4633130000000000e-02,	 7.2599916509305251e-01,	 2.4991078142455046e+02,	 -6.5843318093582237e+00,	 4.5271085182652666e+02,	 9.4555536629684779e+04,	 4.2701136996464550e+02,	 5.8545865934073538e-01 
2.0129369999999999e-01,	 2.4663270000000001e-02,	 7.4680375880508798e-01,	 2.4435744270894435e+02,	 -7.5872065958926331e+00,	 4.4041117146663544e+02,	 9.4622574323515611e+04,	 4.2117069939854196e+02,	 5.8046584113318722e-01 
2.0308750000000000e-01,	 2.4693659999999999e-02,	 7.6934720299557757e-01,	 2.3869643093007892e+02,	 -8.4988532440207649e+00,	 4.2783367025796508e+02,	 9.4695049846819558e+04,	 4.1511312658149558e+02,	 5.7537974527352820e-01 
2.0489579999999999e-01,	 2.4724299999999998e-02,	 7.9335887663772509e-01,	 2.3301962655310126e+02,	 -9.3444103246072210e+00,	 4.1523388069656050e+02,	 9.4774697072905139e+04,	 4.0895486375773027e+02,	 5.7025098333587021e-01 
2.0671900000000001e-01,	 2.4755190000000000e-02,	 8.1859442569917973e-01,	 2.2740268389422968e+02,	 -1.0111066888412889e+01,	 4.0284039487530606e+02,	 9.4870618825215381e+04,	 4.0280559385831430e+02,	 5.6510476002042642e-01 
2.0855720000000000e-01,	 2.4786329999999999e-02,	 8.4473984675076208e-01,	 2.2192347027295716e+02,	 -1.0779251096737013e+01,	 3.9086039832470431e+02,	 9.4989278349837521e+04,	 3.9677090833201225e+02,	 5.5998334529379623e-01 
2.1041060000000000e-01,	 2.4817730000000000e-02,	 8.7136261061444475e-01,	 2.1667892196512940e+02,	 -1.1330019230608103e+01,	 3.7948251424797428e+02,	 9.5130685800965657e+04,	 3.9095328912027594e+02,	 5.5498942194117018e-01 
2.1227940000000001e-01,	 2.4849389999999999e-02,	 8.9796695358948864e-01,	 2.1174236238113895e+02,	 -1.1788697522942041e+01,	 3.6884873085558559e+02,	 9.5288081977687994e+04,	 3.8543676118675688e+02,	 5.5020770218729875e-01 
2.1416370000000001e-01,	 2.4881319999999998e-02,	 9.2415227384688614e-01,	 2.0712553467646876e+02,	 -1.2171861246225188e+01,	 3.5906317991830923e+02,	 9.5465037311395805e+04,	 3.8028957747395805e+02,	 5.4559178646079531e-01 
2.1606370000000000e-01,	 2.4913510000000000e-02,	 9.4952307975065353e-01,	 2.0282930700619852e+02,	 -1.2444221235112785e+01,	 3.5022371122582837e+02,	 9.5671153168498320e+04,	 3.7557939626020459e+02,	 5.4105921858311734e-01 
2.1797960000000000e-01,	 2.4945969999999998e-02,	 9.7364074840152948e-01,	 1.9886374292568448e+02,	 -1.2611464358049293e+01,	 3.4237444569026280e+02,	 9.5902520436244173e+04,	 3.7134677589633077e+02,	 5.3659611201901058e-01 
2.1991160000000001e-01,	 2.4978700000000000e-02,	 9.9626747340447608e-01,	 1.9515631046113472e+02,	 -1.2662504663999353e+01,	 3.3553188705082067e+02,	 9.6170016006385078e+04,	 3.6761725364807984e+02,	 5.3198448518194663e-01 
2.2185980000000000e-01,	 2.5011709999999999e-02,	 1.0172574817053348e+00,	 1.9163390524754334e+02,	 -1.2512978116451809e+01,	 3.2969803953018038e+02,	 9.6488864344806061e+04,	 3.6440738435302592e+02,	 5.2699809151712196e-01 
2.2382450000000001e-01,	 2.5044999999999998e-02,	 1.0364370046904421e+00,	 1.8827156414223660e+02,	 -1.2048538954866927e+01,	 3.2485266820765355e+02,	 9.6863305677653145e+04,	 3.6171973640826121e+02,	 5.2155488785191462e-01 
2.2580590000000000e-01,	 2.5078569999999998e-02,	 1.0536174651262882e+00,	 1.8514008959467105e+02,	 -1.1069534581279314e+01,	 3.2095204006984795e+02,	 9.7286602962890727e+04,	 3.5954152556817672e+02,	 5.1585339988831891e-01 
2.2780410000000001e-01,	 2.5112420000000000e-02,	 1.0683799024790468e+00,	 1.8255614125127420e+02,	 -9.3453160569138181e+00,	 3.1791179371703964e+02,	 9.7715236328299521e+04,	 3.5783457933072657e+02,	 5.1083711722743674e-01 
2.2981930000000000e-01,	 2.5146559999999998e-02,	 1.0799638447419406e+00,	 1.8101085210235715e+02,	 -6.9219808676430787e+00,	 3.1558318318884415e+02,	 9.8051221018386044e+04,	 3.5652165410972907e+02,	 5.0808457872040447e-01 
2.3185169999999999e-01,	 2.5180999999999999e-02,	 1.0876865526310397e+00,	 1.8083812932678160e+02,	 -4.2883080996309655e+00,	 3.1378076994389426e+02,	 9.8188363349394087e+04,	 3.5550208217677476e+02,	 5.0882674584421916e-01 
2.3390159999999999e-01,	 2.5215729999999999e-02,	 1.0917269173701820e+00,	 1.8185696813183807e+02,	 -2.1374758573196520e+00,	 3.1233822637224239e+02,	 9.8100019922962470e+04,	 3.5468396638362867e+02,	 5.1276501467224012e-01 
2.3596900000000001e-01,	 2.5250749999999999e-02,	 1.0933311224517737e+00,	 1.8345628344338968e+02,	 -8.6348376756245293e-01,	 3.1114569437851560e+02,	 9.7869066035350508e+04,	 3.5400621315089342e+02,	 5.1823473351632787e-01 
2.3805430000000000e-01,	 2.5286079999999999e-02,	 1.0939692533677841e+00,	 1.8500911528348189e+02,	 -4.6842296101698050e-01,	 3.1015583279010264e+02,	 9.7614651127914243e+04,	 3.5344265674885872e+02,	 5.2345042328037616e-01 
2.4015760000000000e-01,	 2.5321719999999999e-02,	 1.0945876709348479e+00,	 1.8611628447089112e+02,	 -7.1230746649688070e-01,	 3.0935319229998686e+02,	 9.7417076353365483e+04,	 3.5298503008018344e+02,	 5.2726782068167655e-01 
2.4227910000000000e-01,	 2.5357660000000001e-02,	 1.0953869651812647e+00,	 1.8664386629464263e+02,	 -1.3265986255864410e+00,	 3.0874999654149917e+02,	 9.7298124171393982e+04,	 3.5264072627110147e+02,	 5.2928821553259564e-01 
2.4441900000000000e-01,	 2.5393920000000000e-02,	 1.0960499043699561e+00,	 1.8661925910233163e+02,	 -2.0548728849137214e+00,	 3.0841057704301340e+02,	 9.7249982060859955e+04,	 3.5244683792520908e+02,	 5.2952829143266567e-01 
2.4657750000000001e-01,	 2.5430490000000000e-02,	 1.0960234664784805e+00,	 1.8613304987125687e+02,	 -2.6754129090029761e+00,	 3.0844901695477597e+02,	 9.7259757112436550e+04,	 3.5246880150919952e+02,	 5.2813830846028353e-01 
2.4875480000000000e-01,	 2.5467370000000000e-02,	 1.0946243360938566e+00,	 1.8536670234911833e+02,	 -3.0460206834291386e+00,	 3.0899665108771967e+02,	 9.7308058898813324e+04,	 3.5278155716093016e+02,	 5.2551422720128782e-01 
2.5095109999999998e-01,	 2.5504590000000001e-02,	 1.0910949502084901e+00,	 1.8451537304220332e+02,	 -3.0799672559370723e+00,	 3.1019949333396590e+02,	 9.7371882730660218e+04,	 3.5346753288200392e+02,	 5.2208777270092244e-01 
2.5316670000000002e-01,	 2.5542119999999998e-02,	 1.0846731320120235e+00,	 1.8376964212889686e+02,	 -2.7522807539562661e+00,	 3.1222335613979658e+02,	 9.7430337678355980e+04,	 3.5461873841448596e+02,	 5.1827563306738056e-01 
2.5540180000000001e-01,	 2.5579990000000000e-02,	 1.0748082692542189e+00,	 1.8331432022770869e+02,	 -2.0423412832362677e+00,	 3.1524021811962382e+02,	 9.7477090059437935e+04,	 3.5632787364344574e+02,	 5.1448598467838136e-01 
2.5765650000000001e-01,	 2.5618189999999999e-02,	 1.0609486430305266e+00,	 1.8334058375560068e+02,	 -1.0346476001039759e+00,	 3.1938613453108945e+02,	 9.7485574943251719e+04,	 3.5866336248329537e+02,	 5.1118548011451415e-01 
2.5993110000000003e-01,	 2.5656729999999999e-02,	 1.0516364491939587e+00,	 1.8361853699868644e+02,	 -3.8803571387572422e-01,	 3.2211787543406348e+02,	 9.7456406486437292e+04,	 3.6019393810191258e+02,	 5.0977800453313049e-01 
1.3189750000000000e-01,	 2.3921470000000000e-02,	 1.1230019231283299e+00,	 1.1714597186160179e+02,	 -2.9074212291612316e+00,	 3.0329007315467442e+02,	 9.7987038791795145e+04,	 3.4950877547957327e+02,	 3.3527640467524694e-01 
1.3318279999999999e-01,	 2.3943869999999999e-02,	 1.1237168992974715e+00,	 1.1719891023484067e+02,	 -2.2029874697095324e+00,	 3.0331937048877126e+02,	 9.8058895139815257e+04,	 3.4952565606518954e+02,	 3.3536769374650593e-01 
1.3447600000000001e-01,	 2.3966419999999999e-02,	 1.1250209896156957e+00,	 1.1734984650012184e+02,	 -5.9969947248907352e-01,	 3.0334585915629793e+02,	 9.8181267310973213e+04,	 3.4954091764699285e+02,	 3.3573001873125757e-01 
1.3577739999999999e-01,	 2.3989110000000001e-02,	 1.1262656855311186e+00,	 1.1779271933392258e+02,	 1.4344672204004429e+00,	 3.0333436748787028e+02,	 9.8286169160392717e+04,	 3.4953429674505998e+02,	 3.3702401882106386e-01 
1.3708699999999999e-01,	 2.4011939999999999e-02,	 1.1269690065404863e+00,	 1.1867189654181453e+02,	 3.6366516472946300e+00,	 3.0326286436033774e+02,	 9.8324363231667347e+04,	 3.4949309754197111e+02,	 3.3971373440811992e-01 
1.3840490000000000e-01,	 2.4034910000000000e-02,	 1.1267909292372713e+00,	 1.2001477031427709e+02,	 5.7250823799027568e+00,	 3.0312352471486736e+02,	 9.8263656788285516e+04,	 3.4941279783313962e+02,	 3.4386618260739110e-01 
1.3973130000000000e-01,	 2.4058030000000001e-02,	 1.1259255966768063e+00,	 1.2176995523952324e+02,	 7.4977910936572520e+00,	 3.0292560874290484e+02,	 9.8124084821584751e+04,	 3.4929870958256367e+02,	 3.4927288819682684e-01 
1.4106630000000001e-01,	 2.4081309999999998e-02,	 1.1244373264444079e+00,	 1.2385586909552610e+02,	 8.8875990429609537e+00,	 3.0270499924359939e+02,	 9.7923016829571381e+04,	 3.4917149576166344e+02,	 3.5562563819744675e-01 
1.4241000000000001e-01,	 2.4104729999999998e-02,	 1.1225826765824221e+00,	 1.2618583673831549e+02,	 9.9279625653707448e+00,	 3.0249887965393407e+02,	 9.7694934038227468e+04,	 3.4905259560883945e+02,	 3.6262668867355313e-01 
1.4376249999999999e-01,	 2.4128310000000000e-02,	 1.1203370737652580e+00,	 1.2871707903414369e+02,	 1.0681705100019103e+01,	 3.0242526805747707e+02,	 9.7475780079563337e+04,	 3.4901012291906295e+02,	 3.7007389086147435e-01 
1.4512400000000000e-01,	 2.4152040000000000e-02,	 1.1174432241037080e+00,	 1.3144771866126780e+02,	 1.1223021650083261e+01,	 3.0253979511679097e+02,	 9.7260816767971875e+04,	 3.4907620092868746e+02,	 3.7792882980557146e-01 
1.4649460000000000e-01,	 2.4175940000000000e-02,	 1.1135731373387316e+00,	 1.3437506558079812e+02,	 1.1619175243850602e+01,	 3.0297770086867325e+02,	 9.7064260253856788e+04,	 3.4932874159306920e+02,	 3.8610185434890432e-01 
1.4787449999999999e-01,	 2.4199990000000001e-02,	 1.1082966259599110e+00,	 1.3752360628306579e+02,	 1.1903029001943839e+01,	 3.0386111284277865e+02,	 9.6886010362603614e+04,	 3.4983765127108484e+02,	 3.9457663816458594e-01 
1.4926380000000000e-01,	 2.4224209999999999e-02,	 1.1011988066273033e+00,	 1.4089993801474193e+02,	 1.2101540005719841e+01,	 3.0531085365850555e+02,	 9.6724816189363832e+04,	 3.5067120712854722e+02,	 4.0327995465536182e-01 
1.5066250000000000e-01,	 2.4248599999999999e-02,	 1.0919478463794887e+00,	 1.4452409182989663e+02,	 1.2238745938234906e+01,	 3.0743432892901006e+02,	 9.6579331257571699e+04,	 3.5188857516784572e+02,	 4.1217983110792200e-01 
1.5207090000000001e-01,	 2.4273150000000000e-02,	 1.0803129234003328e+00,	 1.4839853809898628e+02,	 1.2323638456522001e+01,	 3.1032045220976090e+02,	 9.6447263156800400e+04,	 3.5353644155073931e+02,	 4.2119947133914043e-01 
1.5348909999999999e-01,	 2.4297869999999999e-02,	 1.0662033758567262e+00,	 1.5253798154686430e+02,	 1.2383350408673966e+01,	 3.1404033744827052e+02,	 9.6328639396861850e+04,	 3.5564909200268761e+02,	 4.3031126068293557e-01 
1.5491710000000000e-01,	 2.4322759999999999e-02,	 1.0496046590609316e+00,	 1.5696432687634984e+02,	 1.2413365257702143e+01,	 3.1863198871725399e+02,	 9.6215504515640598e+04,	 3.5823966792944628e+02,	 4.3952254625299869e-01 
1.5635520000000000e-01,	 2.4347830000000001e-02,	 1.0307209773080102e+00,	 1.6165331234761834e+02,	 1.2405599637335705e+01,	 3.2410974052720559e+02,	 9.6108795752366816e+04,	 3.6130587890892480e+02,	 4.4872956218543458e-01 
1.5780350000000001e-01,	 2.4373079999999998e-02,	 1.0098477502547369e+00,	 1.6661139372883483e+02,	 1.2403002509580745e+01,	 3.3047652792534853e+02,	 9.6012208359807162e+04,	 3.6483735302391131e+02,	 4.5793669709057788e-01 
1.5926219999999999e-01,	 2.4398509999999998e-02,	 9.8730173040957314e-01,	 1.7184803049442502e+02,	 1.2359271567684548e+01,	 3.3768909700909001e+02,	 9.5917284368616121e+04,	 3.6879710729811796e+02,	 4.6717257773597509e-01 
1.6073119999999999e-01,	 2.4424120000000001e-02,	 9.6358128054101977e-01,	 1.7731567909647944e+02,	 1.2279128371800768e+01,	 3.4567646078869666e+02,	 9.5827045563260355e+04,	 3.7313319768910560e+02,	 4.7634554394142609e-01 
1.6221089999999999e-01,	 2.4449909999999998e-02,	 9.3915036795554396e-01,	 1.8299625868963881e+02,	 1.2190917739955083e+01,	 3.5437490835695331e+02,	 9.5747630335752110e+04,	 3.7779870813358252e+02,	 4.8544866594980451e-01 
1.6370140000000000e-01,	 2.4475890000000000e-02,	 9.1439129584479528e-01,	 1.8888800321272174e+02,	 1.2091060017295174e+01,	 3.6369455997143439e+02,	 9.5675078198423013e+04,	 3.8273430387828080e+02,	 4.9453260632664370e-01 
1.6520270000000001e-01,	 2.4502070000000001e-02,	 8.8975056895228288e-01,	 1.9494834508137660e+02,	 1.1925847791832279e+01,	 3.7348890510390987e+02,	 9.5603967814615549e+04,	 3.8785361097842940e+02,	 5.0357345450934221e-01 
1.6671500000000000e-01,	 2.4528430000000000e-02,	 8.6571513403743416e-01,	 2.0108849135596526e+02,	 1.1694277595246936e+01,	 3.8360481199586752e+02,	 9.5540826421103149e+04,	 3.9307100556846268e+02,	 5.1244747425991444e-01 
1.6823859999999999e-01,	 2.4554989999999999e-02,	 8.4262425241440442e-01,	 2.0726240404255884e+02,	 1.1418586915158780e+01,	 3.9389849472634052e+02,	 9.5487871673728048e+04,	 3.9830994238677908e+02,	 5.2114366834414660e-01 
1.6977339999999999e-01,	 2.4581739999999998e-02,	 8.2072796682467863e-01,	 2.1341230370705657e+02,	 1.1087605709470671e+01,	 4.0421400119608586e+02,	 9.5442217810522139e+04,	 4.0349175326709121e+02,	 5.2962701261995015e-01 
1.7131969999999999e-01,	 2.4608700000000001e-02,	 8.0026146709454482e-01,	 2.1947216734026031e+02,	 1.0686851099766812e+01,	 4.1437582673075542e+02,	 9.5401731193555606e+04,	 4.0853210585266868e+02,	 5.3785785700880262e-01 
1.7287770000000000e-01,	 2.4635859999999999e-02,	 7.8146614368577139e-01,	 2.2533810194622325e+02,	 1.0185688292507173e+01,	 4.2417282503463105e+02,	 9.5363667859656183e+04,	 4.1333331140398917e+02,	 5.4572952139771147e-01 
1.7444740000000000e-01,	 2.4663220000000000e-02,	 7.6456137068224028e-01,	 2.3089218749376127e+02,	 9.5910953463202624e+00,	 4.3340332224162216e+02,	 9.5331082630665536e+04,	 4.1780641572661062e+02,	 5.5310616720408756e-01 
1.7602899999999999e-01,	 2.4690790000000001e-02,	 7.4967193405188670e-01,	 2.3604402732310012e+02,	 8.9184564641492905e+00,	 4.4188498871592515e+02,	 9.5303848422488853e+04,	 4.2187482572237889e+02,	 5.5991122472425936e-01 
1.7762269999999999e-01,	 2.4718569999999999e-02,	 7.3689561617300181e-01,	 2.4069978370244741e+02,	 8.1592050530727480e+00,	 4.4942998549810977e+02,	 9.5279167770575543e+04,	 4.2546124727983960e+02,	 5.6606338483640595e-01 
1.7922859999999999e-01,	 2.4746560000000001e-02,	 7.2633833072360032e-01,	 2.4475011343232364e+02,	 7.3101972069231564e+00,	 4.5585205017357003e+02,	 9.5256103702158332e+04,	 4.2849024847391524e+02,	 5.7144651591229068e-01 
1.8084680000000000e-01,	 2.4774769999999998e-02,	 7.1810909816012103e-01,	 2.4808537176052508e+02,	 6.3727620281835922e+00,	 4.6097139189088449e+02,	 9.5234507514250319e+04,	 4.3088956169178311e+02,	 5.7594156687636433e-01 
1.8247769999999999e-01,	 2.4803200000000001e-02,	 7.1237933395350383e-01,	 2.5059555404144777e+02,	 5.3578421246229446e+00,	 4.6458688058691450e+02,	 9.5215618153024348e+04,	 4.3257603682406580e+02,	 5.7944223132902573e-01 
1.8412110000000001e-01,	 2.4831849999999999e-02,	 7.0941560239103352e-01,	 2.5218260429468194e+02,	 4.2921635118239809e+00,	 4.6642393720447393e+02,	 9.5194422577374367e+04,	 4.3343043316117905e+02,	 5.8191374854412659e-01 
1.8577750000000001e-01,	 2.4860719999999999e-02,	 7.0907434412472647e-01,	 2.5285222499515982e+02,	 3.1926744866106249e+00,	 4.6645347806786515e+02,	 9.5154656338940506e+04,	 4.3344415855718421e+02,	 5.8340244199441904e-01 
1.8744680000000000e-01,	 2.4889820000000000e-02,	 7.1087012483259704e-01,	 2.5272326297616715e+02,	 2.0772752625016340e+00,	 4.6509643244967629e+02,	 9.5118109195708254e+04,	 4.3281319324127099e+02,	 5.8392813326397974e-01 
1.8912930000000000e-01,	 2.4919150000000001e-02,	 7.1485856451428775e-01,	 2.5178761044589805e+02,	 8.9088337055966171e-01,	 4.6236805694152912e+02,	 9.5090665103644715e+04,	 4.3154182910688723e+02,	 5.8346415001943075e-01 
1.9082510000000000e-01,	 2.4948709999999999e-02,	 7.2147500430219513e-01,	 2.5000402178478845e+02,	 -4.0174649826783992e-01,	 4.5809851555299537e+02,	 9.5084584132582531e+04,	 4.2954476330873035e+02,	 5.8202163298216536e-01 
1.9253439999999999e-01,	 2.4978509999999999e-02,	 7.3079529585648895e-01,	 2.4753645100075167e+02,	 -1.6653668623028288e+00,	 4.5227119409285336e+02,	 9.5087758143393265e+04,	 4.2680396997191946e+02,	 5.7999004332454807e-01 
1.9425740000000000e-01,	 2.5008539999999999e-02,	 7.4240336521285710e-01,	 2.4457164967374928e+02,	 -2.7881951832172005e+00,	 4.4518982269345537e+02,	 9.5085675654877414e+04,	 4.2344947654892917e+02,	 5.7760737906693016e-01 
1.9599420000000001e-01,	 2.5038820000000000e-02,	 7.5614327733985143e-01,	 2.4116306396231550e+02,	 -3.8545230582877497e+00,	 4.3707348837591576e+02,	 9.5079851995619829e+04,	 4.1957173016913362e+02,	 5.7485728466368602e-01 
1.9774490000000000e-01,	 2.5069330000000001e-02,	 7.7193462017524028e-01,	 2.3736377764014858e+02,	 -4.8721498171062185e+00,	 4.2811854114141545e+02,	 9.5076786192658139e+04,	 4.1525130407104803e+02,	 5.7173517129293816e-01 
1.9950979999999999e-01,	 2.5100100000000000e-02,	 7.8967062072860572e-01,	 2.3323898094058657e+02,	 -5.8436763894125336e+00,	 4.1851562790574212e+02,	 9.5079655136796937e+04,	 4.1056774413769637e+02,	 5.6826718090112949e-01 
2.0128900000000000e-01,	 2.5131109999999998e-02,	 8.0913022767147802e-01,	 2.2890023034903507e+02,	 -6.7469873587052973e+00,	 4.0851232588115107e+02,	 9.5094090319525669e+04,	 4.0563140239479355e+02,	 5.6455107615107358e-01 
2.0308270000000000e-01,	 2.5162379999999998e-02,	 8.2998022193415744e-01,	 2.2448150845215079e+02,	 -7.5816653186656033e+00,	 3.9834376578383905e+02,	 9.5116465930177903e+04,	 4.0055116472898555e+02,	 5.6075109443101978e-01 
2.0489109999999999e-01,	 2.5193899999999998e-02,	 8.5190799550119622e-01,	 2.2006338768699069e+02,	 -8.3677543269493206e+00,	 3.8821865189890951e+02,	 9.5147860884927693e+04,	 3.9542778783017354e+02,	 5.5692196139230388e-01 
2.0671429999999999e-01,	 2.5225680000000000e-02,	 8.7463140067387990e-01,	 2.1570444537034038e+02,	 -9.0956258267140697e+00,	 3.7832565763607477e+02,	 9.5196459869045764e+04,	 3.9035692156756431e+02,	 5.5307365195359615e-01 
2.0855240000000000e-01,	 2.5257720000000001e-02,	 8.9783289282293344e-01,	 2.1146062053143859e+02,	 -9.7472692915362984e+00,	 3.6883097518579035e+02,	 9.5269269771338964e+04,	 3.8542748398224381e+02,	 5.4922173464183166e-01 
2.1040580000000000e-01,	 2.5290029999999998e-02,	 9.2111591572239004e-01,	 2.0740541672289004e+02,	 -1.0303384576797090e+01,	 3.5987873431462731e+02,	 9.5367502258093446e+04,	 3.8072121588976853e+02,	 5.4544158191911829e-01 
2.1227460000000001e-01,	 2.5322600000000001e-02,	 9.4404750700286200e-01,	 2.0359481171497123e+02,	 -1.0783908511376691e+01,	 3.5157315785487276e+02,	 9.5485955220105621e+04,	 3.7630227289761888e+02,	 5.4179903952096542e-01 
2.1415880000000001e-01,	 2.5355449999999998e-02,	 9.6630096920896769e-01,	 2.0002939911256007e+02,	 -1.1203934013435735e+01,	 3.4398679720954749e+02,	 9.5627791628104562e+04,	 3.7222014463648833e+02,	 5.3823773512862993e-01 
2.1605880000000000e-01,	 2.5388569999999999e-02,	 9.8760292124633564e-01,	 1.9669653369335859e+02,	 -1.1523932792261474e+01,	 3.3718074724441067e+02,	 9.5802109513192408e+04,	 3.6851941320935941e+02,	 5.3466334718594755e-01 
2.1797469999999999e-01,	 2.5421960000000000e-02,	 1.0076533285557852e+00,	 1.9359856171160914e+02,	 -1.1735457414626264e+01,	 3.3117984886624572e+02,	 9.6007461079745583e+04,	 3.6522537055439568e+02,	 5.3105270922697678e-01 