TITLE = "Initial State"
VARIABLES = "X", "Y", "rho", "u", "v", "T", "p", "c", "M"
ZONE I=76, J=50, DATAPACKING=POINT, STRANDID=0, SOLUTIONTIME=0.000000
1.3187769999999999e-01,	 3.2831760000000001e-02,	 1.1739927643084118e+00,	 2.0000000000000000e+02,	 0.0000000000000000e+00,	 3.0000000000000000e+02,	 1.0132500000000000e+05,	 3.4760788074254771e+02,	 5.7536094858599596e-01 
1.3316269999999999e-01,	 3.2870940000000001e-02,	 1.1739927643084118e+00,	 2.0000000000000000e+02,	 0.0000000000000000e+00,	 3.0000000000000000e+02,	 1.0132500000000000e+05,	 3.4760788074254771e+02,	 5.7536094858599596e-01 
1.3445570000000001e-01,	 3.2910350000000005e-02,	 1.1739927643084118e+00,	 2.0000000000000000e+02,	 0.0000000000000000e+00,	 3.0000000000000000e+02,	 1.0132500000000000e+05,	 3.4760788074254771e+02,	 5.7536094858599596e-01 
1.3575670000000001e-01,	 3.2950020000000003e-02,	 1.1739927643084118e+00,	 2.0000000000000000e+02,	 0.0000000000000000e+00,	 3.0000000000000000e+02,	 1.0132500000000000e+05,	 3.4760788074254771e+02,	 5.7536094858599596e-01 
1.3706599999999999e-01,	 3.2989930000000001e-02,	 1.1739927643084118e+00,	 2.0000000000000000e+02,	 0.0000000000000000e+00,	 3.0000000000000000e+02,	 1.0132500000000000e+05,	 3.4760788074254771e+02,	 5.7536094858599596e-01 
1.3838360000000000e-01,	 3.3030100000000000e-02,	 1.1739927643084118e+00,	 2.0000000000000000e+02,	 0.0000000000000000e+00,	 3.0000000000000000e+02,	 1.0132500000000000e+05,	 3.4760788074254771e+02,	 5.7536094858599596e-01 
1.3970969999999999e-01,	 3.3070520000000006e-02,	 1.1739927643084118e+00,	 2.0000000000000000e+02,	 0.0000000000000000e+00,	 3.0000000000000000e+02,	 1.0132500000000000e+05,	 3.4760788074254771e+02,	 5.7536094858599596e-01 
1.4104439999999999e-01,	 3.3111210000000002e-02,	 1.1739927643084118e+00,	 2.0000000000000000e+02,	 0.0000000000000000e+00,	 3.0000000000000000e+02,	 1.0132500000000000e+05,	 3.4760788074254771e+02,	 5.7536094858599596e-01 
1.4238780000000001e-01,	 3.3152160000000000e-02,	 1.1739927643084118e+00,	 2.0000000000000000e+02,	 0.0000000000000000e+00,	 3.0000000000000000e+02,	 1.0132500000000000e+05,	 3.4760788074254771e+02,	 5.7536094858599596e-01 
1.4374000000000001e-01,	 3.3193380000000001e-02,	 1.1739927643084118e+00,	 2.0000000000000000e+02,	 0.0000000000000000e+00,	 3.0000000000000000e+02,	 1.0132500000000000e+05,	 3.4760788074254771e+02,	 5.7536094858599596e-01 
1.4510120000000001e-01,	 3.3234880000000001e-02,	 1.1739927643084118e+00,	 2.0000000000000000e+02,	 0.0000000000000000e+00,	 3.0000000000000000e+02,	 1.0132500000000000e+05,	 3.4760788074254771e+02,	 5.7536094858599596e-01 
1.4647160000000001e-01,	 3.3276660000000000e-02,	 1.1739927643084118e+00,	 2.0000000000000000e+02,	 0.0000000000000000e+00,	 3.0000000000000000e+02,	 1.0132500000000000e+05,	 3.4760788074254771e+02,	 5.7536094858599596e-01 
1.4785110000000001e-01,	 3.3318710000000001e-02,	 1.1739927643084118e+00,	 2.0000000000000000e+02,	 0.0000000000000000e+00,	 3.0000000000000000e+02,	 1.0132500000000000e+05,	 3.4760788074254771e+02,	 5.7536094858599596e-01 
1.4924009999999999e-01,	 3.3361050000000003e-02,	 1.1739927643084118e+00,	 2.0000000000000000e+02,	 0.0000000000000000e+00,	 3.0000000000000000e+02,	 1.0132500000000000e+05,	 3.4760788074254771e+02,	 5.7536094858599596e-01 
1.5063850000000001e-01,	 3.3403690000000000e-02,	 1.1739927643084118e+00,	 2.0000000000000000e+02,	 0.0000000000000000e+00,	 3.0000000000000000e+02,	 1.0132500000000000e+05,	 3.4760788074254771e+02,	 5.7536094858599596e-01 
1.5204660000000000e-01,	 3.3446610000000002e-02,	 1.1739927643084118e+00,	 2.0000000000000000e+02,	 0.0000000000000000e+00,	 3.0000000000000000e+02,	 1.0132500000000000e+05,	 3.4760788074254771e+02,	 5.7536094858599596e-01 
1.5346450000000000e-01,	 3.3489830000000005e-02,	 1.1739927643084118e+00,	 2.0000000000000000e+02,	 0.0000000000000000e+00,	 3.0000000000000000e+02,	 1.0132500000000000e+05,	 3.4760788074254771e+02,	 5.7536094858599596e-01 
1.5489220000000001e-01,	 3.3533360000000005e-02,	 1.1739927643084118e+00,	 2.0000000000000000e+02,	 0.0000000000000000e+00,	 3.0000000000000000e+02,	 1.0132500000000000e+05,	 3.4760788074254771e+02,	 5.7536094858599596e-01 
1.5633010000000000e-01,	 3.3577190000000000e-02,	 1.1739927643084118e+00,	 2.0000000000000000e+02,	 0.0000000000000000e+00,	 3.0000000000000000e+02,	 1.0132500000000000e+05,	 3.4760788074254771e+02,	 5.7536094858599596e-01 
1.5777810000000000e-01,	 3.3621330000000005e-02,	 1.1739927643084118e+00,	 2.0000000000000000e+02,	 0.0000000000000000e+00,	 3.0000000000000000e+02,	 1.0132500000000000e+05,	 3.4760788074254771e+02,	 5.7536094858599596e-01 
1.5923640000000000e-01,	 3.3665790000000001e-02,	 1.1739927643084118e+00,	 2.0000000000000000e+02,	 0.0000000000000000e+00,	 3.0000000000000000e+02,	 1.0132500000000000e+05,	 3.4760788074254771e+02,	 5.7536094858599596e-01 
1.6070519999999999e-01,	 3.3710570000000002e-02,	 1.1739927643084118e+00,	 2.0000000000000000e+02,	 0.0000000000000000e+00,	 3.0000000000000000e+02,	 1.0132500000000000e+05,	 3.4760788074254771e+02,	 5.7536094858599596e-01 
1.6218460000000001e-01,	 3.3755670000000002e-02,	 1.1739927643084118e+00,	 2.0000000000000000e+02,	 0.0000000000000000e+00,	 3.0000000000000000e+02,	 1.0132500000000000e+05,	 3.4760788074254771e+02,	 5.7536094858599596e-01 
1.6367470000000001e-01,	 3.3801090000000006e-02,	 1.1739927643084118e+00,	 2.0000000000000000e+02,	 0.0000000000000000e+00,	 3.0000000000000000e+02,	 1.0132500000000000e+05,	 3.4760788074254771e+02,	 5.7536094858599596e-01 
1.6517570000000001e-01,	 3.3846850000000005e-02,	 1.1739927643084118e+00,	 2.0000000000000000e+02,	 0.0000000000000000e+00,	 3.0000000000000000e+02,	 1.0132500000000000e+05,	 3.4760788074254771e+02,	 5.7536094858599596e-01 
1.6668780000000000e-01,	 3.3892950000000005e-02,	 1.1739927643084118e+00,	 2.0000000000000000e+02,	 0.0000000000000000e+00,	 3.0000000000000000e+02,	 1.0132500000000000e+05,	 3.4760788074254771e+02,	 5.7536094858599596e-01 
1.6821100000000000e-01,	 3.3939380000000005e-02,	 1.1739927643084118e+00,	 2.0000000000000000e+02,	 0.0000000000000000e+00,	 3.0000000000000000e+02,	 1.0132500000000000e+05,	 3.4760788074254771e+02,	 5.7536094858599596e-01 
1.6974560000000000e-01,	 3.3986160000000001e-02,	 1.1739927643084118e+00,	 2.0000000000000000e+02,	 0.0000000000000000e+00,	 3.0000000000000000e+02,	 1.0132500000000000e+05,	 3.4760788074254771e+02,	 5.7536094858599596e-01 
1.7129159999999999e-01,	 3.4033290000000001e-02,	 1.1739927643084118e+00,	 2.0000000000000000e+02,	 0.0000000000000000e+00,	 3.0000000000000000e+02,	 1.0132500000000000e+05,	 3.4760788074254771e+02,	 5.7536094858599596e-01 
1.7284930000000001e-01,	 3.4080780000000005e-02,	 1.1739927643084118e+00,	 2.0000000000000000e+02,	 0.0000000000000000e+00,	 3.0000000000000000e+02,	 1.0132500000000000e+05,	 3.4760788074254771e+02,	 5.7536094858599596e-01 
1.7441870000000001e-01,	 3.4128620000000005e-02,	 1.1739927643084118e+00,	 2.0000000000000000e+02,	 0.0000000000000000e+00,	 3.0000000000000000e+02,	 1.0132500000000000e+05,	 3.4760788074254771e+02,	 5.7536094858599596e-01 
1.7599999999999999e-01,	 3.4176830000000005e-02,	 1.1739927643084118e+00,	 2.0000000000000000e+02,	 0.0000000000000000e+00,	 3.0000000000000000e+02,	 1.0132500000000000e+05,	 3.4760788074254771e+02,	 5.7536094858599596e-01 
1.7759340000000001e-01,	 3.4225400000000003e-02,	 1.1739927643084118e+00,	 2.0000000000000000e+02,	 0.0000000000000000e+00,	 3.0000000000000000e+02,	 1.0132500000000000e+05,	 3.4760788074254771e+02,	 5.7536094858599596e-01 
1.7919900000000000e-01,	 3.4274350000000002e-02,	 1.1739927643084118e+00,	 2.0000000000000000e+02,	 0.0000000000000000e+00,	 3.0000000000000000e+02,	 1.0132500000000000e+05,	 3.4760788074254771e+02,	 5.7536094858599596e-01 
1.8081700000000001e-01,	 3.4323680000000002e-02,	 1.1739927643084118e+00,	 2.0000000000000000e+02,	 0.0000000000000000e+00,	 3.0000000000000000e+02,	 1.0132500000000000e+05,	 3.4760788074254771e+02,	 5.7536094858599596e-01 
1.8244759999999999e-01,	 3.4373380000000002e-02,	 1.1739927643084118e+00,	 2.0000000000000000e+02,	 0.0000000000000000e+00,	 3.0000000000000000e+02,	 1.0132500000000000e+05,	 3.4760788074254771e+02,	 5.7536094858599596e-01 
1.8409080000000000e-01,	 3.4423480000000006e-02,	 1.1739927643084118e+00,	 2.0000000000000000e+02,	 0.0000000000000000e+00,	 3.0000000000000000e+02,	 1.0132500000000000e+05,	 3.4760788074254771e+02,	 5.7536094858599596e-01 
1.8574679999999999e-01,	 3.4473960000000005e-02,	 1.1739927643084118e+00,	 2.0000000000000000e+02,	 0.0000000000000000e+00,	 3.0000000000000000e+02,	 1.0132500000000000e+05,	 3.4760788074254771e+02,	 5.7536094858599596e-01 
1.8741590000000000e-01,	 3.4524840000000001e-02,	 1.1739927643084118e+00,	 2.0000000000000000e+02,	 0.0000000000000000e+00,	 3.0000000000000000e+02,	 1.0132500000000000e+05,	 3.4760788074254771e+02,	 5.7536094858599596e-01 
1.8909809999999999e-01,	 3.4576120000000002e-02,	 1.1739927643084118e+00,	 2.0000000000000000e+02,	 0.0000000000000000e+00,	 3.0000000000000000e+02,	 1.0132500000000000e+05,	 3.4760788074254771e+02,	 5.7536094858599596e-01 
1.9079370000000001e-01,	 3.4627810000000002e-02,	 1.1739927643084118e+00,	 2.0000000000000000e+02,	 0.0000000000000000e+00,	 3.0000000000000000e+02,	 1.0132500000000000e+05,	 3.4760788074254771e+02,	 5.7536094858599596e-01 
1.9250270000000000e-01,	 3.4679910000000001e-02,	 1.1739927643084118e+00,	 2.0000000000000000e+02,	 0.0000000000000000e+00,	 3.0000000000000000e+02,	 1.0132500000000000e+05,	 3.4760788074254771e+02,	 5.7536094858599596e-01 
1.9422539999999999e-01,	 3.4732430000000002e-02,	 1.1739927643084118e+00,	 2.0000000000000000e+02,	 0.0000000000000000e+00,	 3.0000000000000000e+02,	 1.0132500000000000e+05,	 3.4760788074254771e+02,	 5.7536094858599596e-01 
1.9596189999999999e-01,	 3.4785360000000001e-02,	 1.1739927643084118e+00,	 2.0000000000000000e+02,	 0.0000000000000000e+00,	 3.0000000000000000e+02,	 1.0132500000000000e+05,	 3.4760788074254771e+02,	 5.7536094858599596e-01 
1.9771230000000001e-01,	 3.4838730000000005e-02,	 1.1739927643084118e+00,	 2.0000000000000000e+02,	 0.0000000000000000e+00,	 3.0000000000000000e+02,	 1.0132500000000000e+05,	 3.4760788074254771e+02,	 5.7536094858599596e-01 
1.9947699999999999e-01,	 3.4892520000000003e-02,	 1.1739927643084118e+00,	 2.0000000000000000e+02,	 0.0000000000000000e+00,	 3.0000000000000000e+02,	 1.0132500000000000e+05,	 3.4760788074254771e+02,	 5.7536094858599596e-01 
2.0125589999999999e-01,	 3.4946750000000006e-02,	 1.1739927643084118e+00,	 2.0000000000000000e+02,	 0.0000000000000000e+00,	 3.0000000000000000e+02,	 1.0132500000000000e+05,	 3.4760788074254771e+02,	 5.7536094858599596e-01 
2.0304929999999999e-01,	 3.5001430000000000e-02,	 1.1739927643084118e+00,	 2.0000000000000000e+02,	 0.0000000000000000e+00,	 3.0000000000000000e+02,	 1.0132500000000000e+05,	 3.4760788074254771e+02,	 5.7536094858599596e-01 
2.0485740000000000e-01,	 3.5056540000000004e-02,	 1.1739927643084118e+00,	 2.0000000000000000e+02,	 0.0000000000000000e+00,	 3.0000000000000000e+02,	 1.0132500000000000e+05,	 3.4760788074254771e+02,	 5.7536094858599596e-01 
2.0668030000000001e-01,	 3.5112120000000004e-02,	 1.1739927643084118e+00,	 2.0000000000000000e+02,	 0.0000000000000000e+00,	 3.0000000000000000e+02,	 1.0132500000000000e+05,	 3.4760788074254771e+02,	 5.7536094858599596e-01 
2.0851829999999999e-01,	 3.5168150000000002e-02,	 1.1739927643084118e+00,	 2.0000000000000000e+02,	 0.0000000000000000e+00,	 3.0000000000000000e+02,	 1.0132500000000000e+05,	 3.4760788074254771e+02,	 5.7536094858599596e-01 
2.1037139999999999e-01,	 3.5224640000000002e-02,	 1.1739927643084118e+00,	 2.0000000000000000e+02,	 0.0000000000000000e+00,	 3.0000000000000000e+02,	 1.0132500000000000e+05,	 3.4760788074254771e+02,	 5.7536094858599596e-01 
2.1223980000000001e-01,	 3.5281600000000003e-02,	 1.1739927643084118e+00,	 2.0000000000000000e+02,	 0.0000000000000000e+00,	 3.0000000000000000e+02,	 1.0132500000000000e+05,	 3.4760788074254771e+02,	 5.7536094858599596e-01 
2.1412380000000000e-01,	 3.5339030000000000e-02,	 1.1739927643084118e+00,	 2.0000000000000000e+02,	 0.0000000000000000e+00,	 3.0000000000000000e+02,	 1.0132500000000000e+05,	 3.4760788074254771e+02,	 5.7536094858599596e-01 
2.1602360000000001e-01,	 3.5396940000000002e-02,	 1.1739927643084118e+00,	 2.0000000000000000e+02,	 0.0000000000000000e+00,	 3.0000000000000000e+02,	 1.0132500000000000e+05,	 3.4760788074254771e+02,	 5.7536094858599596e-01 
2.1793920000000000e-01,	 3.5455340000000002e-02,	 1.1739927643084118e+00,	 2.0000000000000000e+02,	 0.0000000000000000e+00,	 3.0000000000000000e+02,	 1.0132500000000000e+05,	 3.4760788074254771e+02,	 5.7536094858599596e-01 
2.1987090000000001e-01,	 3.5514230000000001e-02,	 1.1739927643084118e+00,	 2.0000000000000000e+02,	 0.0000000000000000e+00,	 3.0000000000000000e+02,	 1.0132500000000000e+05,	 3.4760788074254771e+02,	 5.7536094858599596e-01 
2.2181890000000001e-01,	 3.5573620000000000e-02,	 1.1739927643084118e+00,	 2.0000000000000000e+02,	 0.0000000000000000e+00,	 3.0000000000000000e+02,	 1.0132500000000000e+05,	 3.4760788074254771e+02,	 5.7536094858599596e-01 
2.2378339999999999e-01,	 3.5633500000000005e-02,	 1.1739927643084118e+00,	 2.0000000000000000e+02,	 0.0000000000000000e+00,	 3.0000000000000000e+02,	 1.0132500000000000e+05,	 3.4760788074254771e+02,	 5.7536094858599596e-01 
2.2576450000000001e-01,	 3.5693890000000006e-02,	 1.1739927643084118e+00,	 2.0000000000000000e+02,	 0.0000000000000000e+00,	 3.0000000000000000e+02,	 1.0132500000000000e+05,	 3.4760788074254771e+02,	 5.7536094858599596e-01 
2.2776240000000000e-01,	 3.5754800000000003e-02,	 1.1739927643084118e+00,	 2.0000000000000000e+02,	 0.0000000000000000e+00,	 3.0000000000000000e+02,	 1.0132500000000000e+05,	 3.4760788074254771e+02,	 5.7536094858599596e-01 
2.2977729999999999e-01,	 3.5816230000000004e-02,	 1.1739927643084118e+00,	 2.0000000000000000e+02,	 0.0000000000000000e+00,	 3.0000000000000000e+02,	 1.0132500000000000e+05,	 3.4760788074254771e+02,	 5.7536094858599596e-01 
2.3180950000000000e-01,	 3.5878180000000003e-02,	 1.1739927643084118e+00,	 2.0000000000000000e+02,	 0.0000000000000000e+00,	 3.0000000000000000e+02,	 1.0132500000000000e+05,	 3.4760788074254771e+02,	 5.7536094858599596e-01 
2.3385909999999999e-01,	 3.5940660000000006e-02,	 1.1739927643084118e+00,	 2.0000000000000000e+02,	 0.0000000000000000e+00,	 3.0000000000000000e+02,	 1.0132500000000000e+05,	 3.4760788074254771e+02,	 5.7536094858599596e-01 
2.3592630000000001e-01,	 3.6003680000000003e-02,	 1.1739927643084118e+00,	 2.0000000000000000e+02,	 0.0000000000000000e+00,	 3.0000000000000000e+02,	 1.0132500000000000e+05,	 3.4760788074254771e+02,	 5.7536094858599596e-01 
2.3801130000000001e-01,	 3.6067240000000000e-02,	 1.1739927643084118e+00,	 2.0000000000000000e+02,	 0.0000000000000000e+00,	 3.0000000000000000e+02,	 1.0132500000000000e+05,	 3.4760788074254771e+02,	 5.7536094858599596e-01 
2.4011430000000000e-01,	 3.6131350000000000e-02,	 1.1739927643084118e+00,	 2.0000000000000000e+02,	 0.0000000000000000e+00,	 3.0000000000000000e+02,	 1.0132500000000000e+05,	 3.4760788074254771e+02,	 5.7536094858599596e-01 
2.4223560000000000e-01,	 3.6196010000000001e-02,	 1.1739927643084118e+00,	 2.0000000000000000e+02,	 0.0000000000000000e+00,	 3.0000000000000000e+02,	 1.0132500000000000e+05,	 3.4760788074254771e+02,	 5.7536094858599596e-01 
2.4437519999999999e-01,	 3.6261240000000000e-02,	 1.1739927643084118e+00,	 2.0000000000000000e+02,	 0.0000000000000000e+00,	 3.0000000000000000e+02,	 1.0132500000000000e+05,	 3.4760788074254771e+02,	 5.7536094858599596e-01 
2.4653340000000001e-01,	 3.6327040000000005e-02,	 1.1739927643084118e+00,	 2.0000000000000000e+02,	 0.0000000000000000e+00,	 3.0000000000000000e+02,	 1.0132500000000000e+05,	 3.4760788074254771e+02,	 5.7536094858599596e-01 
2.4871050000000000e-01,	 3.6393400000000006e-02,	 1.1739927643084118e+00,	 2.0000000000000000e+02,	 0.0000000000000000e+00,	 3.0000000000000000e+02,	 1.0132500000000000e+05,	 3.4760788074254771e+02,	 5.7536094858599596e-01 
2.5090659999999998e-01,	 3.6460350000000002e-02,	 1.1739927643084118e+00,	 2.0000000000000000e+02,	 0.0000000000000000e+00,	 3.0000000000000000e+02,	 1.0132500000000000e+05,	 3.4760788074254771e+02,	 5.7536094858599596e-01 
2.5312200000000001e-01,	 3.6527890000000000e-02,	 1.1739927643084118e+00,	 2.0000000000000000e+02,	 0.0000000000000000e+00,	 3.0000000000000000e+02,	 1.0132500000000000e+05,	 3.4760788074254771e+02,	 5.7536094858599596e-01 
2.5535679999999999e-01,	 3.6596020000000000e-02,	 1.1739927643084118e+00,	 2.0000000000000000e+02,	 0.0000000000000000e+00,	 3.0000000000000000e+02,	 1.0132500000000000e+05,	 3.4760788074254771e+02,	 5.7536094858599596e-01 
2.5761129999999999e-01,	 3.6664740000000001e-02,	 1.1739927643084118e+00,	 2.0000000000000000e+02,	 0.0000000000000000e+00,	 3.0000000000000000e+02,	 1.0132500000000000e+05,	 3.4760788074254771e+02,	 5.7536094858599596e-01 
2.5988570000000000e-01,	 3.6734080000000002e-02,	 1.1739927643084118e+00,	 2.0000000000000000e+02,	 0.0000000000000000e+00,	 3.0000000000000000e+02,	 1.0132500000000000e+05,	 3.4760788074254771e+02,	 5.7536094858599596e-01 
1.3185040000000001e-01,	 3.3184110000000003e-02,	 1.1739927643084118e+00,	 2.0000000000000000e+02,	 0.0000000000000000e+00,	 3.0000000000000000e+02,	 1.0132500000000000e+05,	 3.4760788074254771e+02,	 5.7536094858599596e-01 
1.3313520000000001e-01,	 3.3224090000000005e-02,	 1.1739927643084118e+00,	 2.0000000000000000e+02,	 0.0000000000000000e+00,	 3.0000000000000000e+02,	 1.0132500000000000e+05,	 3.4760788074254771e+02,	 5.7536094858599596e-01 
1.3442799999999999e-01,	 3.3264320000000000e-02,	 1.1739927643084118e+00,	 2.0000000000000000e+02,	 0.0000000000000000e+00,	 3.0000000000000000e+02,	 1.0132500000000000e+05,	 3.4760788074254771e+02,	 5.7536094858599596e-01 
1.3572890000000001e-01,	 3.3304810000000004e-02,	 1.1739927643084118e+00,	 2.0000000000000000e+02,	 0.0000000000000000e+00,	 3.0000000000000000e+02,	 1.0132500000000000e+05,	 3.4760788074254771e+02,	 5.7536094858599596e-01 
1.3703799999999999e-01,	 3.3345550000000002e-02,	 1.1739927643084118e+00,	 2.0000000000000000e+02,	 0.0000000000000000e+00,	 3.0000000000000000e+02,	 1.0132500000000000e+05,	 3.4760788074254771e+02,	 5.7536094858599596e-01 
1.3835549999999999e-01,	 3.3386540000000006e-02,	 1.1739927643084118e+00,	 2.0000000000000000e+02,	 0.0000000000000000e+00,	 3.0000000000000000e+02,	 1.0132500000000000e+05,	 3.4760788074254771e+02,	 5.7536094858599596e-01 
1.3968140000000001e-01,	 3.3427810000000002e-02,	 1.1739927643084118e+00,	 2.0000000000000000e+02,	 0.0000000000000000e+00,	 3.0000000000000000e+02,	 1.0132500000000000e+05,	 3.4760788074254771e+02,	 5.7536094858599596e-01 
1.4101580000000000e-01,	 3.3469340000000000e-02,	 1.1739927643084118e+00,	 2.0000000000000000e+02,	 0.0000000000000000e+00,	 3.0000000000000000e+02,	 1.0132500000000000e+05,	 3.4760788074254771e+02,	 5.7536094858599596e-01 
1.4235900000000001e-01,	 3.3511140000000002e-02,	 1.1739927643084118e+00,	 2.0000000000000000e+02,	 0.0000000000000000e+00,	 3.0000000000000000e+02,	 1.0132500000000000e+05,	 3.4760788074254771e+02,	 5.7536094858599596e-01 
1.4371110000000001e-01,	 3.3553210000000000e-02,	 1.1739927643084118e+00,	 2.0000000000000000e+02,	 0.0000000000000000e+00,	 3.0000000000000000e+02,	 1.0132500000000000e+05,	 3.4760788074254771e+02,	 5.7536094858599596e-01 
1.4507210000000001e-01,	 3.3595570000000005e-02,	 1.1739927643084118e+00,	 2.0000000000000000e+02,	 0.0000000000000000e+00,	 3.0000000000000000e+02,	 1.0132500000000000e+05,	 3.4760788074254771e+02,	 5.7536094858599596e-01 
1.4644219999999999e-01,	 3.3638210000000002e-02,	 1.1739927643084118e+00,	 2.0000000000000000e+02,	 0.0000000000000000e+00,	 3.0000000000000000e+02,	 1.0132500000000000e+05,	 3.4760788074254771e+02,	 5.7536094858599596e-01 
1.4782160000000000e-01,	 3.3681130000000004e-02,	 1.1739927643084118e+00,	 2.0000000000000000e+02,	 0.0000000000000000e+00,	 3.0000000000000000e+02,	 1.0132500000000000e+05,	 3.4760788074254771e+02,	 5.7536094858599596e-01 
1.4921029999999999e-01,	 3.3724350000000000e-02,	 1.1739927643084118e+00,	 2.0000000000000000e+02,	 0.0000000000000000e+00,	 3.0000000000000000e+02,	 1.0132500000000000e+05,	 3.4760788074254771e+02,	 5.7536094858599596e-01 
1.5060850000000001e-01,	 3.3767860000000004e-02,	 1.1739927643084118e+00,	 2.0000000000000000e+02,	 0.0000000000000000e+00,	 3.0000000000000000e+02,	 1.0132500000000000e+05,	 3.4760788074254771e+02,	 5.7536094858599596e-01 
1.5201640000000000e-01,	 3.3811670000000002e-02,	 1.1739927643084118e+00,	 2.0000000000000000e+02,	 0.0000000000000000e+00,	 3.0000000000000000e+02,	 1.0132500000000000e+05,	 3.4760788074254771e+02,	 5.7536094858599596e-01 
1.5343399999999999e-01,	 3.3855790000000004e-02,	 1.1739927643084118e+00,	 2.0000000000000000e+02,	 0.0000000000000000e+00,	 3.0000000000000000e+02,	 1.0132500000000000e+05,	 3.4760788074254771e+02,	 5.7536094858599596e-01 
1.5486159999999999e-01,	 3.3900220000000002e-02,	 1.1739927643084118e+00,	 2.0000000000000000e+02,	 0.0000000000000000e+00,	 3.0000000000000000e+02,	 1.0132500000000000e+05,	 3.4760788074254771e+02,	 5.7536094858599596e-01 
1.5629920000000000e-01,	 3.3944950000000002e-02,	 1.1739927643084118e+00,	 2.0000000000000000e+02,	 0.0000000000000000e+00,	 3.0000000000000000e+02,	 1.0132500000000000e+05,	 3.4760788074254771e+02,	 5.7536094858599596e-01 
1.5774690000000000e-01,	 3.3990010000000001e-02,	 1.1739927643084118e+00,	 2.0000000000000000e+02,	 0.0000000000000000e+00,	 3.0000000000000000e+02,	 1.0132500000000000e+05,	 3.4760788074254771e+02,	 5.7536094858599596e-01 
1.5920500000000001e-01,	 3.4035380000000004e-02,	 1.1739927643084118e+00,	 2.0000000000000000e+02,	 0.0000000000000000e+00,	 3.0000000000000000e+02,	 1.0132500000000000e+05,	 3.4760788074254771e+02,	 5.7536094858599596e-01 
1.6067360000000000e-01,	 3.4081080000000000e-02,	 1.1739927643084118e+00,	 2.0000000000000000e+02,	 0.0000000000000000e+00,	 3.0000000000000000e+02,	 1.0132500000000000e+05,	 3.4760788074254771e+02,	 5.7536094858599596e-01 
1.6215270000000001e-01,	 3.4127110000000002e-02,	 1.1739927643084118e+00,	 2.0000000000000000e+02,	 0.0000000000000000e+00,	 3.0000000000000000e+02,	 1.0132500000000000e+05,	 3.4760788074254771e+02,	 5.7536094858599596e-01 
1.6364260000000000e-01,	 3.4173480000000006e-02,	 1.1739927643084118e+00,	 2.0000000000000000e+02,	 0.0000000000000000e+00,	 3.0000000000000000e+02,	 1.0132500000000000e+05,	 3.4760788074254771e+02,	 5.7536094858599596e-01 
1.6514340000000000e-01,	 3.4220180000000003e-02,	 1.1739927643084118e+00,	 2.0000000000000000e+02,	 0.0000000000000000e+00,	 3.0000000000000000e+02,	 1.0132500000000000e+05,	 3.4760788074254771e+02,	 5.7536094858599596e-01 
1.6665520000000000e-01,	 3.4267230000000003e-02,	 1.1739927643084118e+00,	 2.0000000000000000e+02,	 0.0000000000000000e+00,	 3.0000000000000000e+02,	 1.0132500000000000e+05,	 3.4760788074254771e+02,	 5.7536094858599596e-01 
1.6817820000000000e-01,	 3.4314620000000004e-02,	 1.1739927643084118e+00,	 2.0000000000000000e+02,	 0.0000000000000000e+00,	 3.0000000000000000e+02,	 1.0132500000000000e+05,	 3.4760788074254771e+02,	 5.7536094858599596e-01 
1.6971240000000001e-01,	 3.4362370000000003e-02,	 1.1739927643084118e+00,	 2.0000000000000000e+02,	 0.0000000000000000e+00,	 3.0000000000000000e+02,	 1.0132500000000000e+05,	 3.4760788074254771e+02,	 5.7536094858599596e-01 
1.7125820000000000e-01,	 3.4410470000000005e-02,	 1.1739927643084118e+00,	 2.0000000000000000e+02,	 0.0000000000000000e+00,	 3.0000000000000000e+02,	 1.0132500000000000e+05,	 3.4760788074254771e+02,	 5.7536094858599596e-01 
1.7281560000000001e-01,	 3.4458940000000000e-02,	 1.1739927643084118e+00,	 2.0000000000000000e+02,	 0.0000000000000000e+00,	 3.0000000000000000e+02,	 1.0132500000000000e+05,	 3.4760788074254771e+02,	 5.7536094858599596e-01 
1.7438470000000000e-01,	 3.4507770000000000e-02,	 1.1739927643084118e+00,	 2.0000000000000000e+02,	 0.0000000000000000e+00,	 3.0000000000000000e+02,	 1.0132500000000000e+05,	 3.4760788074254771e+02,	 5.7536094858599596e-01 
1.7596580000000001e-01,	 3.4556970000000006e-02,	 1.1739927643084118e+00,	 2.0000000000000000e+02,	 0.0000000000000000e+00,	 3.0000000000000000e+02,	 1.0132500000000000e+05,	 3.4760788074254771e+02,	 5.7536094858599596e-01 
1.7755889999999999e-01,	 3.4606550000000000e-02,	 1.1739927643084118e+00,	 2.0000000000000000e+02,	 0.0000000000000000e+00,	 3.0000000000000000e+02,	 1.0132500000000000e+05,	 3.4760788074254771e+02,	 5.7536094858599596e-01 
1.7916430000000000e-01,	 3.4656510000000001e-02,	 1.1739927643084118e+00,	 2.0000000000000000e+02,	 0.0000000000000000e+00,	 3.0000000000000000e+02,	 1.0132500000000000e+05,	 3.4760788074254771e+02,	 5.7536094858599596e-01 
1.8078200000000000e-01,	 3.4706850000000004e-02,	 1.1739927643084118e+00,	 2.0000000000000000e+02,	 0.0000000000000000e+00,	 3.0000000000000000e+02,	 1.0132500000000000e+05,	 3.4760788074254771e+02,	 5.7536094858599596e-01 
1.8241220000000000e-01,	 3.4757580000000003e-02,	 1.1739927643084118e+00,	 2.0000000000000000e+02,	 0.0000000000000000e+00,	 3.0000000000000000e+02,	 1.0132500000000000e+05,	 3.4760788074254771e+02,	 5.7536094858599596e-01 
1.8405520000000000e-01,	 3.4808710000000000e-02,	 1.1739927643084118e+00,	 2.0000000000000000e+02,	 0.0000000000000000e+00,	 3.0000000000000000e+02,	 1.0132500000000000e+05,	 3.4760788074254771e+02,	 5.7536094858599596e-01 
1.8571090000000001e-01,	 3.4860230000000006e-02,	 1.1739927643084118e+00,	 2.0000000000000000e+02,	 0.0000000000000000e+00,	 3.0000000000000000e+02,	 1.0132500000000000e+05,	 3.4760788074254771e+02,	 5.7536094858599596e-01 
1.8737970000000001e-01,	 3.4912160000000005e-02,	 1.1739927643084118e+00,	 2.0000000000000000e+02,	 0.0000000000000000e+00,	 3.0000000000000000e+02,	 1.0132500000000000e+05,	 3.4760788074254771e+02,	 5.7536094858599596e-01 
1.8906160000000000e-01,	 3.4964500000000003e-02,	 1.1739927643084118e+00,	 2.0000000000000000e+02,	 0.0000000000000000e+00,	 3.0000000000000000e+02,	 1.0132500000000000e+05,	 3.4760788074254771e+02,	 5.7536094858599596e-01 
1.9075690000000001e-01,	 3.5017260000000001e-02,	 1.1739927643084118e+00,	 2.0000000000000000e+02,	 0.0000000000000000e+00,	 3.0000000000000000e+02,	 1.0132500000000000e+05,	 3.4760788074254771e+02,	 5.7536094858599596e-01 
1.9246559999999999e-01,	 3.5070430000000000e-02,	 1.1739927643084118e+00,	 2.0000000000000000e+02,	 0.0000000000000000e+00,	 3.0000000000000000e+02,	 1.0132500000000000e+05,	 3.4760788074254771e+02,	 5.7536094858599596e-01 
1.9418800000000000e-01,	 3.5124030000000001e-02,	 1.1739927643084118e+00,	 2.0000000000000000e+02,	 0.0000000000000000e+00,	 3.0000000000000000e+02,	 1.0132500000000000e+05,	 3.4760788074254771e+02,	 5.7536094858599596e-01 
1.9592419999999999e-01,	 3.5178060000000004e-02,	 1.1739927643084118e+00,	 2.0000000000000000e+02,	 0.0000000000000000e+00,	 3.0000000000000000e+02,	 1.0132500000000000e+05,	 3.4760788074254771e+02,	 5.7536094858599596e-01 
1.9767440000000000e-01,	 3.5232530000000005e-02,	 1.1739927643084118e+00,	 2.0000000000000000e+02,	 0.0000000000000000e+00,	 3.0000000000000000e+02,	 1.0132500000000000e+05,	 3.4760788074254771e+02,	 5.7536094858599596e-01 
1.9943880000000000e-01,	 3.5287430000000002e-02,	 1.1739927643084118e+00,	 2.0000000000000000e+02,	 0.0000000000000000e+00,	 3.0000000000000000e+02,	 1.0132500000000000e+05,	 3.4760788074254771e+02,	 5.7536094858599596e-01 
2.0121739999999999e-01,	 3.5342780000000004e-02,	 1.1739927643084118e+00,	 2.0000000000000000e+02,	 0.0000000000000000e+00,	 3.0000000000000000e+02,	 1.0132500000000000e+05,	 3.4760788074254771e+02,	 5.7536094858599596e-01 
2.0301060000000001e-01,	 3.5398580000000006e-02,	 1.1739927643084118e+00,	 2.0000000000000000e+02,	 0.0000000000000000e+00,	 3.0000000000000000e+02,	 1.0132500000000000e+05,	 3.4760788074254771e+02,	 5.7536094858599596e-01 
2.0481840000000001e-01,	 3.5454830000000000e-02,	 1.1739927643084118e+00,	 2.0000000000000000e+02,	 0.0000000000000000e+00,	 3.0000000000000000e+02,	 1.0132500000000000e+05,	 3.4760788074254771e+02,	 5.7536094858599596e-01 
2.0664099999999999e-01,	 3.5511550000000003e-02,	 1.1739927643084118e+00,	 2.0000000000000000e+02,	 0.0000000000000000e+00,	 3.0000000000000000e+02,	 1.0132500000000000e+05,	 3.4760788074254771e+02,	 5.7536094858599596e-01 
2.0847869999999999e-01,	 3.5568740000000001e-02,	 1.1739927643084118e+00,	 2.0000000000000000e+02,	 0.0000000000000000e+00,	 3.0000000000000000e+02,	 1.0132500000000000e+05,	 3.4760788074254771e+02,	 5.7536094858599596e-01 
2.1033150000000000e-01,	 3.5626390000000001e-02,	 1.1739927643084118e+00,	 2.0000000000000000e+02,	 0.0000000000000000e+00,	 3.0000000000000000e+02,	 1.0132500000000000e+05,	 3.4760788074254771e+02,	 5.7536094858599596e-01 
2.1219969999999999e-01,	 3.5684530000000006e-02,	 1.1739927643084118e+00,	 2.0000000000000000e+02,	 0.0000000000000000e+00,	 3.0000000000000000e+02,	 1.0132500000000000e+05,	 3.4760788074254771e+02,	 5.7536094858599596e-01 
2.1408340000000001e-01,	 3.5743150000000001e-02,	 1.1739927643084118e+00,	 2.0000000000000000e+02,	 0.0000000000000000e+00,	 3.0000000000000000e+02,	 1.0132500000000000e+05,	 3.4760788074254771e+02,	 5.7536094858599596e-01 
2.1598290000000001e-01,	 3.5802260000000002e-02,	 1.1739927643084118e+00,	 2.0000000000000000e+02,	 0.0000000000000000e+00,	 3.0000000000000000e+02,	 1.0132500000000000e+05,	 3.4760788074254771e+02,	 5.7536094858599596e-01 
2.1789819999999999e-01,	 3.5861860000000002e-02,	 1.1739927643084118e+00,	 2.0000000000000000e+02,	 0.0000000000000000e+00,	 3.0000000000000000e+02,	 1.0132500000000000e+05,	 3.4760788074254771e+02,	 5.7536094858599596e-01 
2.1982969999999999e-01,	 3.5921960000000003e-02,	 1.1739927643084118e+00,	 2.0000000000000000e+02,	 0.0000000000000000e+00,	 3.0000000000000000e+02,	 1.0132500000000000e+05,	 3.4760788074254771e+02,	 5.7536094858599596e-01 