TITLE = "Final State"
VARIABLES = "X", "Y", "rho", "u", "v", "T", "p", "c", "M"
ZONE I=102, J=25, DATAPACKING=POINT, STRANDID=14000, SOLUTIONTIME=0.000338
1.0567210000000000e+00,	 2.8514950000000000e-01,	 4.5711024248129679e-02,	 1.6039798650414634e+03,	 -1.4812996945927469e+02,	 6.1422198005242274e+02,	 8.0774865551339863e+03,	 4.9738383139472444e+02,	 3.2385559289388874e+00 
1.0574120000000000e+00,	 2.8514249999999997e-01,	 4.5436321478923222e-02,	 1.6046057484860066e+03,	 -1.5134737808305516e+02,	 6.1274741053613207e+02,	 8.0096693050445720e+03,	 4.9678643519654037e+02,	 3.2443066429813006e+00 
1.0581080000000000e+00,	 2.8513539999999998e-01,	 4.5128837110569558e-02,	 1.6054133033149355e+03,	 -1.5488949684185957e+02,	 6.1111002747217663e+02,	 7.9342063286719731e+03,	 4.9612223505453721e+02,	 3.2509484842020266e+00 
1.0588070000000001e+00,	 2.8512830000000000e-01,	 4.4830973976071817e-02,	 1.6061935089001115e+03,	 -1.5836326266170897e+02,	 6.0951557326044303e+02,	 7.8612737196886865e+03,	 4.9547459321715650e+02,	 3.2574456751755618e+00 
1.0595110000000001e+00,	 2.8512119999999996e-01,	 4.4539604430056293e-02,	 1.6069502789428270e+03,	 -1.6179555421095756e+02,	 6.0794916184610008e+02,	 7.7901094076834706e+03,	 4.9483751651600426e+02,	 3.2638489747998900e+00 
1.0602190000000000e+00,	 2.8511399999999998e-01,	 4.4253332691568538e-02,	 1.6076831739407301e+03,	 -1.6518994234971939e+02,	 6.0641056333467395e+02,	 7.7204511262727056e+03,	 4.9421095212954310e+02,	 3.2701572951511753e+00 
1.0609310000000001e+00,	 2.8510679999999999e-01,	 4.3974132219477505e-02,	 1.6083972399900670e+03,	 -1.6854770869853525e+02,	 6.0489496475218823e+02,	 7.6525677772928275e+03,	 4.9359297640620457e+02,	 3.2763926126501732e+00 
1.0616479999999999e+00,	 2.8509950000000001e-01,	 4.3699112351867131e-02,	 1.6090904384856631e+03,	 -1.7187286325537536e+02,	 6.0340289075638191e+02,	 7.5859493604115505e+03,	 4.9298383596907252e+02,	 3.2825489865907982e+00 
1.0623680000000000e+00,	 2.8509219999999996e-01,	 4.3430894762556745e-02,	 1.6097661656568634e+03,	 -1.7516134710373677e+02,	 6.0193300666833170e+02,	 7.5210222334604414e+03,	 4.9238301772383812e+02,	 3.2886347913152503e+00 
1.0630940000000000e+00,	 2.8508489999999997e-01,	 4.3167957246776620e-02,	 1.6104250000503803e+03,	 -1.7841903627852491e+02,	 6.0048189960231912e+02,	 7.4574672754519161e+03,	 4.9178915461302648e+02,	 3.2946606614250409e+00 
1.0638230000000000e+00,	 2.8507749999999998e-01,	 4.2908778188735494e-02,	 1.6110623014274915e+03,	 -1.8164008311917794e+02,	 5.9905697276545175e+02,	 7.3951027624976987e+03,	 4.9120530705488659e+02,	 3.3005944713003084e+00 
1.0645570000000000e+00,	 2.8506999999999999e-01,	 4.2654750950828935e-02,	 1.6116818929478600e+03,	 -1.8483173424458755e+02,	 5.9765392704940371e+02,	 7.3341050375544728e+03,	 4.9062974618261984e+02,	 3.3064561800128236e+00 
1.0652960000000000e+00,	 2.8506250000000000e-01,	 4.2406823072934120e-02,	 1.6122859746961965e+03,	 -1.8799187465692006e+02,	 5.9627176087369480e+02,	 7.2746133898265007e+03,	 4.9006208960563134e+02,	 3.3122514396921967e+00 
1.0660390000000000e+00,	 2.8505500000000000e-01,	 4.2163351796939634e-02,	 1.6128727486882724e+03,	 -1.9111851118198956e+02,	 5.9491208766262207e+02,	 7.2163544853924432e+03,	 4.8950302859872198e+02,	 3.3179705626876648e+00 
1.0667869999999999e+00,	 2.8504740000000001e-01,	 4.1923659453202367e-02,	 1.6134418173183305e+03,	 -1.9421059463452093e+02,	 5.9357422703401699e+02,	 7.1591944376167785e+03,	 4.8895231241625658e+02,	 3.3236132478557381e+00 
1.0675390000000000e+00,	 2.8503980000000001e-01,	 4.1689767457036231e-02,	 1.6139959096684997e+03,	 -1.9725693011351837e+02,	 5.9225789968670892e+02,	 7.1034654471829026e+03,	 4.8840985412247073e+02,	 3.3291819204459769e+00 
1.0682959999999999e+00,	 2.8503210000000001e-01,	 4.1459523517423123e-02,	 1.6145345181459452e+03,	 -2.0026491861506872e+02,	 5.9096309047525472e+02,	 7.0487904724769660e+03,	 4.8787567501092400e+02,	 3.3346762334951707e+00 
1.0690580000000001e+00,	 2.8502440000000001e-01,	 4.1234843483749686e-02,	 1.6150607007428480e+03,	 -2.0324133551068863e+02,	 5.8968938271778939e+02,	 6.9954812411659832e+03,	 4.8734963012216696e+02,	 3.3401041998447072e+00 
1.0698250000000000e+00,	 2.8501660000000001e-01,	 4.1013513193386093e-02,	 1.6155716112748203e+03,	 -2.0619775353393712e+02,	 5.8843804235257141e+02,	 6.9431676478153931e+03,	 4.8683226949888780e+02,	 3.3454584196184562e+00 
1.0705970000000000e+00,	 2.8500880000000001e-01,	 4.0797646810786140e-02,	 1.6160682169599979e+03,	 -2.0912551666083283e+02,	 5.8720815966819919e+02,	 6.8921882833362051e+03,	 4.8632324414719653e+02,	 3.3507402517279332e+00 
1.0713729999999999e+00,	 2.8500090000000000e-01,	 4.0584913370892324e-02,	 1.6165482077819966e+03,	 -2.1202011160872812e+02,	 5.8599929322296612e+02,	 6.8421352224298425e+03,	 4.8582239727871087e+02,	 3.3559440546125976e+00 
1.0721550000000000e+00,	 2.8499300000000000e-01,	 4.0377723490999634e-02,	 1.6170157746148743e+03,	 -2.1487677926596714e+02,	 5.8480802585537629e+02,	 6.7933672202015059e+03,	 4.8532833627547643e+02,	 3.3610858931296113e+00 
1.0729420000000001e+00,	 2.8498499999999999e-01,	 4.0173003433965487e-02,	 1.6174664277197244e+03,	 -2.1769915566825688e+02,	 5.8363858682033322e+02,	 6.7454082052042122e+03,	 4.8484283855810662e+02,	 3.3661444514000047e+00 
1.0737340000000000e+00,	 2.8497689999999998e-01,	 3.9972944778348181e-02,	 1.6179030014801790e+03,	 -2.2049034149887191e+02,	 5.8248941847726246e+02,	 6.6986011771163967e+03,	 4.8436528225398297e+02,	 3.3711298571844068e+00 
1.0745309999999999e+00,	 2.8496889999999997e-01,	 3.9778818170218624e-02,	 1.6183280529713552e+03,	 -2.2324647036606339e+02,	 5.8135890554593072e+02,	 6.6531320472663328e+03,	 4.8389501863514977e+02,	 3.3760500052444971e+00 
1.0753330000000001e+00,	 2.8496070000000001e-01,	 3.9585244335253754e-02,	 1.6187357297484748e+03,	 -2.2597796117357700e+02,	 5.8024993221382556e+02,	 6.6081267684794611e+03,	 4.8343327046073898e+02,	 3.3808865709900249e+00 
1.0761410000000000e+00,	 2.8495250000000000e-01,	 3.9398137754897297e-02,	 1.6191333984102757e+03,	 -2.2867672823441160e+02,	 5.7915924628323910e+02,	 6.5645298290014980e+03,	 4.8297870610212595e+02,	 3.3856609203045909e+00 
1.0769530000000000e+00,	 2.8494429999999998e-01,	 3.9214612782476371e-02,	 1.6195182584172442e+03,	 -2.3134470714457251e+02,	 5.7808783688992003e+02,	 6.5218634298571251e+03,	 4.8253175867921675e+02,	 3.3903641216976017e+00 
1.0777720000000000e+00,	 2.8493599999999997e-01,	 3.9033830343692594e-02,	 1.6198893921430767e+03,	 -2.3398789113017040e+02,	 5.7703474673779385e+02,	 6.4799711613243353e+03,	 4.8209204948369205e+02,	 3.3949980205649926e+00 
1.0785950000000000e+00,	 2.8492760000000000e-01,	 3.8856689210001474e-02,	 1.6202463355369291e+03,	 -2.3660207782187121e+02,	 5.7600288689111039e+02,	 6.4390291512914819e+03,	 4.8166081547468082e+02,	 3.3995510419040267e+00 
1.0794250000000001e+00,	 2.8491919999999998e-01,	 3.8684778706922759e-02,	 1.6205927372082883e+03,	 -2.3918841046065174e+02,	 5.7498798466072719e+02,	 6.3992462673730679e+03,	 4.8123629142521600e+02,	 3.4040427931175254e+00 
1.0802590000000001e+00,	 2.8491079999999996e-01,	 3.8515851918692320e-02,	 1.6209247829210765e+03,	 -2.4174559882723827e+02,	 5.7399382483461386e+02,	 6.3602863098093731e+03,	 4.8082008032145654e+02,	 3.4084530594271905e+00 
1.0810999999999999e+00,	 2.8490219999999999e-01,	 3.8349175707957470e-02,	 1.6212431724142034e+03,	 -2.4428303263270135e+02,	 5.7301805994220103e+02,	 6.3219969343049006e+03,	 4.8041121972540827e+02,	 3.4127923267704552e+00 
1.0819460000000001e+00,	 2.8489369999999997e-01,	 3.8188925486780670e-02,	 1.6215528691704319e+03,	 -2.4678681391178299e+02,	 5.7206093759435794e+02,	 6.2850635011124414e+03,	 4.8000983230376653e+02,	 3.4170650332166344e+00 
1.0827979999999999e+00,	 2.8488500000000000e-01,	 3.8028935836687108e-02,	 1.6218473114197698e+03,	 -2.4927092593250802e+02,	 5.7112343390186834e+02,	 6.2484757741095682e+03,	 4.7961634667717050e+02,	 3.4212583552008304e+00 
1.0836560000000000e+00,	 2.8487629999999997e-01,	 3.7874874253620155e-02,	 1.6221335777571287e+03,	 -2.5172498659347542e+02,	 5.7020267207285906e+02,	 6.2131292078006336e+03,	 4.7922957340433356e+02,	 3.4253914986937222e+00 
1.0845190000000000e+00,	 2.8486760000000000e-01,	 3.7723369158922757e-02,	 1.6224092991632090e+03,	 -2.5415102000382132e+02,	 5.6929905061184309e+02,	 6.1784689810703112e+03,	 4.7884969634562890e+02,	 3.4294583264181049e+00 
1.0853889999999999e+00,	 2.8485869999999996e-01,	 3.7573522516938629e-02,	 1.6226739720479279e+03,	 -2.5655520329816767e+02,	 5.6841170078889786e+02,	 6.1443346136779601e+03,	 4.7847636628773841e+02,	 3.4334617442551889e+00 
1.0862639999999999e+00,	 2.8484989999999999e-01,	 3.7429277235824919e-02,	 1.6229343507035169e+03,	 -2.5892365947439322e+02,	 5.6753870197893798e+02,	 6.1113458384909463e+03,	 4.7810878957665727e+02,	 3.4374163378085245e+00 
1.0871459999999999e+00,	 2.8484090000000001e-01,	 3.7284890965288905e-02,	 1.6231845134114492e+03,	 -2.6126806738191613e+02,	 5.6668070439536427e+02,	 6.0785674469286960e+03,	 4.7774725357754272e+02,	 3.4413111169349881e+00 
1.0880330000000000e+00,	 2.8483189999999997e-01,	 3.7144768326291003e-02,	 1.6234308207696840e+03,	 -2.6357731525187387e+02,	 5.6583493607251035e+02,	 6.0466850704231028e+03,	 4.7739060267289113e+02,	 3.4451633587732937e+00 
1.0889270000000000e+00,	 2.8482279999999999e-01,	 3.7005903139802801e-02,	 1.6236720511945605e+03,	 -2.6585635002971816e+02,	 5.6499920890156068e+02,	 6.0151821763679873e+03,	 4.7703792409265662e+02,	 3.4489782981490822e+00 
1.0898270000000001e+00,	 2.8481370000000000e-01,	 3.6869716236004130e-02,	 1.6239105474249679e+03,	 -2.6809718914150267e+02,	 5.6417326693783798e+02,	 5.9842845530079148e+03,	 4.7668911852545847e+02,	 3.4527583452935642e+00 
1.0907330000000000e+00,	 2.8480450000000002e-01,	 3.6734409608598625e-02,	 1.6241468209703235e+03,	 -2.7030315175088117e+02,	 5.6335416858088627e+02,	 5.9536666430801497e+03,	 4.7634295084893569e+02,	 3.4565141807453981e+00 
1.0916459999999999e+00,	 2.8479529999999997e-01,	 3.6600932014227622e-02,	 1.6243854398884469e+03,	 -2.7246808945947140e+02,	 5.6253920177112400e+02,	 5.9234520139068918e+03,	 4.7599827940121179e+02,	 3.4602610313388711e+00 
1.0925650000000000e+00,	 2.8478589999999998e-01,	 3.6466841325070512e-02,	 1.6246250540883159e+03,	 -2.7459353738018558e+02,	 5.6172868983048761e+02,	 5.8932476336463169e+03,	 4.7565524432464724e+02,	 3.4639952267715866e+00 
1.0934910000000000e+00,	 2.8477659999999999e-01,	 3.6335863183175610e-02,	 1.6248753688033657e+03,	 -2.7666625584620510e+02,	 5.6091646110423380e+02,	 5.8635901205147511e+03,	 4.7531123429081310e+02,	 3.4677508919492972e+00 
1.0944229999999999e+00,	 2.8476710000000000e-01,	 3.6202062210714460e-02,	 1.6251317493124170e+03,	 -2.7869210304872178e+02,	 5.6010338879141261e+02,	 5.8335301672903233e+03,	 4.7496661741699222e+02,	 3.4715174550573287e+00 
1.0953619999999999e+00,	 2.8475760000000000e-01,	 3.6069818685547095e-02,	 1.6254045613480607e+03,	 -2.8065733107385176e+02,	 5.5928313996690702e+02,	 5.8037089390343945e+03,	 4.7461870526634345e+02,	 3.4753308736319224e+00 
1.0963069999999999e+00,	 2.8474800000000000e-01,	 3.5935100567992213e-02,	 1.6256941306907484e+03,	 -2.8256119116853858e+02,	 5.5845278969069705e+02,	 5.7734481096112759e+03,	 4.7426624858524212e+02,	 3.4792004427415431e+00 
1.0972599999999999e+00,	 2.8473830000000000e-01,	 3.5798746493656497e-02,	 1.6260072604674019e+03,	 -2.8439587869881558e+02,	 5.5760656666455031e+02,	 5.7428257231125599e+03,	 4.7390678474296277e+02,	 3.4831553536164459e+00 
1.0982190000000001e+00,	 2.8472860000000000e-01,	 3.5660494642337170e-02,	 1.6263493063669816e+03,	 -2.8614820191356716e+02,	 5.5674062165450960e+02,	 5.7117634157496868e+03,	 4.7353866079187071e+02,	 3.4872139696635602e+00 
1.0991850000000001e+00,	 2.8471879999999999e-01,	 3.5517708234589579e-02,	 1.6267234098176623e+03,	 -2.8781530692705394e+02,	 5.5584928456274815e+02,	 5.6797853581652198e+03,	 4.7315944322684823e+02,	 3.4913996437266910e+00 
1.1001580000000000e+00,	 2.8470889999999999e-01,	 3.5370741708025746e-02,	 1.6271363135627078e+03,	 -2.8938619484006830e+02,	 5.5492675729694952e+02,	 5.6468957531376191e+03,	 4.7276663553354103e+02,	 3.4957408580237619e+00 
1.1011380000000000e+00,	 2.8469899999999998e-01,	 3.5219339621899270e-02,	 1.6275948188886689e+03,	 -2.9084918766863348e+02,	 5.5396652848575320e+02,	 5.6129951988682424e+03,	 4.7235742775066274e+02,	 3.5002684436092748e+00 
1.1021250000000000e+00,	 2.8468899999999997e-01,	 3.5060969909470496e-02,	 1.6281018416076433e+03,	 -2.9219900705388568e+02,	 5.5296375551801657e+02,	 5.5776406364616078e+03,	 4.7192971074615832e+02,	 3.5050025268331431e+00 
1.1031190000000000e+00,	 2.8467890000000001e-01,	 3.4895711122983661e-02,	 1.6286633692022215e+03,	 -2.9342521385047212e+02,	 5.5191359177945446e+02,	 5.5408077277269358e+03,	 4.7148136400095558e+02,	 3.5099680110033749e+00 
1.1041200000000000e+00,	 2.8466870000000000e-01,	 3.4722924404498950e-02,	 1.6292840892176509e+03,	 -2.9452094052881750e+02,	 5.5081067090593228e+02,	 5.5023546312137760e+03,	 4.7101003416298460e+02,	 3.5151904102289895e+00 
1.1051290000000000e+00,	 2.8465849999999998e-01,	 3.4542790603889165e-02,	 1.6299695051618146e+03,	 -2.9547682352570831e+02,	 5.4964971390690630e+02,	 5.4622725174116058e+03,	 4.7051339269756522e+02,	 3.5206961250988282e+00 
1.1061449999999999e+00,	 2.8464819999999996e-01,	 3.4352938550320462e-02,	 1.6307198668352271e+03,	 -2.9629002361203413e+02,	 5.4842902095571742e+02,	 5.4201868482534665e+03,	 4.6999063100910547e+02,	 3.5264919816442144e+00 
1.1071690000000001e+00,	 2.8463780000000000e-01,	 3.4154525932720475e-02,	 1.6315391199136602e+03,	 -2.9695659238024712e+02,	 5.4714479484403478e+02,	 5.3762625721908662e+03,	 4.6944003287244925e+02,	 3.5325992030445921e+00 
1.1082000000000001e+00,	 2.8462739999999997e-01,	 3.3947443390825033e-02,	 1.6324293862845939e+03,	 -2.9747056927262628e+02,	 5.4579559714143011e+02,	 5.3304888371107772e+03,	 4.6886088238501219e+02,	 3.5390272425858877e+00 
1.1092379999999999e+00,	 2.8461680000000000e-01,	 3.3729613274268669e-02,	 1.6333883450828130e+03,	 -2.9783827741833181e+02,	 5.4438123388029362e+02,	 5.2825600777979480e+03,	 4.6825299018217328e+02,	 3.5457772287714442e+00 
1.1102850000000000e+00,	 2.8460619999999998e-01,	 3.3504265429462901e-02,	 1.6344205318915263e+03,	 -2.9805273995031814e+02,	 5.4289980204889423e+02,	 5.2329877896014796e+03,	 4.6761542461388024e+02,	 3.5528654909239759e+00 
1.1113390000000001e+00,	 2.8459550000000000e-01,	 3.3269180500007649e-02,	 1.6355212948976491e+03,	 -2.9811863064555126e+02,	 5.4135394395623189e+02,	 5.1814742697403635e+03,	 4.6694920370696667e+02,	 3.5602789817632821e+00 
1.1124000000000001e+00,	 2.8458479999999997e-01,	 3.3026072997683342e-02,	 1.6366913414447854e+03,	 -2.9803732446982178e+02,	 5.3974346383192028e+02,	 5.1283099518390391e+03,	 4.6625412006887859e+02,	 3.5680241514934239e+00 
1.1134700000000000e+00,	 2.8457389999999999e-01,	 3.2773321048804788e-02,	 1.6379253863214155e+03,	 -2.9782007479154220e+02,	 5.3807053571963240e+02,	 5.0732889804915258e+03,	 4.6553098489146993e+02,	 3.5760910256743430e+00 
1.1145480000000001e+00,	 2.8456300000000001e-01,	 3.2514334379742729e-02,	 1.6392251995532240e+03,	 -2.9746237204740248e+02,	 5.3633714788909208e+02,	 5.0169836234785425e+03,	 4.6478052874233282e+02,	 3.5844791911731013e+00 
1.1156340000000000e+00,	 2.8455199999999997e-01,	 3.2247155613971727e-02,	 1.6405840734774081e+03,	 -2.9697506420290108e+02,	 5.3454685690615293e+02,	 4.9591487035639493e+03,	 4.6400416266883315e+02,	 3.5931710401394756e+00 
1.1167270000000000e+00,	 2.8454089999999999e-01,	 3.1973303068383904e-02,	 1.6419995375171093e+03,	 -2.9636495459169339e+02,	 5.3270201298155109e+02,	 4.9000643074295003e+03,	 4.6320277818497402e+02,	 3.6021603707776917e+00 
1.1178300000000001e+00,	 2.8452970000000000e-01,	 3.1693268598955403e-02,	 1.6434684653730542e+03,	 -2.9563821588951492e+02,	 5.3080507671640567e+02,	 4.8398515015215480e+03,	 4.6237731690589357e+02,	 3.6114389751598401e+00 
1.1189400000000000e+00,	 2.8451840000000000e-01,	 3.1407760238162025e-02,	 1.6449862833318216e+03,	 -2.9480062597982908e+02,	 5.2886145728317160e+02,	 4.7786895994985343e+03,	 4.6153000990525447e+02,	 3.6209852763217962e+00 
1.1200580000000000e+00,	 2.8450710000000001e-01,	 3.1117849914287284e-02,	 1.6465510638139972e+03,	 -2.9385910283717385e+02,	 5.2687230422048390e+02,	 4.7167720585180559e+03,	 4.6066123917801309e+02,	 3.6307981156869080e+00 
1.1211860000000000e+00,	 2.8449560000000002e-01,	 3.0822323145041859e-02,	 1.6481561324259210e+03,	 -2.9282629215236557e+02,	 5.2484208514356010e+02,	 4.6539740676297233e+03,	 4.5977283991952453e+02,	 3.6408568782960331e+00 
1.1223209999999999e+00,	 2.8448409999999996e-01,	 3.0524381475286438e-02,	 1.6498020135324152e+03,	 -2.9170007002531793e+02,	 5.2277446058192675e+02,	 4.5908295932341116e+03,	 4.5886630464380505e+02,	 3.6511532131192990e+00 
1.1234649999999999e+00,	 2.8447249999999996e-01,	 3.0222536621239159e-02,	 1.6514826964210515e+03,	 -2.9049345990771542e+02,	 5.2067185032529937e+02,	 4.5271506684134392e+03,	 4.5794258977631881e+02,	 3.6616746411633554e+00 
1.1246179999999999e+00,	 2.8446080000000001e-01,	 2.9918037580944239e-02,	 1.6531954869573824e+03,	 -2.8921284417283118e+02,	 5.1853845104855918e+02,	 4.4631759365697962e+03,	 4.5700344047554847e+02,	 3.6724067761521626e+00 
1.1257800000000000e+00,	 2.8444900000000001e-01,	 2.9611601667288587e-02,	 1.6549378297005933e+03,	 -2.8786210389011330e+02,	 5.1637689469963470e+02,	 4.3990473603419759e+03,	 4.5604992362192331e+02,	 3.6833398011702267e+00 
1.1269499999999999e+00,	 2.8443720000000000e-01,	 2.9303952613439245e-02,	 1.6567071023328294e+03,	 -2.8644705408191868e+02,	 5.1419029416159992e+02,	 4.3349093040298403e+03,	 4.5508332643226635e+02,	 3.6944625288857944e+00 
1.1281289999999999e+00,	 2.8442519999999999e-01,	 2.8994097311270998e-02,	 1.6584974311264928e+03,	 -2.8497949857414676e+02,	 5.1198211107322931e+02,	 4.2706533041500252e+03,	 4.5410510054036621e+02,	 3.7057573827489683e+00 
1.1293169999999999e+00,	 2.8441319999999998e-01,	 2.8684709196474686e-02,	 1.6603098785383354e+03,	 -2.8345878769184765e+02,	 5.0975398347680482e+02,	 4.2066949208186852e+03,	 4.5311589865233589e+02,	 3.7172234328697384e+00 
1.1305149999999999e+00,	 2.8440100000000001e-01,	 2.8373705260478384e-02,	 1.6621390890419029e+03,	 -2.8189345683157228e+02,	 5.0750861605634134e+02,	 4.1427565274822955e+03,	 4.5211685346667093e+02,	 3.7288451615706211e+00 
1.1317210000000000e+00,	 2.8438880000000000e-01,	 2.8063785443705667e-02,	 1.6639848647199728e+03,	 -2.8028429854524654e+02,	 5.0524885352107214e+02,	 4.0792613029672257e+03,	 4.5110916952977794e+02,	 3.7406145642823172e+00 
1.1329370000000001e+00,	 2.8437639999999997e-01,	 2.7753015489911735e-02,	 1.6658420626500417e+03,	 -2.7864205017699373e+02,	 5.0297718548722037e+02,	 4.0159509695941642e+03,	 4.5009390274913693e+02,	 3.7525175040902647e+00 
1.1341619999999999e+00,	 2.8436400000000001e-01,	 2.7444011542550009e-02,	 1.6677128273131666e+03,	 -2.7696201304900126e+02,	 5.0069447229277978e+02,	 3.9532140259015619e+03,	 4.4907138751197738e+02,	 3.7645559328646168e+00 
1.1353960000000001e+00,	 2.8435149999999998e-01,	 2.7135192935796734e-02,	 1.6695916509031076e+03,	 -2.7525523930586752e+02,	 4.9840381289927768e+02,	 3.8908474843498238e+03,	 4.4804296710806159e+02,	 3.7767122159848676e+00 
1.1366400000000001e+00,	 2.8433890000000001e-01,	 2.6827608001888926e-02,	 1.6714781317926959e+03,	 -2.7352383631167561e+02,	 4.9610645184456240e+02,	 3.8290123264423323e+03,	 4.4700916146611388e+02,	 3.7889833203309058e+00 
1.1378940000000000e+00,	 2.8432619999999997e-01,	 2.6521425778084987e-02,	 1.6733712301657642e+03,	 -2.7176943584086121e+02,	 4.9380381515817965e+02,	 3.7677427798579579e+03,	 4.4597057708319244e+02,	 3.8013637937960914e+00 
1.1391570000000000e+00,	 2.8431339999999999e-01,	 2.6216513625416264e-02,	 1.6752690609616743e+03,	 -2.6999609352372147e+02,	 4.9149786750976932e+02,	 3.7070335140395473e+03,	 4.4492806975328295e+02,	 3.8138449100789034e+00 
1.1404300000000001e+00,	 2.8430040000000001e-01,	 2.5913314857747474e-02,	 1.6771675657373764e+03,	 -2.6819660647053968e+02,	 4.8919808368275380e+02,	 3.6470158983335755e+03,	 4.4388591044557540e+02,	 3.8263794450339792e+00 
1.1417130000000000e+00,	 2.8428739999999997e-01,	 2.5612727356582966e-02,	 1.6790715224301509e+03,	 -2.6638888831320162e+02,	 4.8689060115644077e+02,	 3.5877085458472588e+03,	 4.4283779752700593e+02,	 3.8390395683933281e+00 
1.1430050000000000e+00,	 2.8427429999999998e-01,	 2.5314450935520490e-02,	 1.6809695254812041e+03,	 -2.6454522679603303e+02,	 4.8460058693094226e+02,	 3.5292496909356651e+03,	 4.4179516075491676e+02,	 3.8516918385379366e+00 
1.1443080000000001e+00,	 2.8426109999999999e-01,	 2.5027213010822832e-02,	 1.6828529705814167e+03,	 -2.6246989312392543e+02,	 4.8244205340135790e+02,	 3.4736622158929727e+03,	 4.4081012896584855e+02,	 3.8637912838529527e+00 
1.1456210000000000e+00,	 2.8424779999999999e-01,	 2.4751505343244704e-02,	 1.6846798081898382e+03,	 -2.5997933612371401e+02,	 4.8047541477912426e+02,	 3.4213911284485880e+03,	 4.3991074685197913e+02,	 3.8749263627258745e+00 
1.1469440000000000e+00,	 2.8423440000000000e-01,	 2.4508483724407733e-02,	 1.6863087788633295e+03,	 -2.5633755194208879e+02,	 4.7918607878211895e+02,	 3.3787073255157220e+03,	 4.3932010915759031e+02,	 3.8825461061985118e+00 
1.1482779999999999e+00,	 2.8422080000000000e-01,	 2.4433725364158033e-02,	 1.6874443739700309e+03,	 -2.4959864955427150e+02,	 4.7981343701996707e+02,	 3.3728112022090895e+03,	 4.3960759762198927e+02,	 3.8802882814447064e+00 
1.1496210000000000e+00,	 2.8420719999999999e-01,	 2.4683467474308229e-02,	 1.6875276501206811e+03,	 -2.3691810855961091e+02,	 4.8417283490705773e+02,	 3.4382426633046416e+03,	 4.4160013365416603e+02,	 3.8588697393108915e+00 
1.1509760000000000e+00,	 2.8419349999999999e-01,	 2.5428252638155693e-02,	 1.6856922318852371e+03,	 -2.1022163868097073e+02,	 4.9569002071838952e+02,	 3.6262407237050315e+03,	 4.4682151261833155e+02,	 3.8018535710226509e+00 
1.1523410000000001e+00,	 2.8417959999999998e-01,	 2.7048896127925180e-02,	 1.6804937521613865e+03,	 -1.6541491086711207e+02,	 5.1691084293007589e+02,	 4.0224914143474666e+03,	 4.5628564692446594e+02,	 3.7007853002222024e+00 
1.1537160000000000e+00,	 2.8416569999999997e-01,	 2.9565866158943688e-02,	 1.6725348739999081e+03,	 -1.1064822859310655e+02,	 5.4306954132485498e+02,	 4.6192980986546754e+03,	 4.6768851959406152e+02,	 3.5839898359054052e+00 
1.1551030000000000e+00,	 2.8415160000000000e-01,	 3.2529621328901054e-02,	 1.6636299401279048e+03,	 -4.9029393566699817e+01,	 5.6693384994669498e+02,	 5.3056834267399408e+03,	 4.7785395042424801e+02,	 3.4829727004558828e+00 
1.1565000000000001e+00,	 2.8413739999999998e-01,	 3.4922195042789185e-02,	 1.6580505019378866e+03,	 -2.0821822433912729e+01,	 5.8317559788228539e+02,	 5.8590987041402823e+03,	 4.8465049229113140e+02,	 3.4213959616961711e+00 
1.0567210000000000e+00,	 2.8585329999999998e-01,	 4.6603884883081190e-02,	 1.6018077284513934e+03,	 -1.3797924235836200e+02,	 6.1968583318753713e+02,	 8.3085191661100143e+03,	 4.9959118908215436e+02,	 3.2181101787334794e+00 
1.0574120000000000e+00,	 2.8584660000000001e-01,	 4.6322951510946044e-02,	 1.6024522785360921e+03,	 -1.4122709674230984e+02,	 6.1819605512491705e+02,	 8.2385805066097819e+03,	 4.9899029761369394e+02,	 3.2238373204991988e+00 
1.0581080000000000e+00,	 2.8583979999999998e-01,	 4.6001853166897720e-02,	 1.6032919986472673e+03,	 -1.4488984012467887e+02,	 6.1649888200915098e+02,	 8.1590117440096756e+03,	 4.9830487188675403e+02,	 3.2306036725170757e+00 
1.0588080000000000e+00,	 2.8583300000000000e-01,	 4.5688531397136030e-02,	 1.6041036270693671e+03,	 -1.4849021326306297e+02,	 6.1483981446139092e+02,	 8.0816328915541535e+03,	 4.9763392306945661e+02,	 3.2372426488285786e+00 
1.0595110000000001e+00,	 2.8582619999999997e-01,	 4.5383499658650441e-02,	 1.6048927631724505e+03,	 -1.5203426365782278e+02,	 6.1321447439476901e+02,	 8.0064559302658145e+03,	 4.9697573570280201e+02,	 3.2437758979092863e+00 
1.0602190000000000e+00,	 2.8581930000000000e-01,	 4.5084628443877187e-02,	 1.6056595733945608e+03,	 -1.5553245436097490e+02,	 6.1161951922467142e+02,	 7.9330422885164589e+03,	 4.9632900430474507e+02,	 3.2502126797801103e+00 
1.0609310000000001e+00,	 2.8581239999999997e-01,	 4.4792813926946298e-02,	 1.6064057288347783e+03,	 -1.5898477352236677e+02,	 6.1005331125635087e+02,	 7.8615118302380743e+03,	 4.9569310836875280e+02,	 3.2565590130992699e+00 
1.0616479999999999e+00,	 2.8580539999999999e-01,	 4.4506810297469696e-02,	 1.6071318564257115e+03,	 -1.6239861725558171e+02,	 6.0851295587040772e+02,	 7.7915926135176032e+03,	 4.9506691216399361e+02,	 3.2628238001697882e+00 
1.0623689999999999e+00,	 2.8579840000000001e-01,	 4.4226516751925390e-02,	 1.6078364904552263e+03,	 -1.6576963747231446e+02,	 6.0700030027253388e+02,	 7.7232764314970318e+03,	 4.9445120489345783e+02,	 3.2689968135103107e+00 
1.0630940000000000e+00,	 2.8579129999999997e-01,	 4.3952439328538873e-02,	 1.6085226472551908e+03,	 -1.6910323678852853e+02,	 6.0551098630646538e+02,	 7.6565821735297041e+03,	 4.9384424857358783e+02,	 3.2750955357769111e+00 
1.0638230000000000e+00,	 2.8578419999999999e-01,	 4.3684093047081887e-02,	 1.6091899610830901e+03,	 -1.7240038267563006e+02,	 6.0404580422949971e+02,	 7.5914219798469967e+03,	 4.9324639816019976e+02,	 3.2811160224784439e+00 
1.0645570000000000e+00,	 2.8577710000000001e-01,	 4.3420288002726869e-02,	 1.6098378637136123e+03,	 -1.7566782454896028e+02,	 6.0260245494704554e+02,	 7.5275480059395004e+03,	 4.9265674699412159e+02,	 3.2870636058706233e+00 
1.0652960000000000e+00,	 2.8576989999999997e-01,	 4.3161385421913515e-02,	 1.6104666237867273e+03,	 -1.7890374905659607e+02,	 6.0118116619467810e+02,	 7.4650149277284345e+03,	 4.9207541775312188e+02,	 3.2929366893819085e+00 
1.0660390000000000e+00,	 2.8576269999999998e-01,	 4.2908159740539895e-02,	 1.6110784244152103e+03,	 -1.8210453163448483e+02,	 5.9978210324525446e+02,	 7.4039474736007842e+03,	 4.9150250768366277e+02,	 3.2987372737005116e+00 
1.0667869999999999e+00,	 2.8575539999999999e-01,	 4.2659144748209539e-02,	 1.6116727809112042e+03,	 -1.8527024669953650e+02,	 5.9840409194613653e+02,	 7.3440671022856677e+03,	 4.9093756461661809e+02,	 3.3044664771932446e+00 
1.0675390000000000e+00,	 2.8574810000000000e-01,	 4.2415576159876268e-02,	 1.6122518490970567e+03,	 -1.8839172789268369e+02,	 5.9704756158550822e+02,	 7.2855817743896014e+03,	 4.9038079238358654e+02,	 3.3101241925302483e+00 
1.0682959999999999e+00,	 2.8574079999999996e-01,	 4.2176147912917586e-02,	 1.6128169296497983e+03,	 -1.9147574572992593e+02,	 5.9571156667730156e+02,	 7.2282452888731050e+03,	 4.8983183012777687e+02,	 3.3157160988088976e+00 
1.0690580000000001e+00,	 2.8573339999999997e-01,	 4.1941813824809743e-02,	 1.6133698167350644e+03,	 -1.9453009868153643e+02,	 5.9439622806296836e+02,	 7.1722131926464199e+03,	 4.8929075387321899e+02,	 3.3212463173242024e+00 
1.0698250000000000e+00,	 2.8572589999999998e-01,	 4.1711517403044421e-02,	 1.6139080303401877e+03,	 -1.9756236983200534e+02,	 5.9310271408038807e+02,	 7.1173092742784238e+03,	 4.8875807120662358e+02,	 3.3267074366285301e+00 
1.0705970000000000e+00,	 2.8571839999999998e-01,	 4.1486398704511492e-02,	 1.6144314993542723e+03,	 -2.0056659052392166e+02,	 5.9183036239127887e+02,	 7.0637108956928869e+03,	 4.8823353640158535e+02,	 3.3320987316949653e+00 
1.0713740000000000e+00,	 2.8571079999999999e-01,	 4.1265315542249326e-02,	 1.6149380376826612e+03,	 -2.0353489341198554e+02,	 5.9058029220085143e+02,	 7.0112274820862831e+03,	 4.8771763788254998e+02,	 3.3374095957157741e+00 
1.0721550000000000e+00,	 2.8570329999999999e-01,	 4.1048845156895504e-02,	 1.6154293447294940e+03,	 -2.0646545829922181e+02,	 5.8934942794237554e+02,	 6.9599119798227703e+03,	 4.8720913181586332e+02,	 3.3426506280759853e+00 
1.0729420000000001e+00,	 2.8569559999999999e-01,	 4.0836682533218857e-02,	 1.6159067600685598e+03,	 -2.0936569306512081e+02,	 5.8813585741058489e+02,	 6.9096818252764342e+03,	 4.8670725015748491e+02,	 3.3478309404953248e+00 
1.0737340000000000e+00,	 2.8568789999999999e-01,	 4.0627503231509245e-02,	 1.6163663363900152e+03,	 -2.1223358794187718e+02,	 5.8694399097397047e+02,	 6.8603572461925633e+03,	 4.8621384015949315e+02,	 3.3529284895255018e+00 
1.0745309999999999e+00,	 2.8568020000000000e-01,	 4.0424031428743852e-02,	 1.6168135452749041e+03,	 -2.1506736805017712e+02,	 5.8577169290532731e+02,	 6.8123655045839723e+03,	 4.8572804215585802e+02,	 3.3579590548823472e+00 
1.0753330000000001e+00,	 2.8567239999999999e-01,	 4.0223900266138965e-02,	 1.6172474451134128e+03,	 -2.1787456968124604e+02,	 5.8461886965865585e+02,	 6.7652982222750661e+03,	 4.8524984018547531e+02,	 3.3629221095390429e+00 
1.0761410000000000e+00,	 2.8566449999999999e-01,	 4.0027536517486535e-02,	 1.6176671966956485e+03,	 -2.2065281368354181e+02,	 5.8348519170674717e+02,	 6.7192165571650030e+03,	 4.8477911983614149e+02,	 3.3678153688493144e+00 
1.0769540000000000e+00,	 2.8565659999999998e-01,	 3.9835694952516605e-02,	 1.6180736552062322e+03,	 -2.2339780157441874e+02,	 5.8237252148365098e+02,	 6.6742613799713845e+03,	 4.8431667734843853e+02,	 3.3726331054933123e+00 
1.0777720000000000e+00,	 2.8564869999999998e-01,	 3.9647997379666802e-02,	 1.6184679753628368e+03,	 -2.2611621737413904e+02,	 5.8127814629769614e+02,	 6.6303306821221677e+03,	 4.8386140742285744e+02,	 3.3773865177734428e+00 
1.0785960000000001e+00,	 2.8564069999999997e-01,	 3.9463595635923984e-02,	 1.6188478626620849e+03,	 -2.2880854818449976e+02,	 5.8020344081082521e+02,	 6.5872916171853967e+03,	 4.8341390299512432e+02,	 3.3820662459232596e+00 