TITLE = "Final State"
VARIABLES = "X", "Y", "rho", "u", "v", "T", "p", "c", "M"
ZONE I=76, J=50, DATAPACKING=POINT, STRANDID=3000, SOLUTIONTIME=0.000107
5.0000000000000003e-02,	 1.0000000000000000e-04,	 2.8831844509047339e-01,	 1.6776007711452321e+03,	 2.9521023241478059e+00,	 8.4160948857515586e+02,	 6.9809252517709509e+04,	 5.8221621714482842e+02,	 2.8814095505656359e+00 
5.0999999999999997e-02,	 1.0000000000000000e-04,	 2.7975150683287653e-01,	 1.6781766974131729e+03,	 3.5457439076365960e+00,	 8.2518720388904387e+02,	 6.6413268856922354e+04,	 5.7650785496276671e+02,	 2.9109411585356857e+00 
5.2000060000000001e-02,	 1.0000000000000000e-04,	 2.7166337793835038e-01,	 1.6779434358392043e+03,	 3.8512054597142811e+00,	 8.0527558889162617e+02,	 6.2936931949002814e+04,	 5.6950986805730281e+02,	 2.9463016351037159e+00 
5.3000329999999998e-02,	 1.0000000000000000e-04,	 2.6959473313426191e-01,	 1.6658187042481873e+03,	 3.9389026476176552e+00,	 8.0038691692676480e+02,	 6.2078515361972648e+04,	 5.6777854443147169e+02,	 2.9339315080410873e+00 
5.4000890000000003e-02,	 1.0000000000000000e-04,	 3.1182993292144018e-01,	 1.5536320760106291e+03,	 3.2944898619061518e+00,	 8.6414841450329095e+02,	 7.7523982745833418e+04,	 5.8996079924013816e+02,	 2.6334555973964231e+00 
5.5001830000000002e-02,	 1.0000000000000000e-04,	 4.8382017983915004e-01,	 1.2696143038268328e+03,	 1.8404608613795501e+00,	 1.0511064450785589e+03,	 1.4630548733680183e+05,	 6.5065734407980926e+02,	 1.9512814991860057e+00 
5.6003249999999997e-02,	 1.0000000000000000e-04,	 6.5153978781030353e-01,	 1.0884904862616163e+03,	 2.2212830411432609e+00,	 1.1508008833715162e+03,	 2.1571039104768418e+05,	 6.8081494376801118e+02,	 1.5988085495327047e+00 
5.7005239999999999e-02,	 1.0000000000000000e-04,	 7.2355510315599636e-01,	 1.0492435543854399e+03,	 3.4405820279849237e+00,	 1.1489755666323790e+03,	 2.3917310503147132e+05,	 6.8027479990232166e+02,	 1.5423902157473370e+00 
5.8007910000000003e-02,	 1.0000000000000000e-04,	 7.7910380036445126e-01,	 1.0337690638157969e+03,	 4.9797256131481262e+00,	 1.1326465134840978e+03,	 2.5387483416990881e+05,	 6.7542352464966029e+02,	 1.5305671476221825e+00 
5.9011340000000002e-02,	 1.0000000000000000e-04,	 8.4641378764722641e-01,	 1.0116413285249555e+03,	 6.4154758913601260e+00,	 1.1152856333751924e+03,	 2.7158061940461479e+05,	 6.7022718696878383e+02,	 1.5094309666089247e+00 
6.0015630000000000e-02,	 1.0000000000000000e-04,	 9.2401836484257893e-01,	 9.8073853676989256e+02,	 7.3207897379119533e+00,	 1.1048595022561708e+03,	 2.9370923053945054e+05,	 6.6708705655534027e+02,	 1.4702216899860221e+00 
6.1020880000000000e-02,	 1.0000000000000000e-04,	 9.9734971179573595e-01,	 9.4135921834074350e+02,	 6.8457887691235602e+00,	 1.1031145302338168e+03,	 3.1651770575924870e+05,	 6.6656006275015625e+02,	 1.4123020005608917e+00 
6.2027190000000003e-02,	 1.0000000000000000e-04,	 1.0353203838934650e+00,	 8.8773648636581049e+02,	 4.3658480785377467e+00,	 1.1005120580147548e+03,	 3.2779287359801686e+05,	 6.6577332287096704e+02,	 1.3334076198711144e+00 
6.3034649999999998e-02,	 1.0000000000000000e-04,	 1.0331245795630064e+00,	 8.1104225815005543e+02,	 4.9236500337062983e-01,	 1.0800472604203846e+03,	 3.2101504821248900e+05,	 6.5955401191464318e+02,	 1.2296830781869437e+00 
6.4043359999999994e-02,	 1.0000000000000000e-04,	 1.0225235886102928e+00,	 7.3123186363234265e+02,	 -2.8367736996866615e+00,	 1.0481591319003421e+03,	 3.0834044539879181e+05,	 6.4974447879961895e+02,	 1.1254229778391642e+00 
6.5053410000000006e-02,	 1.0000000000000000e-04,	 1.0302374280726501e+00,	 6.9632782772701285e+02,	 -3.9796317126362180e+00,	 1.0329410139550241e+03,	 3.0615600549655122e+05,	 6.4501044507391339e+02,	 1.0795781759622154e+00 
6.6064899999999996e-02,	 1.0000000000000000e-04,	 1.0939198431304762e+00,	 6.9349410694697349e+02,	 -4.8445867121229700e+00,	 1.0350125589014724e+03,	 3.2573247360978927e+05,	 6.4565689964652518e+02,	 1.0741169631918048e+00 
6.7077929999999994e-02,	 1.0000000000000000e-04,	 1.1590547890462060e+00,	 7.1323803970442850e+02,	 -5.0165758889714507e+00,	 1.0371675873296285e+03,	 3.4584606551047228e+05,	 6.4632872021614980e+02,	 1.1035494157643464e+00 
6.8092600000000003e-02,	 1.0000000000000000e-04,	 1.2225612054910593e+00,	 7.4328012683634540e+02,	 -4.7698583920625648e+00,	 1.0391635679484825e+03,	 3.6549754182804452e+05,	 6.4695033602170622e+02,	 1.1489219343753423e+00 
6.9109000000000004e-02,	 1.0000000000000000e-04,	 1.2786648669303773e+00,	 7.8231308078346251e+02,	 -4.5289687252266697e+00,	 1.0377574225659691e+03,	 3.8175305246983049e+05,	 6.4651247705191736e+02,	 1.2100712948328631e+00 
7.0127220000000004e-02,	 1.0000000000000000e-04,	 1.3302583747928689e+00,	 8.2571077920637595e+02,	 -4.4625033805038328e+00,	 1.0352836592514882e+03,	 3.9620987765658961e+05,	 6.4574145241334293e+02,	 1.2787205075585011e+00 
7.1147379999999996e-02,	 1.0000000000000000e-04,	 1.3742751136701310e+00,	 8.7200165839172951e+02,	 -4.2571297939147561e+00,	 1.0319222493032776e+03,	 4.0799101217546809e+05,	 6.4469228753327138e+02,	 1.3526019573823973e+00 
7.2169559999999994e-02,	 1.0000000000000000e-04,	 1.4079111561409314e+00,	 9.2047729454412524e+02,	 -3.9730012386486098e+00,	 1.0269702252438894e+03,	 4.1597098644262261e+05,	 6.4314354146910728e+02,	 1.4312292814379937e+00 
7.3193859999999999e-02,	 1.0000000000000000e-04,	 1.4325607691653048e+00,	 9.6929738352708171e+02,	 -3.6711993238675205e+00,	 1.0211030122549876e+03,	 4.2083567498292524e+05,	 6.4130372904613387e+02,	 1.5114590667515815e+00 
7.4220380000000002e-02,	 1.0000000000000000e-04,	 1.4500089388870081e+00,	 1.0166782660938375e+03,	 -3.2734916894420265e+00,	 1.0148524512314219e+03,	 4.2335385821393243e+05,	 6.3933788363471831e+02,	 1.5902131909969062e+00 
7.5249220000000006e-02,	 1.0000000000000000e-04,	 1.4618066238998022e+00,	 1.0612452808742123e+03,	 -2.7434721411232199e+00,	 1.0084551621911590e+03,	 4.2410799188467744e+05,	 6.3731961232375841e+02,	 1.6651752221062917e+00 
7.6280479999999998e-02,	 1.0000000000000000e-04,	 1.4644283046872681e+00,	 1.1024001199278227e+03,	 -2.1507279830439145e+00,	 1.0019331814393772e+03,	 4.2212085723331617e+05,	 6.3525540129510659e+02,	 1.7353685079421224e+00 
7.7314250000000001e-02,	 1.0000000000000000e-04,	 1.4624620809750162e+00,	 1.1393480038364328e+03,	 -1.3075215128591497e+00,	 9.9503328522641846e+02,	 4.1865102671475901e+05,	 6.3306425280981284e+02,	 1.7997363601536547e+00 
7.8350639999999999e-02,	 1.0000000000000000e-04,	 1.4571280255234300e+00,	 1.1718185965746879e+03,	 -9.5995984381101462e-02,	 9.8784638030564861e+02,	 4.1411128104903677e+05,	 6.3077386817386946e+02,	 1.8577475377970203e+00 
7.9389749999999995e-02,	 1.0000000000000000e-04,	 1.4511289754207324e+00,	 1.1986636027283184e+03,	 1.1342383025021281e+00,	 9.8019834344160097e+02,	 4.0921346508830367e+05,	 6.2832735646048445e+02,	 1.9077064320713470e+00 
8.0431660000000002e-02,	 1.0000000000000000e-04,	 1.4600606579979853e+00,	 1.2139343425163129e+03,	 2.2877954191441443e+00,	 9.7327327421181258e+02,	 4.0882329507175524e+05,	 6.2610386616889537e+02,	 1.9388739854713837e+00 
8.1476489999999999e-02,	 1.0000000000000000e-04,	 1.5054333415245695e+00,	 1.2094398773177463e+03,	 3.5264001368066582e+00,	 9.7246777954152242e+02,	 4.2117898019419285e+05,	 6.2584472635169982e+02,	 1.9325001352531974e+00 
8.2524340000000002e-02,	 1.0000000000000000e-04,	 1.6011291083028185e+00,	 1.1781390016041532e+03,	 5.1579211157425773e+00,	 9.7710304743218398e+02,	 4.5008719587392115e+05,	 6.2733449772790539e+02,	 1.8780256730164822e+00 
8.3575289999999997e-02,	 1.0000000000000000e-04,	 1.7634638802120213e+00,	 1.1190930824852385e+03,	 7.4663210390184584e+00,	 9.7246549745113452e+02,	 4.9336769368409395e+05,	 6.2584399201627900e+02,	 1.7881740549359082e+00 
8.4629469999999998e-02,	 1.0000000000000000e-04,	 2.0034455249926912e+00,	 1.0380631538666366e+03,	 1.0126752543478666e+01,	 9.3022726602715591e+02,	 5.3616262983459630e+05,	 6.1210160615459506e+02,	 1.6959807614727975e+00 
8.5686949999999998e-02,	 1.0000000000000000e-04,	 2.3057780393026386e+00,	 9.4487498777239352e+02,	 1.0261136836060928e+01,	 8.4597140254675890e+02,	 5.6118120633377449e+05,	 5.8372302941394730e+02,	 1.6187997652507564e+00 
8.6747859999999996e-02,	 1.0000000000000000e-04,	 2.5600808218911606e+00,	 8.4522070903575434e+02,	 7.7611110536132815e+00,	 7.4888370573860868e+02,	 5.5156664482037502e+05,	 5.4920714321442711e+02,	 1.5390483378466175e+00 
8.7812280000000006e-02,	 1.0000000000000000e-04,	 2.4405626057645220e+00,	 7.0637060877645172e+02,	 7.5072577548118300e+00,	 6.3741769167317580e+02,	 4.4755251653180621e+05,	 5.0668849499731220e+02,	 1.3941711878827467e+00 
8.8880319999999999e-02,	 1.0000000000000000e-04,	 1.4697735444646076e+00,	 3.4436619137259504e+02,	 1.3129647486035769e+00,	 4.0273094043279224e+02,	 1.7029243663253298e+05,	 4.0275086764727007e+02,	 8.5504147103417061e-01 
8.9952089999999998e-02,	 1.0000000000000000e-04,	 9.6615715374264899e-01,	 1.2731149560747745e+02,	 -1.4450759483691220e+00,	 2.7022283334462713e+02,	 7.5110344634667112e+04,	 3.2990584360154884e+02,	 3.8592737634735774e-01 
9.1027680000000000e-02,	 1.0000000000000000e-04,	 9.8206626573591094e-01,	 1.4416493259271539e+02,	 -6.0162950649158931e-01,	 2.7967281736823588e+02,	 7.9017082064783273e+04,	 3.3562485490259365e+02,	 4.2954562465307738e-01 
9.2107190000000005e-02,	 1.0000000000000000e-04,	 9.8156639531276946e-01,	 1.4563543413012769e+02,	 -4.2177593544084546e-01,	 2.7948244630823774e+02,	 7.8923103553637906e+04,	 3.3551060687412735e+02,	 4.3407284866496115e-01 
9.3190739999999994e-02,	 1.0000000000000000e-04,	 9.8453653940537500e-01,	 1.4793869671265219e+02,	 -3.3216895411654934e-01,	 2.7980285106874413e+02,	 7.9252671715649223e+04,	 3.3570287011794790e+02,	 4.4068455408840790e-01 
9.4278429999999996e-02,	 1.0000000000000000e-04,	 9.9124572213407813e-01,	 1.5088501788757748e+02,	 -2.5043885846955583e-01,	 2.8054766283323784e+02,	 8.0005145358259004e+04,	 3.3614937964031657e+02,	 4.4886361500358440e-01 
9.5370350000000007e-02,	 1.0000000000000000e-04,	 1.0009018106172574e+00,	 1.5430943195289558e+02,	 -1.6894695577649768e-01,	 2.8162485241551684e+02,	 8.1094684682888721e+04,	 3.3679410021243410e+02,	 4.5817169701613347e-01 
9.6466609999999994e-02,	 1.0000000000000000e-04,	 1.0129389921502037e+00,	 1.5809346391802507e+02,	 -7.9259910723857130e-02,	 2.8296153262841449e+02,	 8.2459486465182606e+04,	 3.3759241948101533e+02,	 4.6829690082934572e-01 
9.7567329999999994e-02,	 1.0000000000000000e-04,	 1.0267311053766752e+00,	 1.6212183065559421e+02,	 -5.8617488585123792e-04,	 2.8447894467608245e+02,	 8.4030468535453081e+04,	 3.3849639724687472e+02,	 4.7894699020508041e-01 
9.8672599999999999e-02,	 1.0000000000000000e-04,	 1.0416445931218354e+00,	 1.6628313214729917e+02,	 5.7554071531263830e-02,	 2.8610696527765077e+02,	 8.5738904904828843e+04,	 3.3946359171855852e+02,	 4.8984087296611956e-01 
9.9782529999999994e-02,	 1.0000000000000000e-04,	 1.0571880486666210e+00,	 1.7047586842657114e+02,	 9.8513391793157906e-02,	 2.8778956950851199e+02,	 8.7530061151233705e+04,	 3.4046032653985543e+02,	 5.0072176873954832e-01 
1.0089720000000001e-01,	 1.0000000000000000e-04,	 1.0729113380310769e+00,	 1.7460896236934269e+02,	 1.2276041079091651e-01,	 2.8947425758529300e+02,	 8.9351885412297634e+04,	 3.4145538084069676e+02,	 5.1136697595258729e-01 
1.0201680000000000e-01,	 1.0000000000000000e-04,	 1.0883449236425560e+00,	 1.7859552762237888e+02,	 1.2672546680354285e-01,	 2.9111213219521812e+02,	 9.1150026358715288e+04,	 3.4242001279890701e+02,	 5.2156873403118664e-01 
1.0314130000000001e-01,	 1.0000000000000000e-04,	 1.1030530516779327e+00,	 1.8234972396351029e+02,	 1.1552424074841677e-01,	 2.9266344833186702e+02,	 9.2874143860831449e+04,	 3.4333116666008226e+02,	 5.3111915918239161e-01 
1.0427100000000000e-01,	 1.0000000000000000e-04,	 1.1166946194968856e+00,	 1.8579464931203375e+02,	 1.0126628579186031e-01,	 2.9409387128101719e+02,	 9.4482273551716047e+04,	 3.4416917728030393e+02,	 5.3983531697265219e-01 
1.0540579999999999e-01,	 1.0000000000000000e-04,	 1.1289735409273232e+00,	 1.8886687003282242e+02,	 8.6512999713158331e-02,	 2.9537313027421362e+02,	 9.5936680361016741e+04,	 3.4491690412704679e+02,	 5.4757214734095272e-01 
1.0654590000000000e-01,	 1.0000000000000000e-04,	 1.1396818805705156e+00,	 1.9152845330501688e+02,	 7.1189222006552338e-02,	 2.9648259312757091e+02,	 9.7210411503788520e+04,	 3.4556407508448655e+02,	 5.5424877857558807e-01 
1.0769150000000000e-01,	 1.0000000000000000e-04,	 1.1487097960294825e+00,	 1.9376211552862264e+02,	 5.5775639168282640e-02,	 2.9741363120385506e+02,	 9.8288143396885236e+04,	 3.4610623359879861e+02,	 5.5983424956428951e-01 
1.0884260000000000e-01,	 1.0000000000000000e-04,	 1.1560310847728021e+00,	 1.9556902319539986e+02,	 4.1505633178350217e-02,	 2.9816581631422196e+02,	 9.9164745391097662e+04,	 3.4654362370627086e+02,	 5.6434172849053987e-01 
1.0999929999999999e-01,	 1.0000000000000000e-04,	 1.1617197040327611e+00,	 1.9697178514022889e+02,	 2.9264647855638547e-02,	 2.9874851442670746e+02,	 9.9847465965431780e+04,	 3.4688207926322491e+02,	 5.6783500529217523e-01 
1.1116170000000000e-01,	 1.0000000000000000e-04,	 1.1659446989931859e+00,	 1.9801344891140053e+02,	 1.9554284920370233e-02,	 2.9918028779386054e+02,	 1.0035542749990884e+05,	 3.4713265852796440e+02,	 5.7042587325722416e-01 
1.1233000000000000e-01,	 1.0000000000000000e-04,	 1.1689382478830213e+00,	 1.9875117716241311e+02,	 1.2426254411822083e-02,	 2.9948568058411178e+02,	 1.0071579117189135e+05,	 3.4730978378656135e+02,	 5.7225908059362462e-01 
1.1350430000000000e-01,	 1.0000000000000000e-04,	 1.1709575020003966e+00,	 1.9924883479225181e+02,	 7.6197479155533567e-03,	 2.9969151361410837e+02,	 1.0095911059789154e+05,	 3.4742911427681400e+02,	 5.7349492817461178e-01 
1.1468460000000000e-01,	 1.0000000000000000e-04,	 1.1722520284467697e+00,	 1.9956814379749738e+02,	 4.5315354161570287e-03,	 2.9982337187664797e+02,	 1.0111519282746219e+05,	 3.4750553679691734e+02,	 5.7428766657485919e-01 
1.1587119999999999e-01,	 1.0000000000000000e-04,	 1.1730397871641698e+00,	 1.9976250778211156e+02,	 2.5174456459482841e-03,	 2.9990346067402061e+02,	 1.0121017073263456e+05,	 3.4755194652478917e+02,	 5.7477021721622312e-01 
1.1706400000000000e-01,	 1.0000000000000000e-04,	 1.1734952772559457e+00,	 1.9987468825700807e+02,	 1.3259840935884548e-03,	 2.9994968974116983e+02,	 1.0126507778437773e+05,	 3.4757873244969539e+02,	 5.7504867128294168e-01 
1.1826330000000000e-01,	 1.0000000000000000e-04,	 1.1737464932558281e+00,	 1.9993641686517208e+02,	 6.4221961982920421e-04,	 2.9997512000081736e+02,	 1.0129534337421443e+05,	 3.4759346630403422e+02,	 5.7520188452369381e-01 
1.1946909999999999e-01,	 1.0000000000000000e-04,	 1.1738783626299369e+00,	 1.9996931598938065e+02,	 2.6860232225190371e-04,	 2.9998841093594524e+02,	 1.0131121239180923e+05,	 3.4760116659437836e+02,	 5.7528378845433681e-01 
1.2068160000000000e-01,	 1.0000000000000000e-04,	 1.1739423893142220e+00,	 1.9998703950489306e+02,	 7.3241463736285590e-05,	 2.9999479081461629e+02,	 1.0131889290673807e+05,	 3.4760486280629408e+02,	 5.7532865878332384e-01 
1.2190080000000000e-01,	 1.0000000000000000e-04,	 1.1739680474711640e+00,	 1.9999781452465871e+02,	 -5.6404248435523500e-06,	 2.9999714580627085e+02,	 1.0132190275489040e+05,	 3.4760622717155894e+02,	 5.7535739837580957e-01 
1.2312690000000000e-01,	 1.0000000000000000e-04,	 1.1739656495247039e+00,	 2.0000647904122434e+02,	 -1.5718034656420191e-05,	 2.9999692479165435e+02,	 1.0132162114886734e+05,	 3.4760609912688886e+02,	 5.7538253656537630e-01 
1.2436000000000000e-01,	 1.0000000000000000e-04,	 1.1739479587910004e+00,	 2.0001557427101130e+02,	 4.6895568076421540e-07,	 2.9999481546740861e+02,	 1.0131938191511016e+05,	 3.4760487708892595e+02,	 5.7541072480361766e-01 
1.2560020000000000e-01,	 1.0000000000000000e-04,	 1.1739146905754994e+00,	 2.0002629078409018e+02,	 5.1723975258711353e-05,	 2.9999123824571143e+02,	 1.0131530252438801e+05,	 3.4760280461408450e+02,	 5.7544498527901700e-01 
1.2684770000000001e-01,	 1.0000000000000000e-04,	 1.1738697660266357e+00,	 2.0003878819133416e+02,	 1.3153233746911172e-04,	 2.9998651391336057e+02,	 1.0130982981234514e+05,	 3.4760006753807835e+02,	 5.7548546986247018e-01 
1.2810250000000001e-01,	 1.0000000000000000e-04,	 1.1738160945459488e+00,	 2.0005252307362707e+02,	 2.1273582375802539e-04,	 2.9998098649242877e+02,	 1.0130333113546306e+05,	 3.4759686515955366e+02,	 5.7553028558503316e-01 
1.2936480000000000e-01,	 1.0000000000000000e-04,	 1.1737569629287004e+00,	 2.0006639586924723e+02,	 2.7638401528844538e-04,	 2.9997508043518667e+02,	 1.0129623355548286e+05,	 3.4759344338087448e+02,	 5.7557586220122103e-01 
1.3063469999999999e-01,	 1.0000000000000000e-04,	 1.1736970043647597e+00,	 2.0007870954716014e+02,	 3.5983626893947691e-04,	 2.9996918588661634e+02,	 1.0128906869771799e+05,	 3.4759002823636121e+02,	 5.7561694322090917e-01 
1.3191240000000001e-01,	 1.0000000000000000e-04,	 1.1736685744073343e+00,	 2.0008544183973680e+02,	 -8.0497722310838311e-03,	 2.9996558350427608e+02,	 1.0128539884754668e+05,	 3.4758794109541867e+02,	 5.7563976866141608e-01 
5.0000000000000003e-02,	 5.4897959999999999e-04,	 2.8843175980800562e-01,	 1.6783532083452183e+03,	 1.0451131398159388e+01,	 8.3360548388389543e+02,	 6.9172517225026604e+04,	 5.7944106185786143e+02,	 2.8965599060702489e+00 
5.1000009999999998e-02,	 5.4920010000000005e-04,	 2.7982064816809649e-01,	 1.6772871418940822e+03,	 1.1120181586612144e+01,	 8.1703420757699178e+02,	 6.5773345992913397e+04,	 5.7365278524611165e+02,	 2.9239359543974901e+00 
5.2000079999999997e-02,	 5.4949800000000004e-04,	 2.7172527147419467e-01,	 1.6766787617895325e+03,	 1.1471392139269428e+01,	 7.9733290152841641e+02,	 6.2330362719006604e+04,	 5.6669428028187883e+02,	 2.9587699431342811e+00 
5.3000350000000002e-02,	 5.4984030000000000e-04,	 2.6999471175469208e-01,	 1.6640157729511229e+03,	 1.1326242378461616e+01,	 7.9287645468893038e+02,	 6.1587236422474838e+04,	 5.6510837957333786e+02,	 2.9446640309961150e+00 
5.4000909999999999e-02,	 5.5019330000000003e-04,	 3.1319507926209950e-01,	 1.5507522393656513e+03,	 9.3272590060769360e+00,	 8.5704576396239167e+02,	 7.7223393130633398e+04,	 5.8753127953248247e+02,	 2.6394854934813203e+00 
5.5001860000000000e-02,	 5.5055960000000004e-04,	 4.8698841341059573e-01,	 1.2661007597630007e+03,	 6.1970667807648780e+00,	 1.0417544768972093e+03,	 1.4595330759658216e+05,	 6.4775634287735568e+02,	 1.9546175652314697e+00 
5.6003280000000003e-02,	 5.5092759999999998e-04,	 6.5586199516476418e-01,	 1.0843117102753868e+03,	 7.2538590271407655e+00,	 1.1370607369484815e+03,	 2.1454878862075362e+05,	 6.7673839698067218e+02,	 1.6022971038395650e+00 
5.7005279999999998e-02,	 5.5129410000000006e-04,	 7.2804097029216552e-01,	 1.0437844172132307e+03,	 1.0553263863124894e+01,	 1.1341653254864475e+03,	 2.3755387707472133e+05,	 6.7587622444431338e+02,	 1.5444214900551136e+00 
5.8007950000000003e-02,	 5.5165880000000007e-04,	 7.8295130286521308e-01,	 1.0288105235003327e+03,	 1.4623333070223881e+01,	 1.1156565362924325e+03,	 2.5130157054208248e+05,	 6.7033862414099951e+02,	 1.5349174401536909e+00 
5.9011380000000002e-02,	 5.5202090000000005e-04,	 8.4912352563889160e-01,	 1.0089200709666680e+03,	 1.8134346022989483e+01,	 1.0977859307167532e+03,	 2.6817511252916005e+05,	 6.6494820323484635e+02,	 1.5175362929240583e+00 
6.0015680000000002e-02,	 5.5238170000000003e-04,	 9.2729101466622921e-01,	 9.8176057549821508e+02,	 1.9782254024988728e+01,	 1.0857842431880472e+03,	 2.8966066535967600e+05,	 6.6130339765329927e+02,	 1.4848855498608917e+00 
6.1020940000000003e-02,	 5.5274060000000001e-04,	 1.0057167669763347e+00,	 9.4616374875547194e+02,	 1.7716153182203374e+01,	 1.0802953247476066e+03,	 3.1257059873268520e+05,	 6.5962975046551526e+02,	 1.4346375279366486e+00 
6.2027249999999999e-02,	 5.5309860000000001e-04,	 1.0552065636441925e+00,	 8.9551032455624068e+02,	 1.0592992505348079e+01,	 1.0727594628292586e+03,	 3.2566401705044589e+05,	 6.5732502051644599e+02,	 1.3624507612998791e+00 
6.3034709999999994e-02,	 5.5345459999999998e-04,	 1.0616325540201064e+00,	 8.2114115714128684e+02,	 5.8352976585896676e-01,	 1.0481718092674223e+03,	 3.2013756689304311e+05,	 6.4974840808101760e+02,	 1.2637835726356124e+00 
6.4043429999999998e-02,	 5.5381009999999999e-04,	 1.0621983999072113e+00,	 7.4390912052431213e+02,	 -7.5880674081778823e+00,	 1.0141377261630256e+03,	 3.0990780868415313e+05,	 6.3911271233320826e+02,	 1.1640322673866583e+00 
6.5053479999999997e-02,	 5.5416480000000006e-04,	 1.0737641166298739e+00,	 7.0909406333395032e+02,	 -1.1414963454638482e+01,	 9.9923705043793279e+02,	 3.0867919053542364e+05,	 6.3440011195257944e+02,	 1.1178843174799074e+00 
6.6064979999999995e-02,	 5.5451920000000002e-04,	 1.1420836894208015e+00,	 7.0622452252130893e+02,	 -1.3735190939960802e+01,	 1.0007738537345807e+03,	 3.2882423403521336e+05,	 6.3488777081646299e+02,	 1.1125715576438600e+00 
6.7078020000000002e-02,	 5.5487229999999998e-04,	 1.2110479605319189e+00,	 7.2485213673842907e+02,	 -1.4351589433127460e+01,	 1.0026462945018679e+03,	 3.4933253322473023e+05,	 6.3548142851724288e+02,	 1.1408582001584833e+00 
6.8092689999999997e-02,	 5.5522540000000004e-04,	 1.2770649721575607e+00,	 7.5360796899896241e+02,	 -1.3735847268621118e+01,	 1.0039054938664472e+03,	 3.6883808749152895e+05,	 6.3588034622916143e+02,	 1.1853380014218431e+00 
6.9109089999999998e-02,	 5.5557840000000007e-04,	 1.3354753994353619e+00,	 7.9089561869565250e+02,	 -1.3091051868054665e+01,	 1.0023287184638134e+03,	 3.8510220355714433e+05,	 6.3538078003408816e+02,	 1.2449289920292199e+00 
7.0127320000000007e-02,	 5.5593190000000005e-04,	 1.3893578110635916e+00,	 8.3260176567305791e+02,	 -1.2745278091215114e+01,	 9.9967337391825072e+02,	 3.9957855263689009e+05,	 6.3453860434244666e+02,	 1.3122910177044054e+00 
7.1147479999999999e-02,	 5.5628550000000007e-04,	 1.4351436728244820e+00,	 8.7740105303578616e+02,	 -1.2109436930064202e+01,	 9.9587459599483782e+02,	 4.1117809689195169e+05,	 6.3333182739650636e+02,	 1.3855053152252081e+00 
7.2169659999999997e-02,	 5.5663960000000004e-04,	 1.4704866942556978e+00,	 9.2435680229378193e+02,	 -1.1301832624680872e+01,	 9.9058706616012228e+02,	 4.1906721879402158e+05,	 6.3164827316616731e+02,	 1.4635136848112063e+00 
7.3193969999999997e-02,	 5.5699440000000003e-04,	 1.4964579218021086e+00,	 9.7175440025393232e+02,	 -1.0390960125367076e+01,	 9.8440508390905097e+02,	 4.2380716527749132e+05,	 6.2967421662524850e+02,	 1.5433535759030856e+00 
7.4220499999999995e-02,	 5.5734980000000001e-04,	 1.5145426468520273e+00,	 1.0178659977981653e+03,	 -9.2032907073910870e+00,	 9.7783620431390432e+02,	 4.2606666542261501e+05,	 6.2756980983812082e+02,	 1.6219830653437295e+00 
7.5249339999999998e-02,	 5.5770579999999998e-04,	 1.5261137999105387e+00,	 1.0612520598408389e+03,	 -7.5877049377120382e+00,	 9.7116404300633735e+02,	 4.2639239621709962e+05,	 6.2542506705470464e+02,	 1.6968926264071293e+00 
7.6280600000000004e-02,	 5.5806249999999996e-04,	 1.5286681150902024e+00,	 1.1013057522271010e+03,	 -5.5104241107242675e+00,	 9.6438813454143815e+02,	 4.2412610386820190e+05,	 6.2323942145485535e+02,	 1.7670890191372999e+00 
7.7314380000000002e-02,	 5.5842010000000004e-04,	 1.5233558779235248e+00,	 1.1375494580523118e+03,	 -2.7664027986023569e+00,	 9.5724413679723421e+02,	 4.1952130894948565e+05,	 6.2092671290452245e+02,	 1.8320242924146910e+00 
7.8350770000000000e-02,	 5.5877850000000007e-04,	 1.5154130887670814e+00,	 1.1691068442666642e+03,	 4.4262986998206783e-01,	 9.4977404570460476e+02,	 4.1407715329466818e+05,	 6.1849919018862238e+02,	 1.8902319463039148e+00 
7.9389879999999996e-02,	 5.5913790000000001e-04,	 1.5065393793214823e+00,	 1.1949532263835551e+03,	 3.7214909107391709e+00,	 9.4194977709611624e+02,	 4.0826126162045851e+05,	 6.1594631370730212e+02,	 1.9400376214148194e+00 
8.0431799999999998e-02,	 5.5949820000000003e-04,	 1.5118970190122625e+00,	 1.2093295578822326e+03,	 7.0326553563272913e+00,	 9.3596892139132433e+02,	 4.0711169323877885e+05,	 6.1398774202547770e+02,	 1.9696647401134102e+00 
8.1476640000000003e-02,	 5.5985950000000007e-04,	 1.5515766913161952e+00,	 1.2044716117794569e+03,	 1.0696891148744847e+01,	 9.3667326114472439e+02,	 4.1811072419753030e+05,	 6.1421871905744524e+02,	 1.9610589402780771e+00 
8.2524490000000006e-02,	 5.6022180000000002e-04,	 1.6394218183019400e+00,	 1.1737332199798686e+03,	 1.5414972066102521e+01,	 9.4380455749403313e+02,	 4.4514624907051917e+05,	 6.1655244119750762e+02,	 1.9038679628625688e+00 
8.3575449999999996e-02,	 5.6058520000000001e-04,	 1.7867352197335331e+00,	 1.1161008440022454e+03,	 2.1874879502971332e+01,	 9.4459621354578121e+02,	 4.8555265818541450e+05,	 6.1681096673503328e+02,	 1.8098173518493976e+00 
8.4629620000000003e-02,	 5.6094970000000006e-04,	 2.0042925307888710e+00,	 1.0368913742734107e+03,	 2.8741042100335704e+01,	 9.0986280684232861e+02,	 5.2464671496605605e+05,	 6.0536449088475047e+02,	 1.7134959883890122e+00 
8.5687109999999997e-02,	 5.6131530000000005e-04,	 2.2968221314681121e+00,	 9.4383549105670454e+02,	 3.2075875902723268e+01,	 8.3205272985241095e+02,	 5.4980432453615218e+05,	 5.7890114889327106e+02,	 1.6313327043086294e+00 
8.6748019999999995e-02,	 5.6168220000000005e-04,	 2.5547903734911874e+00,	 8.4337713533623423e+02,	 3.0577062323457717e+01,	 7.4078863988673493e+02,	 5.4447697922087309e+05,	 5.4623074798307823e+02,	 1.5450086795941567e+00 
8.7812450000000000e-02,	 5.6205019999999999e-04,	 2.4246866730145484e+00,	 7.0158606637474168e+02,	 2.5371108521987480e+01,	 6.3087205659931624e+02,	 4.4007515883282165e+05,	 5.0408019234504138e+02,	 1.3927241509509436e+00 
8.8880490000000006e-02,	 5.6241950000000005e-04,	 1.4485928744345797e+00,	 3.3749905153803428e+02,	 5.7350724149640957e+00,	 3.9698284493294580e+02,	 1.6544285721719728e+05,	 3.9986634816091595e+02,	 8.4415149511860033e-01 
8.9952260000000006e-02,	 5.6278999999999997e-04,	 9.6699748095511306e-01,	 1.2677712545408291e+02,	 -3.2263747978204935e+00,	 2.7020500591930977e+02,	 7.5170713223337021e+04,	 3.2989496097419647e+02,	 3.8441985516393157e-01 
9.1027849999999993e-02,	 5.6316190000000005e-04,	 9.8352031600893031e-01,	 1.4435226618784827e+02,	 -2.3712615481078538e+00,	 2.7985719963675172e+02,	 7.9186246386925748e+04,	 3.3573547179500912e+02,	 4.3001634695062979e-01 
9.2107369999999994e-02,	 5.6353520000000006e-04,	 9.8233874491012307e-01,	 1.4580729432530723e+02,	 -1.7626347221007985e+00,	 2.7956937111444529e+02,	 7.9009770553640978e+04,	 3.3556277817782524e+02,	 4.3454744532221468e-01 
9.3190930000000005e-02,	 5.6390979999999997e-04,	 9.8531171534232243e-01,	 1.4808760043292523e+02,	 -1.2827321685246711e+00,	 2.7989074160919722e+02,	 7.9339985524268996e+04,	 3.3575559079239997e+02,	 4.4107428108899543e-01 
9.4278609999999999e-02,	 5.6428590000000007e-04,	 9.9200897942985899e-01,	 1.5101518413840222e+02,	 -8.6899165513646659e-01,	 2.8063413668858084e+02,	 8.0091428325385787e+04,	 3.3620118169944942e+02,	 4.4918844005248360e-01 
9.5370540000000004e-02,	 5.6466340000000000e-04,	 1.0016446619633350e+00,	 1.5442704420448680e+02,	 -5.2170813052605292e-01,	 2.8170253061435227e+02,	 8.1177255962485739e+04,	 3.3684054454276736e+02,	 4.5846002792545498e-01 
9.6466810000000000e-02,	 5.6504250000000004e-04,	 1.0135308772000049e+00,	 1.5820044814842410e+02,	 -2.3482594438117943e-01,	 2.8301561976920698e+02,	 8.2523440623958610e+04,	 3.3762468276443877e+02,	 4.6856948116401009e-01 
9.7567530000000000e-02,	 5.6542300000000001e-04,	 1.0270867398701178e+00,	 1.6221593470285598e+02,	 -1.1764852020238817e-02,	 2.8450592523395846e+02,	 8.4067547010363807e+04,	 3.3851244870740300e+02,	 4.7920227379790453e-01 
9.8672800000000005e-02,	 5.6580520000000002e-04,	 1.0418108356067219e+00,	 1.6636465764437685e+02,	 1.5382566745411755e-01,	 2.8611256341054445e+02,	 8.5754266389755736e+04,	 3.3946691277192991e+02,	 4.9007641835187371e-01 
9.9782730000000000e-02,	 5.6618900000000004e-04,	 1.0572052527299478e+00,	 1.7054692868723458e+02,	 2.7134564345256201e-01,	 2.8777871706142776e+02,	 8.7528184781890755e+04,	 3.4045390715760038e+02,	 5.0094048257747947e-01 
1.0089740000000000e-01,	 5.6657440000000006e-04,	 1.0727979200725337e+00,	 1.7466838252652281e+02,	 3.4575551131358467e-01,	 2.8945378861692296e+02,	 8.9336122503647377e+04,	 3.4144330832860777e+02,	 5.1155995878840332e-01 
1.0201700000000000e-01,	 5.6696150000000000e-04,	 1.0881548950222102e+00,	 1.7863854795089014e+02,	 3.8058517832158950e-01,	 2.9109109941418598e+02,	 9.1127526845425091e+04,	 3.4240764269398022e+02,	 5.2171427004017246e-01 
1.0314150000000000e-01,	 5.6735029999999999e-04,	 1.1028698261380647e+00,	 1.8237742170179999e+02,	 3.8265985067955410e-01,	 2.9264609925365409e+02,	 9.2853212094684422e+04,	 3.4332099017993954e+02,	 5.3121664087461240e-01 
1.0427119999999999e-01,	 5.6774080000000001e-04,	 1.1165409140889671e+00,	 1.8581176967303480e+02,	 3.6100990878360678e-01,	 2.9407865591377407e+02,	 9.4464381207544546e+04,	 3.4416027412272274e+02,	 5.3989996621705139e-01 
1.0540600000000000e-01,	 5.6813320000000003e-04,	 1.1288386709738563e+00,	 1.8887616677399802e+02,	 3.2432439629116427e-01,	 2.9535915016516799e+02,	 9.5920679356708890e+04,	 3.4490874151424470e+02,	 5.4761281026885000e-01 
1.0654619999999999e-01,	 5.6852740000000001e-04,	 1.1395620417847130e+00,	 1.9152961215615116e+02,	 2.8009404383682246e-01,	 2.9647023375804122e+02,	 9.7196137772171394e+04,	 3.4555687230309138e+02,	 5.5426423929907165e-01 
1.0769170000000000e-01,	 5.6892350000000000e-04,	 1.1486088698286929e+00,	 1.9375643894371129e+02,	 2.3177741492819065e-01,	 2.9740323484491898e+02,	 9.8276072304939124e+04,	 3.4610018431977693e+02,	 5.5982801036095331e-01 
1.0884280000000000e-01,	 5.6932149999999997e-04,	 1.1559550919193478e+00,	 1.9555933338244526e+02,	 1.8398224837393753e-01,	 2.9815798387310758e+02,	 9.9155621935958741e+04,	 3.4653907204373422e+02,	 5.6432141626733667e-01 