TITLE = "Final State"
VARIABLES = "X", "Y", "rho", "u", "v", "T", "p", "c", "M"
ZONE I=82, J=25, DATAPACKING=POINT, STRANDID=68000, SOLUTIONTIME=0.001641
8.4940000000000004e-01,	 2.6635680000000000e-01,	 2.7519753264495600e-02,	 1.6041513445100311e+03,	 3.6833772239957466e+02,	 4.5213171960962063e+02,	 3.5796408013481732e+03,	 4.2673815453411129e+02,	 3.8569229303263648e+00 
8.5141040000000001e-01,	 2.6661879999999999e-01,	 2.7586171857903456e-02,	 1.6041319403236082e+03,	 3.6900744326523170e+02,	 4.5182710389238798e+02,	 3.5858626812755497e+03,	 4.2659437668623985e+02,	 3.8585301645617167e+00 
8.5342070000000003e-01,	 2.6688079999999997e-01,	 2.7591836797223032e-02,	 1.6044767632076628e+03,	 3.6887799540350392e+02,	 4.5104883698572525e+02,	 3.5804211786774449e+03,	 4.2622681642400562e+02,	 3.8625779660541766e+00 
8.5538060000000005e-01,	 2.6713609999999999e-01,	 2.7572594872936979e-02,	 1.6048956532707396e+03,	 3.6859658195643283e+02,	 4.5035719767806256e+02,	 3.5724378765702340e+03,	 4.2589990247070506e+02,	 3.8663534027882629e+00 
8.5734049999999995e-01,	 2.6739140000000000e-01,	 2.7552983936853424e-02,	 1.6051966223937181e+03,	 3.6846670544904100e+02,	 4.4982047162439903e+02,	 3.5656424627593583e+03,	 4.2564603762371598e+02,	 3.8692802546982930e+00 
8.5925130000000005e-01,	 2.6764019999999999e-01,	 2.7539778709903803e-02,	 1.6053581862435512e+03,	 3.6854942634550315e+02,	 4.4946584029033932e+02,	 3.5611238203898579e+03,	 4.2547821824403422e+02,	 3.8712199926346922e+00 
8.6116210000000004e-01,	 2.6788899999999999e-01,	 2.7533931595110153e-02,	 1.6054003168185550e+03,	 3.6880523463124177e+02,	 4.4927296819854314e+02,	 3.5588399358233009e+03,	 4.2538691911506686e+02,	 3.8722819833514288e+00 
8.6302509999999999e-01,	 2.6813139999999996e-01,	 2.7530640788671516e-02,	 1.6053538361690216e+03,	 3.6913865550634887e+02,	 4.4920399750994318e+02,	 3.5578683152529225e+03,	 4.2535426596552537e+02,	 3.8726483302809540e+00 
8.6488799999999999e-01,	 2.6837390000000000e-01,	 2.7529005182251164e-02,	 1.6052426927901420e+03,	 3.6951296396185069e+02,	 4.4922968532968116e+02,	 3.5578603861862939e+03,	 4.2536642777571240e+02,	 3.8724802665342501e+00 
8.6670449999999999e-01,	 2.6861019999999997e-01,	 2.7528060145567711e-02,	 1.6050871831117536e+03,	 3.6992138140117584e+02,	 4.4933113444023115e+02,	 3.5585416898707595e+03,	 4.2541445511132389e+02,	 3.8719023447092789e+00 
8.6852099999999999e-01,	 2.6884649999999999e-01,	 2.7527800983103347e-02,	 1.6049343545063366e+03,	 3.7035673431872283e+02,	 4.4948811254363926e+02,	 3.5597513867038574e+03,	 4.2548875991417799e+02,	 3.8711061078539903e+00 
8.7029219999999996e-01,	 2.6907680000000000e-01,	 2.7527770416058549e-02,	 1.6047141190561883e+03,	 3.7080621881033608e+02,	 4.4968621913657967e+02,	 3.5613163506992910e+03,	 4.2558251416547449e+02,	 3.8699867272719302e+00 
8.7206329999999999e-01,	 2.6930709999999997e-01,	 2.7527467255033293e-02,	 1.6044323694938284e+03,	 3.7124695981485746e+02,	 4.4990299457865325e+02,	 3.5629938771247153e+03,	 4.2568507981926086e+02,	 3.8686426790040263e+00 
8.7379050000000003e-01,	 2.6953159999999998e-01,	 2.7525626342965726e-02,	 1.6041821167471485e+03,	 3.7166185230953761e+02,	 4.5008414631313894e+02,	 3.5641901302965348e+03,	 4.2577077143575565e+02,	 3.8675112564156238e+00 
8.7551760000000001e-01,	 2.6975610000000000e-01,	 2.7523155286996646e-02,	 1.6039296255512495e+03,	 3.7206744371870082e+02,	 4.5031934882451594e+02,	 3.5657325503023012e+03,	 4.2588200538610596e+02,	 3.8661386497948986e+00 
8.7720189999999998e-01,	 2.6997489999999996e-01,	 2.7520390332144685e-02,	 1.6036686802457857e+03,	 3.7248582737684285e+02,	 4.5061966637414423e+02,	 3.5677520843627012e+03,	 4.2602399187154009e+02,	 3.8644755371044277e+00 
8.7888619999999995e-01,	 2.7019369999999998e-01,	 2.7518218970383729e-02,	 1.6034083808272749e+03,	 3.7291268384417475e+02,	 4.5088515836978405e+02,	 3.5695724382061308e+03,	 4.2614947386162180e+02,	 3.8629694272794035e+00 
8.8052880000000000e-01,	 2.7040700000000001e-01,	 2.7516452799855311e-02,	 1.6031497758986989e+03,	 3.7333647193957927e+02,	 4.5114207507893900e+02,	 3.5713771668050858e+03,	 4.2627086766509160e+02,	 3.8615037979534761e+00 
8.8217140000000005e-01,	 2.7062029999999998e-01,	 2.7514461686457835e-02,	 1.6028965344867461e+03,	 3.7375592732551650e+02,	 4.5139302813361996e+02,	 3.5731052155419570e+03,	 4.2638941025957047e+02,	 3.8600750741203469e+00 
8.8377340000000004e-01,	 2.7082819999999996e-01,	 2.7511327135649390e-02,	 1.6026505472953647e+03,	 3.7416724904017588e+02,	 4.5163575723636177e+02,	 3.5746193130625093e+03,	 4.2650403676330075e+02,	 3.8586951106203662e+00 
8.8537540000000003e-01,	 2.7103610000000000e-01,	 2.7510221589180629e-02,	 1.6024112747362080e+03,	 3.7457027143781920e+02,	 4.5186899619669305e+02,	 3.5763216385510987e+03,	 4.2661415262162410e+02,	 3.8573678674190366e+00 
8.8693800000000000e-01,	 2.7123890000000000e-01,	 2.7510452779506631e-02,	 1.6021804163094857e+03,	 3.7496745462479601e+02,	 4.5208989176829755e+02,	 3.5780999881111470e+03,	 4.2671841476814745e+02,	 3.8561105718144959e+00 
8.8850059999999997e-01,	 2.7144160000000001e-01,	 2.7509144258445840e-02,	 1.6019576679375323e+03,	 3.7536234956948715e+02,	 4.5230128531492915e+02,	 3.5796028083529995e+03,	 4.2681816813398962e+02,	 3.8549121638644404e+00 
8.9002470000000000e-01,	 2.7163919999999997e-01,	 2.7508589254200015e-02,	 1.6017430321722566e+03,	 3.7574902551589582e+02,	 4.5250077753777754e+02,	 3.5811093784079803e+03,	 4.2691228407088113e+02,	 3.8537795781918032e+00 
8.9154889999999998e-01,	 2.7183689999999999e-01,	 2.7508392821864673e-02,	 1.6015382020974714e+03,	 3.7612969969298513e+02,	 4.5268870207952182e+02,	 3.5825710383243454e+03,	 4.2700092366159396e+02,	 3.8527163023929551e+00 
8.9303569999999999e-01,	 2.7202959999999998e-01,	 2.7507507422884617e-02,	 1.6013404125066306e+03,	 3.7650497596240854e+02,	 4.5286562843268740e+02,	 3.5838558751083651e+03,	 4.2708435885188459e+02,	 3.8517138063380676e+00 
8.9452259999999995e-01,	 2.7222229999999997e-01,	 2.7508090665780888e-02,	 1.6011496344520333e+03,	 3.7687295363681403e+02,	 4.5303309338141867e+02,	 3.5852571640907859e+03,	 4.2716331720619741e+02,	 3.8507643615401781e+00 
8.9597309999999997e-01,	 2.7241029999999999e-01,	 2.7508525969574274e-02,	 1.6009685898912196e+03,	 3.7723121924004829e+02,	 4.5318972990970383e+02,	 3.5865535241968423e+03,	 4.2723715684120765e+02,	 3.8498785835583256e+00 
8.9742359999999999e-01,	 2.7259820000000001e-01,	 2.7508998889101230e-02,	 1.6007933016786556e+03,	 3.7758522627042362e+02,	 4.5333788050459862e+02,	 3.5877876705400231e+03,	 4.2730698440204526e+02,	 3.8490402908243206e+00 
8.9883880000000005e-01,	 2.7278150000000001e-01,	 2.7509797240731396e-02,	 1.6006263618233825e+03,	 3.7793190280426450e+02,	 4.5347593728662116e+02,	 3.5889844283301927e+03,	 4.2737204419420925e+02,	 3.8482604830410363e+00 
9.0025409999999995e-01,	 2.7296470000000000e-01,	 2.7510494880244353e-02,	 1.6004649542599341e+03,	 3.7827482729986798e+02,	 4.5360582510060641e+02,	 3.5901034524087459e+03,	 4.2743324528743307e+02,	 3.8475264239435845e+00 
9.0163490000000002e-01,	 2.7314349999999998e-01,	 2.7512005008577627e-02,	 1.6003120327359493e+03,	 3.7860931381775879e+02,	 4.5372604607061521e+02,	 3.5912520750094845e+03,	 4.2748988370804159e+02,	 3.8468486012844165e+00 
9.0301580000000004e-01,	 2.7332220000000002e-01,	 2.7512851274188909e-02,	 1.6001633430134939e+03,	 3.7894111098254223e+02,	 4.5383929867312060e+02,	 3.5922589659680561e+03,	 4.2754323233277574e+02,	 3.8462089202326584e+00 
9.0436329999999998e-01,	 2.7349649999999998e-01,	 2.7514104027391191e-02,	 1.6000214872432625e+03,	 3.7926493795547981e+02,	 4.5394443294934013e+02,	 3.5932547373710649e+03,	 4.2759275079175711e+02,	 3.8456152791376246e+00 
9.0571080000000004e-01,	 2.7367089999999999e-01,	 2.7515932460828334e-02,	 1.5998859513266702e+03,	 3.7958386377987460e+02,	 4.5404228512466636e+02,	 3.5942681377582880e+03,	 4.2763883421433241e+02,	 3.8450645664863039e+00 
9.0702579999999999e-01,	 2.7384090000000000e-01,	 2.7516780399873708e-02,	 1.5997542454181257e+03,	 3.7989686063421738e+02,	 4.5413400009439846e+02,	 3.5951049518737150e+03,	 4.2768202281548309e+02,	 3.8445456704664362e+00 
9.0834079999999995e-01,	 2.7401100000000000e-01,	 2.7518822822908046e-02,	 1.5996292204336351e+03,	 3.8020393062448113e+02,	 4.5421904966003842e+02,	 3.5960451333184064e+03,	 4.2772206877922810e+02,	 3.8440672744383608e+00 
9.0962430000000005e-01,	 2.7417690000000000e-01,	 2.7519965911296143e-02,	 1.5995079332773876e+03,	 3.8050478302899830e+02,	 4.5429868831283102e+02,	 3.5968250315094883e+03,	 4.2775956359191815e+02,	 3.8436171807283488e+00 
9.1090780000000005e-01,	 2.7434280000000000e-01,	 2.7521512354735905e-02,	 1.5993918673845774e+03,	 3.8080031856016308e+02,	 4.5437309811274076e+02,	 3.5976163085286071e+03,	 4.2779459362955578e+02,	 3.8431984494200067e+00 
9.1216059999999999e-01,	 2.7450469999999999e-01,	 2.7522692137558275e-02,	 1.5992807231974052e+03,	 3.8108800748011674e+02,	 4.5444247072715325e+02,	 3.5983198290502728e+03,	 4.2782724971861450e+02,	 3.8428081894781179e+00 
9.1341340000000004e-01,	 2.7466649999999998e-01,	 2.7523583162504243e-02,	 1.5991724035509089e+03,	 3.8137214543136434e+02,	 4.5450796471721571e+02,	 3.5989549263440131e+03,	 4.2785807771771050e+02,	 3.8424390354471898e+00 
9.1463640000000002e-01,	 2.7482439999999997e-01,	 2.7524216918045821e-02,	 1.5990692568931408e+03,	 3.8164858079933970e+02,	 4.5456908816498924e+02,	 3.5995218037923573e+03,	 4.2788684650033252e+02,	 3.8420961341693234e+00 
9.1585939999999999e-01,	 2.7498240000000002e-01,	 2.7525532027086880e-02,	 1.5989705830171019e+03,	 3.8191827442459595e+02,	 4.5462599268638633e+02,	 3.6001444112453605e+03,	 4.2791362783553598e+02,	 3.8417777503034998e+00 
9.1705340000000002e-01,	 2.7513650000000001e-01,	 2.7526126033976500e-02,	 1.5988735250870413e+03,	 3.8218409864134503e+02,	 4.5467964110796561e+02,	 3.6006469495715587e+03,	 4.2793887519694334e+02,	 3.8414748624165256e+00 
9.1824740000000005e-01,	 2.7529060000000000e-01,	 2.7527118639863311e-02,	 1.5987807922543511e+03,	 3.8244533441112242e+02,	 4.5472976368621187e+02,	 3.6011737299989077e+03,	 4.2796246192342056e+02,	 3.8411943621741229e+00 
9.1941329999999999e-01,	 2.7544099999999999e-01,	 2.7527843373717172e-02,	 1.5986904594972436e+03,	 3.8270163172879415e+02,	 4.5477676612249513e+02,	 3.6016407812180737e+03,	 4.2798457918974583e+02,	 3.8409299558178827e+00 
9.2057920000000004e-01,	 2.7559139999999999e-01,	 2.7528607767512467e-02,	 1.5986034221079544e+03,	 3.8295388325968514e+02,	 4.5482100330011451e+02,	 3.6020911412389855e+03,	 4.2800539420369415e+02,	 3.8406826516290096e+00 
9.2171780000000003e-01,	 2.7573829999999999e-01,	 2.7529579992181096e-02,	 1.5985195780369522e+03,	 3.8319969068659748e+02,	 4.5486227934262257e+02,	 3.6025452654014107e+03,	 4.2802481499552107e+02,	 3.8404517266736149e+00 
9.2285629999999996e-01,	 2.7588509999999999e-01,	 2.7530423802030572e-02,	 1.5984364869825854e+03,	 3.8344404367190316e+02,	 4.5490166220641777e+02,	 3.6029676120669064e+03,	 4.2804334420633575e+02,	 3.8402298346336909e+00 
9.2396829999999996e-01,	 2.7602840000000001e-01,	 2.7531177025144973e-02,	 1.5983557926795770e+03,	 3.8368424607086655e+02,	 4.5493899772747557e+02,	 3.6033619054829546e+03,	 4.2806090942396673e+02,	 3.8400198844899962e+00 
9.2508029999999997e-01,	 2.7617169999999996e-01,	 2.7532006197234490e-02,	 1.5982776622193262e+03,	 3.8392089238819284e+02,	 4.5497458287223861e+02,	 3.6037522919817679e+03,	 4.2807765047237638e+02,	 3.8398213181068472e+00 
9.2616650000000000e-01,	 2.7631169999999999e-01,	 2.7533144939922392e-02,	 1.5982018173462293e+03,	 3.8415182534713347e+02,	 4.5500823537039093e+02,	 3.6041679106161191e+03,	 4.2809348170395339e+02,	 3.8396330871865780e+00 
9.2725270000000004e-01,	 2.7645159999999996e-01,	 2.7534203678493213e-02,	 1.5981254470424485e+03,	 3.8438252963598342e+02,	 4.5504097454331611e+02,	 3.6045658429334203e+03,	 4.2810888271577312e+02,	 3.8394474937606562e+00 
9.2831390000000003e-01,	 2.7658820000000001e-01,	 2.7535308159761900e-02,	 1.5980512266677395e+03,	 3.8460928177157791e+02,	 4.5507252836497901e+02,	 3.6049603938781383e+03,	 4.2812372559578000e+02,	 3.8392697244121563e+00 
9.2937510000000001e-01,	 2.7672490000000000e-01,	 2.7537448355186109e-02,	 1.5979790187605902e+03,	 3.8483246267073741e+02,	 4.5510256130567006e+02,	 3.6054785224578955e+03,	 4.2813785257722139e+02,	 3.8391010840824249e+00 
9.3041189999999996e-01,	 2.7685830000000000e-01,	 2.7538440787318361e-02,	 1.5979063120024528e+03,	 3.8505312752945940e+02,	 4.5513259720588883e+02,	 3.6058464248867922e+03,	 4.2815198048458171e+02,	 3.8389300149251619e+00 
9.3144879999999997e-01,	 2.7699180000000001e-01,	 2.7540688477600890e-02,	 1.5978359820820997e+03,	 3.8526938489131862e+02,	 4.5516192578305890e+02,	 3.6063731128140985e+03,	 4.2816577524042896e+02,	 3.8387650037717602e+00 
9.3246200000000001e-01,	 2.7712209999999998e-01,	 2.7542436885125494e-02,	 1.5977643811851767e+03,	 3.8548215418054991e+02,	 4.5519176549759140e+02,	 3.6068385049719791e+03,	 4.2817980995465871e+02,	 3.8385931289597277e+00 
9.3347530000000001e-01,	 2.7725250000000001e-01,	 2.7546347532091002e-02,	 1.5976940544850490e+03,	 3.8569017503118539e+02,	 4.5522108805213651e+02,	 3.6075830048009889e+03,	 4.2819360098142300e+02,	 3.8384238112869857e+00 
9.3446560000000001e-01,	 2.7737980000000001e-01,	 2.7550633191782314e-02,	 1.5976213736924321e+03,	 3.8589431886715147e+02,	 4.5525122120467006e+02,	 3.6083831118926619e+03,	 4.2820777278707288e+02,	 3.8382436896809438e+00 
9.3545599999999995e-01,	 2.7750720000000001e-01,	 2.7555814832369553e-02,	 1.5975504662252076e+03,	 3.8609180800512922e+02,	 4.5528322549300668e+02,	 3.6093154838354330e+03,	 4.2822282408571976e+02,	 3.8380561378643279e+00 
9.3642409999999998e-01,	 2.7763159999999998e-01,	 2.7559691217109460e-02,	 1.5974771713049633e+03,	 3.8627637441214824e+02,	 4.5532063791754160e+02,	 3.6101198538864205e+03,	 4.2824041810641114e+02,	 3.8378333619952336e+00 
9.3739229999999996e-01,	 2.7775600000000000e-01,	 2.7564994667244123e-02,	 1.5974010820407234e+03,	 3.8644121994951507e+02,	 4.5536674810316151e+02,	 3.6111802335432685e+03,	 4.2826210144736439e+02,	 3.8375568455705973e+00 
9.3833889999999998e-01,	 2.7787760000000000e-01,	 2.7572208609500645e-02,	 1.5973195045227421e+03,	 3.8657103917878430e+02,	 4.5542685680865083e+02,	 3.6126021062824407e+03,	 4.2829036595195549e+02,	 3.8371897456980770e+00 
9.3928550000000000e-01,	 2.7799920000000000e-01,	 2.7582811589055227e-02,	 1.5972469608273500e+03,	 3.8664840305168559e+02,	 4.5551061744738479e+02,	 3.6146560174192400e+03,	 4.2832974903266239e+02,	 3.8367148117707206e+00 
9.4021120000000002e-01,	 2.7811799999999998e-01,	 2.7598673222563010e-02,	 1.5971442625894922e+03,	 3.8663845338905043e+02,	 4.5563401462854551e+02,	 3.6177144117005309e+03,	 4.2838776206521703e+02,	 3.8359567703634481e+00 
9.4113680000000000e-01,	 2.7823690000000001e-01,	 2.7625886914830144e-02,	 1.5969880201979595e+03,	 3.8647556032300997e+02,	 4.5582526873628348e+02,	 3.6228017084160497e+03,	 4.2847766132720130e+02,	 3.8347080994503129e+00 
9.4204230000000000e-01,	 2.7835309999999996e-01,	 2.7667932390100999e-02,	 1.5967925913627191e+03,	 3.8606304958358061e+02,	 4.5612384639860602e+02,	 3.6306921081709552e+03,	 4.2861797048082786e+02,	 3.8327833549448402e+00 
9.4294770000000006e-01,	 2.7846929999999998e-01,	 2.7739602802755645e-02,	 1.5965145312236937e+03,	 3.8522438136918873e+02,	 4.5662542715211663e+02,	 3.6440998402344230e+03,	 4.2885357256105164e+02,	 3.8295883176811647e+00 
9.4383349999999999e-01,	 2.7858289999999997e-01,	 2.7857243926202716e-02,	 1.5960937811763142e+03,	 3.8369364458688005e+02,	 4.5745930000436238e+02,	 3.6662370805296491e+03,	 4.2924497240004109e+02,	 3.8243084125373588e+00 
9.4471930000000004e-01,	 2.7869650000000001e-01,	 2.8054261220921348e-02,	 1.5954551501387261e+03,	 3.8095965039507576e+02,	 4.5887422136316502e+02,	 3.7035860069743289e+03,	 4.2990828711768160e+02,	 3.8154814687286107e+00 
9.4558609999999998e-01,	 2.7880759999999999e-01,	 2.8373862486283579e-02,	 1.5944734633648382e+03,	 3.7635255630475353e+02,	 4.6120964709360737e+02,	 3.7648422177230677e+03,	 4.3100090094169474e+02,	 3.8011238099705151e+00 
9.4645279999999998e-01,	 2.7891879999999997e-01,	 2.8886620938442943e-02,	 1.5930131366576936e+03,	 3.6877302682114242e+02,	 4.6503993101603453e+02,	 3.8647101297030654e+03,	 4.3278690266262839e+02,	 3.7781653577254426e+00 
9.4730119999999995e-01,	 2.7902749999999998e-01,	 2.9662208391900237e-02,	 1.5909154870333755e+03,	 3.5715160327545868e+02,	 4.7095387645714953e+02,	 4.0189425227942716e+03,	 4.3553009956629796e+02,	 3.7437412320726762e+00 
9.4814949999999998e-01,	 2.7913620000000000e-01,	 3.0790866086818608e-02,	 1.5880499074520380e+03,	 3.4030361992046323e+02,	 4.7961688908828165e+02,	 4.2486045533178140e+03,	 4.3951754927432609e+02,	 3.6951938398195332e+00 
9.4898000000000005e-01,	 2.7924250000000000e-01,	 3.2309026199462014e-02,	 1.5843032606259353e+03,	 3.1811505635635297e+02,	 4.9115640747407713e+02,	 4.5653451850637739e+03,	 4.4477348968217098e+02,	 3.6331417290549712e+00 
9.4981050000000000e-01,	 2.7934890000000001e-01,	 3.4238875239227001e-02,	 1.5797297462789711e+03,	 2.9096223495906759e+02,	 5.0536908732425832e+02,	 4.9780367703733282e+03,	 4.5116284144246964e+02,	 3.5603589976939278e+00 
9.5062369999999996e-01,	 2.7945300000000001e-01,	 3.6494127819059120e-02,	 1.5744701361817470e+03,	 2.6073475849028324e+02,	 5.2128070677596736e+02,	 5.4729890312647312e+03,	 4.5821026301059038e+02,	 3.4829275812584952e+00 
9.5143690000000003e-01,	 2.7955710000000000e-01,	 3.8979881840695813e-02,	 1.5687307590258570e+03,	 2.2907021254063659e+02,	 5.3802351443936016e+02,	 6.0335332831459482e+03,	 4.6551064337514879e+02,	 3.4056520187661383e+00 
9.5223340000000001e-01,	 2.7965899999999999e-01,	 4.1519049337994121e-02,	 1.5627773112766965e+03,	 1.9825144939073368e+02,	 5.5440984731624542e+02,	 6.6222911995084387e+03,	 4.7254639500200847e+02,	 3.3336452691568432e+00 
9.5302989999999999e-01,	 2.7976089999999998e-01,	 4.4014980126762582e-02,	 1.5568169879447512e+03,	 1.6982709801615491e+02,	 5.6983890341082088e+02,	 7.2157676968803808e+03,	 4.7907668345661108e+02,	 3.2688973108745483e+00 
9.5381020000000005e-01,	 2.7986069999999996e-01,	 4.6002599492655928e-02,	 1.5525959237497425e+03,	 1.5038641609715637e+02,	 5.8097841904121196e+02,	 7.6890433812820802e+03,	 4.8373664344103292e+02,	 3.2246104386620535e+00 
8.4940000000000004e-01,	 2.6784360000000002e-01,	 2.7304765149472335e-02,	 1.6044537227630922e+03,	 3.6482285564550887e+02,	 4.5218895426592763e+02,	 3.5521257539943858e+03,	 4.2676516374143040e+02,	 3.8555349244003865e+00 
8.5140930000000004e-01,	 2.6809469999999996e-01,	 2.7387931144622034e-02,	 1.6042624876953057e+03,	 3.6608050386856132e+02,	 4.5225400875753354e+02,	 3.5634575527698948e+03,	 4.2679586107717523e+02,	 3.8554751939968606e+00 
8.5341869999999997e-01,	 2.6834569999999996e-01,	 2.7456068447644005e-02,	 1.6042306573146052e+03,	 3.6716230410331576e+02,	 4.5205600739817584e+02,	 3.5707589327232349e+03,	 4.2670242308606595e+02,	 3.8568115578537032e+00 
8.5537759999999996e-01,	 2.6859040000000001e-01,	 2.7477141500873624e-02,	 1.6044041157053593e+03,	 3.6753525472275868e+02,	 4.5161858633779462e+02,	 3.5700417475177442e+03,	 4.2649592898280952e+02,	 3.8592705110024581e+00 
8.5733649999999995e-01,	 2.6883509999999999e-01,	 2.7477455450958265e-02,	 1.6046540631125831e+03,	 3.6762803200010279e+02,	 4.5112556825904710e+02,	 3.5661851893557714e+03,	 4.2626306918963229e+02,	 3.8619989257886242e+00 
8.5924639999999997e-01,	 2.6907349999999997e-01,	 2.7472151723714734e-02,	 1.6048742928922811e+03,	 3.6769052471311414e+02,	 4.5068135748191708e+02,	 3.5619859951619846e+03,	 4.2605315281867877e+02,	 3.8644383410810317e+00 
8.6115629999999999e-01,	 2.6931189999999999e-01,	 2.7469153496643570e-02,	 1.6050266503798691e+03,	 3.6783505325303719e+02,	 4.5032800872254256e+02,	 3.5588048434184329e+03,	 4.2588610034340326e+02,	 3.8663786569545802e+00 
8.6301839999999996e-01,	 2.6954430000000001e-01,	 2.7469007243640303e-02,	 1.6051061617483297e+03,	 3.6806981527650385e+02,	 4.5007292165832246e+02,	 3.5567700309045090e+03,	 4.2576546225104374e+02,	 3.8677794062369224e+00 
8.6488050000000005e-01,	 2.6977659999999998e-01,	 2.7471382290410965e-02,	 1.6051224023995951e+03,	 3.6837319791647172e+02,	 4.4990470438140522e+02,	 3.5557480814609744e+03,	 4.2568588870121789e+02,	 3.8686989524662718e+00 
8.6669620000000003e-01,	 2.7000310000000000e-01,	 2.7475448897689443e-02,	 1.6050766797354013e+03,	 3.6872831227041758e+02,	 4.4981494877975126e+02,	 3.5555649675585119e+03,	 4.2564342459884858e+02,	 3.8691669226799896e+00 
8.6851179999999994e-01,	 2.7022950000000001e-01,	 2.7480689011530862e-02,	 1.6049642609256098e+03,	 3.6912427682474129e+02,	 4.4979161868368612e+02,	 3.5560586363651091e+03,	 4.2563238624765893e+02,	 3.8692182577437890e+00 
8.7028220000000001e-01,	 2.7045019999999997e-01,	 2.7486296182196859e-02,	 1.6048474815267182e+03,	 3.6954910407484874e+02,	 4.4982316473077969e+02,	 3.5570336703416401e+03,	 4.2564731180799214e+02,	 3.8690390485768034e+00 
8.7205270000000001e-01,	 2.7067099999999999e-01,	 2.7492061517800932e-02,	 1.6047208265438719e+03,	 3.6999130965370153e+02,	 4.4990146881342196e+02,	 3.5583990984854167e+03,	 4.2568435800138820e+02,	 3.8686456491261030e+00 
8.7377910000000003e-01,	 2.7088609999999996e-01,	 2.7496885561604432e-02,	 1.6045464690567396e+03,	 3.7042707390358237e+02,	 4.5003376414848975e+02,	 3.5600700374602284e+03,	 4.2574694049921982e+02,	 3.8679080252371540e+00 
8.7550559999999999e-01,	 2.7110119999999999e-01,	 2.7500513627808292e-02,	 1.6043620817610481e+03,	 3.7085576579995046e+02,	 4.5016449485223040e+02,	 3.5615740738872710e+03,	 4.2580877381053762e+02,	 3.8671510387793715e+00 
8.7718920000000000e-01,	 2.7131089999999997e-01,	 2.7503295260252691e-02,	 1.6041648764258496e+03,	 3.7128208653789193e+02,	 4.5028950128306946e+02,	 3.5629234368782381e+03,	 4.2586789124524131e+02,	 3.8663886509533216e+00 
8.7887280000000001e-01,	 2.7152060000000000e-01,	 2.7505714457685931e-02,	 1.6039544251851162e+03,	 3.7171259785164835e+02,	 4.5045479478849416e+02,	 3.5645448353576335e+03,	 4.2594604845026686e+02,	 3.8654259092380330e+00 
8.8051480000000004e-01,	 2.7172499999999999e-01,	 2.7507871674755182e-02,	 1.6037365554090470e+03,	 3.7214211367052258e+02,	 4.5063696593001748e+02,	 3.5662660674801050e+03,	 4.2603216944973639e+02,	 3.8643741027869876e+00 
8.8215679999999996e-01,	 2.7192939999999999e-01,	 2.7509947490826730e-02,	 1.6035144868025004e+03,	 3.7257025989318652e+02,	 4.5082902605579591e+02,	 3.5680552338811822e+03,	 4.2612294659611950e+02,	 3.8632704942791851e+00 
8.8375820000000005e-01,	 2.7212870000000000e-01,	 2.7511826252737112e-02,	 1.6032917521863094e+03,	 3.7299068417177932e+02,	 4.5102559882034905e+02,	 3.5698547781652364e+03,	 4.2621583661870238e+02,	 3.8621428939692040e+00 
8.8535969999999997e-01,	 2.7232800000000001e-01,	 2.7512752416993004e-02,	 1.6030690694938207e+03,	 3.7340621481058434e+02,	 4.5122508374186839e+02,	 3.5715539251821756e+03,	 4.2631008208249119e+02,	 3.8610013250142639e+00 
8.8692170000000004e-01,	 2.7252219999999999e-01,	 2.7513094312052400e-02,	 1.6028495090597032e+03,	 3.7381394673925848e+02,	 4.5142332890493708e+02,	 3.5731674852607402e+03,	 4.2640372119305255e+02,	 3.8598690216412388e+00 
8.8848369999999999e-01,	 2.7271649999999997e-01,	 2.7513167107206419e-02,	 1.6026329463657357e+03,	 3.7421648733450849e+02,	 4.5162021104973383e+02,	 3.5747353317992652e+03,	 4.2649669614831777e+02,	 3.8587475858835361e+00 
8.9000740000000000e-01,	 2.7290589999999998e-01,	 2.7512586526017895e-02,	 1.6024201619043920e+03,	 3.7461074008940955e+02,	 4.5181331152810463e+02,	 3.5761883249770199e+03,	 4.2658786557845559e+02,	 3.8576474452403757e+00 
8.9153110000000002e-01,	 2.7309539999999999e-01,	 2.7511897227106015e-02,	 1.6022124916838393e+03,	 3.7499858159663256e+02,	 4.5200210830414431e+02,	 3.5775930523048082e+03,	 4.2667698424747670e+02,	 3.8565748233540287e+00 
8.9301750000000002e-01,	 2.7327999999999997e-01,	 2.7511908495501683e-02,	 1.6020102316435507e+03,	 3.7537616556528991e+02,	 4.5218487813729513e+02,	 3.5790411399769346e+03,	 4.2676324026054141e+02,	 3.8555356280985995e+00 
8.9450390000000002e-01,	 2.7346470000000000e-01,	 2.7513097809421384e-02,	 1.6018108893821957e+03,	 3.7575005171977591e+02,	 4.5236229042607908e+02,	 3.5806001366752239e+03,	 4.2684695117386428e+02,	 3.8545247557884563e+00 
8.9595400000000003e-01,	 2.7364479999999997e-01,	 2.7514168428082238e-02,	 1.6016190406156688e+03,	 3.7611643689684479e+02,	 4.5253199814639322e+02,	 3.5820828148918845e+03,	 4.2692701137313355e+02,	 3.8535605411741289e+00 
8.9740410000000004e-01,	 2.7382489999999998e-01,	 2.7514889593146106e-02,	 1.6014322591152757e+03,	 3.7647835431743533e+02,	 4.5269541404510414e+02,	 3.5834702799245174e+03,	 4.2700408919771911e+02,	 3.8526329822485419e+00 
8.9881889999999998e-01,	 2.7400059999999998e-01,	 2.7515445436853449e-02,	 1.6012526947822769e+03,	 3.7683237673096630e+02,	 4.5285098583883388e+02,	 3.5847741799197029e+03,	 4.2707745429458771e+02,	 3.8517516792018514e+00 
9.0023379999999997e-01,	 2.7417619999999998e-01,	 2.7515664895244332e-02,	 1.6010775863320691e+03,	 3.7718208063249739e+02,	 4.5300031415268785e+02,	 3.5859848657181783e+03,	 4.2714786321666088e+02,	 3.8509053769475630e+00 
9.0161429999999998e-01,	 2.7434749999999997e-01,	 2.7516211652895625e-02,	 1.6009093349804748e+03,	 3.7752401078228064e+02,	 4.5314155644232835e+02,	 3.5871742289261924e+03,	 4.2721444886609942e+02,	 3.8501054607469323e+00 
9.0299479999999999e-01,	 2.7451880000000001e-01,	 2.7516801110480434e-02,	 1.6007468638072078e+03,	 3.7786118140310441e+02,	 4.5327613006114944e+02,	 3.5883164130325372e+03,	 4.2727788106046137e+02,	 3.8493450062641883e+00 
9.0434199999999998e-01,	 2.7468589999999998e-01,	 2.7517111953661286e-02,	 1.6005894395402995e+03,	 3.7819173881385757e+02,	 4.5340346699463333e+02,	 3.5893650102423626e+03,	 4.2733789352403312e+02,	 3.8486237005206316e+00 
9.0568919999999997e-01,	 2.7485290000000001e-01,	 2.7518040791344789e-02,	 1.6004381486288789e+03,	 3.7851724416420842e+02,	 4.5352399982421650e+02,	 3.5904403983554153e+03,	 4.2739469152676065e+02,	 3.8479429645225696e+00 
9.0700389999999997e-01,	 2.7501589999999998e-01,	 2.7518516534649318e-02,	 1.6002921057036237e+03,	 3.7883526639861748e+02,	 4.5363803117521104e+02,	 3.5914052457580151e+03,	 4.2744841892706370e+02,	 3.8472981367157675e+00 
9.0831870000000003e-01,	 2.7517890000000000e-01,	 2.7519450034632562e-02,	 1.6001510591932968e+03,	 3.7914822653913609e+02,	 4.5374617823314020e+02,	 3.5923832936936387e+03,	 4.2749936762507298e+02,	 3.8466872838043686e+00 
9.0960189999999996e-01,	 2.7533789999999997e-01,	 2.7520246758918121e-02,	 1.6000157114474146e+03,	 3.7945351394673031e+02,	 4.5384810453838065e+02,	 3.5932942886404867e+03,	 4.2754738013337982e+02,	 3.8461119791174818e+00 
9.1088510000000000e-01,	 2.7549679999999999e-01,	 2.7521221329691051e-02,	 1.5998843915743139e+03,	 3.7975432789775874e+02,	 4.5394463574038400e+02,	 3.5941858401155687e+03,	 4.2759284630121192e+02,	 3.8455666063432399e+00 
9.1213770000000005e-01,	 2.7565200000000001e-01,	 2.7522430517417262e-02,	 1.5997589147257895e+03,	 3.8004740724898124e+02,	 4.5403495405578832e+02,	 3.5950588987057267e+03,	 4.2763538182398668e+02,	 3.8450569614395484e+00 
9.1339029999999999e-01,	 2.7580709999999997e-01,	 2.7523571524942704e-02,	 1.5996379147446480e+03,	 3.8033599238684189e+02,	 4.5412030715066226e+02,	 3.5958837961128847e+03,	 4.2767557508197410e+02,	 3.8445763670192541e+00 
9.1461309999999996e-01,	 2.7595839999999999e-01,	 2.7524667776129063e-02,	 1.5995205968152613e+03,	 3.8061822519400198e+02,	 4.5420027579219993e+02,	 3.5966602634692158e+03,	 4.2771322934308716e+02,	 3.8441237545459761e+00 
9.1583590000000004e-01,	 2.7610980000000002e-01,	 2.7526065219917163e-02,	 1.5994083142284608e+03,	 3.8089556847856085e+02,	 4.5427521852798009e+02,	 3.5974363446749453e+03,	 4.2774851408324662e+02,	 3.8437014465801074e+00 
9.1702980000000001e-01,	 2.7625749999999999e-01,	 2.7526877252470463e-02,	 1.5993005787109353e+03,	 3.8116656041206778e+02,	 4.5434538034435599e+02,	 3.5980981034139513e+03,	 4.2778154522027398e+02,	 3.8433064771442051e+00 
9.1822360000000003e-01,	 2.7640519999999996e-01,	 2.7527866724126732e-02,	 1.5991960587330968e+03,	 3.8143368089462734e+02,	 4.5441152660797638e+02,	 3.5987512904517562e+03,	 4.2781268355938914e+02,	 3.8429339011305248e+00 
9.1938940000000002e-01,	 2.7654930000000000e-01,	 2.7528685810520453e-02,	 1.5990956247604249e+03,	 3.8169463882829143e+02,	 4.5447352356683973e+02,	 3.5993493754800375e+03,	 4.2784186655673096e+02,	 3.8425850006419919e+00 
9.2055509999999996e-01,	 2.7669349999999998e-01,	 2.7529553709411507e-02,	 1.5989975782898819e+03,	 3.8195224156433920e+02,	 4.5453214884241135e+02,	 3.5999271688118656e+03,	 4.2786946061578914e+02,	 3.8422541308923348e+00 
9.2169350000000005e-01,	 2.7683419999999997e-01,	 2.7530536235051688e-02,	 1.5989035454471898e+03,	 3.8220362429931981e+02,	 4.5458701452909440e+02,	 3.6004902053484816e+03,	 4.2789528347942377e+02,	 3.8419450562920372e+00 
9.2283199999999999e-01,	 2.7697489999999997e-01,	 2.7531398505752362e-02,	 1.5988124807469908e+03,	 3.8245153565897374e+02,	 4.5463907341903081e+02,	 3.6010153123385044e+03,	 4.2791978386663436e+02,	 3.8416528509391394e+00 
9.2394390000000004e-01,	 2.7711219999999998e-01,	 2.7532215841861055e-02,	 1.5987240346315557e+03,	 3.8269428790688801e+02,	 4.5468835808685100e+02,	 3.6015125930263466e+03,	 4.2794297733383598e+02,	 3.8413756525353575e+00 
9.2505579999999998e-01,	 2.7724959999999998e-01,	 2.7533143553334301e-02,	 1.5986370017067088e+03,	 3.8293447888711773e+02,	 4.5473542704626743e+02,	 3.6020067858948460e+03,	 4.2796512691058365e+02,	 3.8411097641371881e+00 