TITLE = "Final State"
VARIABLES = "X", "Y", "rho", "u", "v", "T", "p", "c", "M"
ZONE I=80, J=25, DATAPACKING=POINT, STRANDID=58000, SOLUTIONTIME=0.001399
9.5381020000000005e-01,	 2.7986069999999996e-01,	 4.6814770942452129e-02,	 1.5492624308317370e+03,	 1.4192459582240096e+02,	 5.8681879028150888e+02,	 7.9034525819640976e+03,	 4.8616198039346693e+02,	 3.2000642077434183e+00 
9.5459059999999996e-01,	 2.7996050000000000e-01,	 4.8560894732335082e-02,	 1.5457212435227345e+03,	 1.2558634103493499e+02,	 5.9595154272526588e+02,	 8.3258305133523081e+03,	 4.8993048195652227e+02,	 3.1653769490380879e+00 
9.5535530000000002e-01,	 2.8005829999999998e-01,	 5.0359954057264907e-02,	 1.5415681039193626e+03,	 1.0786976289715265e+02,	 6.0543727535681637e+02,	 8.7717131010589783e+03,	 4.9381418897330076e+02,	 3.1293907141485704e+00 
9.5611999999999997e-01,	 2.8015600000000002e-01,	 5.1868185630547292e-02,	 1.5381565472043339e+03,	 9.3133237394980029e+01,	 6.1307329264245516e+02,	 9.1483630532283587e+03,	 4.9691852248693920e+02,	 3.1010587086602190e+00 
9.5686959999999999e-01,	 2.8025180000000000e-01,	 5.3105455523395212e-02,	 1.5353922515778377e+03,	 8.1212299512174525e+01,	 6.1913532073401484e+02,	 9.4592054110699937e+03,	 4.9936922799617082e+02,	 3.0789613524380859e+00 
9.5761920000000000e-01,	 2.8034759999999997e-01,	 5.4116695862845038e-02,	 1.5331622741384326e+03,	 7.1581971505275050e+01,	 6.2396309008903233e+02,	 9.7144923408525101e+03,	 5.0131238801248605e+02,	 3.0616287372641855e+00 
9.5835420000000004e-01,	 2.8044150000000001e-01,	 5.4928972597221681e-02,	 1.5313794873676422e+03,	 6.3918367726022353e+01,	 6.2776250314667072e+02,	 9.9203452025107272e+03,	 5.0283635806866704e+02,	 3.0481345057089682e+00 
9.5908919999999998e-01,	 2.8053529999999999e-01,	 5.5584125856622910e-02,	 1.5299519467510145e+03,	 5.7784114693239658e+01,	 6.3077532052586935e+02,	 1.0086846469459560e+04,	 5.0404154377325341e+02,	 3.0375328954901790e+00 
9.5981019999999995e-01,	 2.8062739999999997e-01,	 5.6109428175474110e-02,	 1.5288166728721972e+03,	 5.2925085750385222e+01,	 6.3314304259544906e+02,	 1.0220393547594753e+04,	 5.0498666036998981e+02,	 3.0292532610438525e+00 
9.6053109999999997e-01,	 2.8071940000000001e-01,	 5.6531020478018487e-02,	 1.5279030799075317e+03,	 4.9033222036019978e+01,	 6.3502845451446638e+02,	 1.0327850636204112e+04,	 5.0573799146470981e+02,	 3.0226909712320773e+00 
9.6123840000000005e-01,	 2.8080959999999999e-01,	 5.6870236046256337e-02,	 1.5271696974321155e+03,	 4.5936145318313564e+01,	 6.3652383624160643e+02,	 1.0414289348580349e+04,	 5.0633310389416101e+02,	 3.0175005194781925e+00 
9.6194579999999996e-01,	 2.8089989999999998e-01,	 5.7148840754954161e-02,	 1.5265752340346480e+03,	 4.3440778783905863e+01,	 6.3772772980566401e+02,	 1.0485102110414693e+04,	 5.0681170593032550e+02,	 3.0133344876837147e+00 
9.6264000000000005e-01,	 2.8098839999999997e-01,	 5.7373876565327109e-02,	 1.5260868353197934e+03,	 4.1434054558704020e+01,	 6.3869970926995938e+02,	 1.0542433025151300e+04,	 5.0719778214261606e+02,	 3.0099682284903002e+00 
9.6333429999999998e-01,	 2.8107689999999996e-01,	 5.7562690892396677e-02,	 1.5256820461939492e+03,	 3.9796231221465376e+01,	 6.3949797820503602e+02,	 1.0590347261526069e+04,	 5.0751463981314862e+02,	 3.0072058323135895e+00 
9.6401590000000004e-01,	 2.8116379999999996e-01,	 5.7721156918935590e-02,	 1.5253432482888988e+03,	 3.8459714300727413e+01,	 6.4015567471733198e+02,	 1.0630423446856548e+04,	 5.0777555137319649e+02,	 3.0049261432225705e+00 
9.6469760000000004e-01,	 2.8125069999999996e-01,	 5.7856638381614825e-02,	 1.5250534743989706e+03,	 3.7348409146855367e+01,	 6.4070996527956561e+02,	 1.0664601027584789e+04,	 5.0799533720619468e+02,	 3.0030014520718882e+00 
9.6536699999999998e-01,	 2.8133599999999997e-01,	 5.7973487263974499e-02,	 1.5248026697729970e+03,	 3.6422328263347964e+01,	 6.4118014752374688e+02,	 1.0693981531013604e+04,	 5.0818169811585881e+02,	 3.0013627328810824e+00 
9.6603649999999996e-01,	 2.8142129999999999e-01,	 5.8077537199502115e-02,	 1.5245818543637574e+03,	 3.5634960808807627e+01,	 6.4158754860015983e+02,	 1.0719981998171872e+04,	 5.0834311990592920e+02,	 2.9999388137196261e+00 
9.6669430000000001e-01,	 2.8150510000000001e-01,	 5.8170246182387371e-02,	 1.5243905584326417e+03,	 3.4963158089400743e+01,	 6.4194679011333733e+02,	 1.0743106248046695e+04,	 5.0848541724011903e+02,	 2.9986926045273941e+00 
9.6735210000000005e-01,	 2.8158879999999997e-01,	 5.8253544745992175e-02,	 1.5242311487305140e+03,	 3.4376242152400366e+01,	 6.4228523894077421e+02,	 1.0764162267904776e+04,	 5.0861944206787695e+02,	 2.9975628533666048e+00 
9.6799869999999999e-01,	 2.8167110000000001e-01,	 5.8331863294207899e-02,	 1.5240782847468108e+03,	 3.3865583779021236e+01,	 6.4259737806114208e+02,	 1.0783872289476776e+04,	 5.0874301702467056e+02,	 2.9965118737861443e+00 
9.6864519999999998e-01,	 2.8175339999999999e-01,	 5.8405395841798213e-02,	 1.5239120603660228e+03,	 3.3409734622021681e+01,	 6.4285044683884746e+02,	 1.0801718604403139e+04,	 5.0884318417795953e+02,	 2.9955756422585349e+00 
9.6928099999999995e-01,	 2.8183429999999998e-01,	 5.8473850936851118e-02,	 1.5237538522180801e+03,	 3.2995339001361828e+01,	 6.4306965128296883e+02,	 1.0818066529116872e+04,	 5.0892993155519645e+02,	 2.9947365169453071e+00 
9.6991680000000002e-01,	 2.8191519999999998e-01,	 5.8540193789465740e-02,	 1.5236120437910590e+03,	 3.2614549478529398e+01,	 6.4329120363206357e+02,	 1.0834071717780584e+04,	 5.0901759306407456e+02,	 2.9939261418048475e+00 
9.7054220000000002e-01,	 2.8199479999999999e-01,	 5.8604093352601271e-02,	 1.5234804375298693e+03,	 3.2265095122931257e+01,	 6.4350457143603717e+02,	 1.0849495035281609e+04,	 5.0910200192982791e+02,	 2.9931566901994371e+00 
9.7116760000000002e-01,	 2.8207430000000000e-01,	 5.8664111826527685e-02,	 1.5233525313980761e+03,	 3.1936985743158111e+01,	 6.4371228651279262e+02,	 1.0864112042833600e+04,	 5.0918416112025017e+02,	 2.9924090130214260e+00 
9.7178310000000001e-01,	 2.8215249999999997e-01,	 5.8723394186675021e-02,	 1.5232306769666193e+03,	 3.1629732429963454e+01,	 6.4391114613021409e+02,	 1.0878450250274049e+04,	 5.0926280522153166e+02,	 2.9916950935087265e+00 
9.7239860000000000e-01,	 2.8223080000000000e-01,	 5.8783262713732326e-02,	 1.5231142618684744e+03,	 3.1339386990786540e+01,	 6.4410260388130314e+02,	 1.0892778684151290e+04,	 5.0933851059278942e+02,	 2.9910101307855097e+00 
9.7300460000000000e-01,	 2.8230780000000000e-01,	 5.8838842380396675e-02,	 1.5229988091169785e+03,	 3.1062363525830236e+01,	 6.4428887216719454e+02,	 1.0906230888775466e+04,	 5.0941215317131054e+02,	 2.9903400092391630e+00 
9.7361059999999999e-01,	 2.8238479999999999e-01,	 5.8895012575308797e-02,	 1.5228868281601005e+03,	 3.0797294911252095e+01,	 6.4447044023002945e+02,	 1.0919718901604298e+04,	 5.0948392723598192e+02,	 2.9896884303683442e+00 
9.7420750000000000e-01,	 2.8246060000000001e-01,	 5.8949144468576672e-02,	 1.5227768632012217e+03,	 3.0543104362729451e+01,	 6.4464730463895307e+02,	 1.0932754984254647e+04,	 5.0955383222044225e+02,	 2.9890524716406537e+00 
9.7480440000000002e-01,	 2.8253639999999997e-01,	 5.9003250570257154e-02,	 1.5226695718363508e+03,	 3.0297213559881286e+01,	 6.4482056934367233e+02,	 1.0945730686592087e+04,	 5.0962230513739360e+02,	 2.9884307359044797e+00 
9.7539260000000005e-01,	 2.8261110000000000e-01,	 5.9056354090445247e-02,	 1.5225645678974274e+03,	 3.0060653110756018e+01,	 6.4498951963099648e+02,	 1.0958452440997204e+04,	 5.0968906417073043e+02,	 2.9878241388661131e+00 
9.7598090000000004e-01,	 2.8268579999999999e-01,	 5.9108639111364450e-02,	 1.5224608678743703e+03,	 2.9830126135334023e+01,	 6.4515613680483307e+02,	 1.0970987762815790e+04,	 5.0975489273467792e+02,	 2.9872260134387183e+00 
9.7656080000000001e-01,	 2.8275939999999999e-01,	 5.9159652056090278e-02,	 1.5223584583275292e+03,	 2.9606885061638096e+01,	 6.4531970884499674e+02,	 1.0983240102017120e+04,	 5.0981950993242521e+02,	 2.9866380147435003e+00 
9.7714080000000003e-01,	 2.8283300000000000e-01,	 5.9210839335174056e-02,	 1.5222581957051589e+03,	 2.9388617280646223e+01,	 6.4548079787285360e+02,	 1.0995487319485313e+04,	 5.0988313824217647e+02,	 2.9860604174670105e+00 
9.7771290000000000e-01,	 2.8290559999999998e-01,	 5.9260710420212595e-02,	 1.5221585489332538e+03,	 2.9177468141351092e+01,	 6.4563949843367629e+02,	 1.1007454081652224e+04,	 5.0994581537147110e+02,	 2.9854900682382315e+00 
9.7828499999999996e-01,	 2.8297810000000001e-01,	 5.9308984754216733e-02,	 1.5220594159849350e+03,	 2.8968336154703891e+01,	 6.4579726507333589e+02,	 1.1019112799041168e+04,	 5.1000811602354759e+02,	 2.9849232015225735e+00 
9.7884959999999999e-01,	 2.8304979999999996e-01,	 5.9360602811365751e-02,	 1.5219654392198977e+03,	 2.8768031559809067e+01,	 6.4594962415442581e+02,	 1.1031304937732639e+04,	 5.1006827405577150e+02,	 2.9843794988410495e+00 
9.7941429999999996e-01,	 2.8312139999999997e-01,	 5.9407092943464551e-02,	 1.5218680112247660e+03,	 2.8569052410185677e+01,	 6.4610324406768109e+02,	 1.1042569975380700e+04,	 5.1012892273713857e+02,	 2.9838263897860196e+00 
9.7997179999999995e-01,	 2.8319200000000000e-01,	 5.9453723588730564e-02,	 1.5217720172172990e+03,	 2.8374235351895880e+01,	 6.4625494661275582e+02,	 1.1053832451562168e+04,	 5.1018880737209963e+02,	 2.9832808922267251e+00 
9.8052940000000000e-01,	 2.8326269999999998e-01,	 5.9502607695680720e-02,	 1.5216793200180787e+03,	 2.8184627640612526e+01,	 6.4640397361715191e+02,	 1.1065472266136858e+04,	 5.1024762899295160e+02,	 2.9827484338277044e+00 
9.8108019999999996e-01,	 2.8333249999999999e-01,	 5.9548536236622603e-02,	 1.5215855770963303e+03,	 2.7997985118618374e+01,	 6.4655227330073080e+02,	 1.1076554050158098e+04,	 5.1030615680638994e+02,	 2.9822159186563111e+00 
9.8163109999999998e-01,	 2.8340230000000000e-01,	 5.9594691308597007e-02,	 1.5214924482005720e+03,	 2.7813852336299263e+01,	 6.4669993098246118e+02,	 1.1087670892564260e+04,	 5.1036442457962471e+02,	 2.9816863816438008e+00 
9.8217560000000004e-01,	 2.8347129999999998e-01,	 5.9640784459674287e-02,	 1.5214006178302975e+03,	 2.7633261014309465e+01,	 6.4684564835758852e+02,	 1.1098746840935441e+04,	 5.1042192015982261e+02,	 2.9811641880103630e+00 
9.8272009999999999e-01,	 2.8354029999999997e-01,	 5.9686384099455175e-02,	 1.5213086881573486e+03,	 2.7454758178874286e+01,	 6.4699119365578474e+02,	 1.1109731839330705e+04,	 5.1047934137947902e+02,	 2.9806424667133782e+00 
9.8325870000000004e-01,	 2.8360849999999999e-01,	 5.9730642808804385e-02,	 1.5212160471953284e+03,	 2.7278531345084915e+01,	 6.4713661012214607e+02,	 1.1120468792214939e+04,	 5.1053670532206831e+02,	 2.9801199242918397e+00 
9.8379729999999999e-01,	 2.8367670000000000e-01,	 5.9775587336873506e-02,	 1.5211240370232542e+03,	 2.7103709328347122e+01,	 6.4728175635321077e+02,	 1.1131332513336987e+04,	 5.1059395623539518e+02,	 2.9795994823081484e+00 
9.8433029999999999e-01,	 2.8374420000000000e-01,	 5.9820267060518587e-02,	 1.5210327368704125e+03,	 2.6929733561358827e+01,	 6.4742559745369567e+02,	 1.1142128204253455e+04,	 5.1065068602581016e+02,	 2.9790836553262134e+00 
9.8486330000000000e-01,	 2.8381170000000000e-01,	 5.9864620286888950e-02,	 1.5209409888471259e+03,	 2.6755521009007992e+01,	 6.4756985093737683e+02,	 1.1152873868467344e+04,	 5.1070757212817654e+02,	 2.9785661845385079e+00 
9.8539109999999996e-01,	 2.8387849999999998e-01,	 5.9908311165118328e-02,	 1.5208487651238424e+03,	 2.6581611634468295e+01,	 6.4771432501443201e+02,	 1.1163503592046127e+04,	 5.1076453887094738e+02,	 2.9780474763336047e+00 
9.8591890000000004e-01,	 2.8394530000000001e-01,	 5.9952345258776393e-02,	 1.5207556272518609e+03,	 2.6408035721275912e+01,	 6.4786017546950370e+02,	 1.1174224657316319e+04,	 5.1082204188143203e+02,	 2.9775240182067217e+00 
9.8644180000000004e-01,	 2.8401139999999997e-01,	 5.9994933955228605e-02,	 1.5206608346800085e+03,	 2.6232649582763827e+01,	 6.4800766121796028e+02,	 1.1184708182181721e+04,	 5.1088018304118782e+02,	 2.9769936977808493e+00 
9.8696479999999998e-01,	 2.8407759999999999e-01,	 6.0040547905999164e-02,	 1.5205674328621171e+03,	 2.6057325229522654e+01,	 6.4815521377777645e+02,	 1.1195760594328322e+04,	 5.1093834391846548e+02,	 2.9764661456552921e+00 
9.8748320000000001e-01,	 2.8414319999999998e-01,	 6.0084460038199200e-02,	 1.5204718378083874e+03,	 2.5879441589999992e+01,	 6.4830449246381067e+02,	 1.1206529306402388e+04,	 5.1099717844751473e+02,	 2.9759304525529089e+00 
9.8800169999999998e-01,	 2.8420879999999998e-01,	 6.0128469354161752e-02,	 1.5203736401881026e+03,	 2.5699276816568105e+01,	 6.4845688200476832e+02,	 1.1217373733751030e+04,	 5.1105723205724382e+02,	 2.9753826579914917e+00 
9.8851599999999995e-01,	 2.8427379999999997e-01,	 6.0172285168652646e-02,	 1.5202740530414576e+03,	 2.5515224174463938e+01,	 6.4861126781433518e+02,	 1.1228220470217546e+04,	 5.1111806516048563e+02,	 2.9748276504213225e+00 
9.8903030000000003e-01,	 2.8433890000000001e-01,	 6.0218906290888358e-02,	 1.5201743028865844e+03,	 2.5330595251950868e+01,	 6.4876695096654521e+02,	 1.1239617173216840e+04,	 5.1117940212856206e+02,	 2.9742695483948398e+00 
9.8954089999999995e-01,	 2.8440339999999997e-01,	 6.0261851784336365e-02,	 1.5200701950613206e+03,	 2.5139217928542543e+01,	 6.4892697951398236e+02,	 1.1250407182305900e+04,	 5.1124244345117097e+02,	 2.9736929689083431e+00 
9.9005149999999997e-01,	 2.8446800000000000e-01,	 6.0309400585295575e-02,	 1.5199698179491033e+03,	 2.4946435888630631e+01,	 6.4908883879801260e+02,	 1.1262092522891935e+04,	 5.1130619806390769e+02,	 2.9731196806268181e+00 
9.9055859999999996e-01,	 2.8453210000000001e-01,	 6.0354135790920846e-02,	 1.5198687343768122e+03,	 2.4749005284518290e+01,	 6.4925397755341100e+02,	 1.1273313696993479e+04,	 5.1137123623303756e+02,	 2.9725375917619989e+00 
9.9106570000000005e-01,	 2.8459619999999997e-01,	 6.0400361557200216e-02,	 1.5197672045036165e+03,	 2.4549286388797341e+01,	 6.4942118174192979e+02,	 1.1284853499194194e+04,	 5.1143707942481439e+02,	 2.9719500774628846e+00 
9.9156979999999995e-01,	 2.8465989999999997e-01,	 6.0446645436015349e-02,	 1.5196624274365829e+03,	 2.4347028188538452e+01,	 6.4958979899276903e+02,	 1.1296433182144827e+04,	 5.1150347048177304e+02,	 2.9713531552334760e+00 
9.9207380000000001e-01,	 2.8472359999999997e-01,	 6.0493258126873971e-02,	 1.5195561677263072e+03,	 2.4142858202448053e+01,	 6.4976056363380326e+02,	 1.1308116192934665e+04,	 5.1157069826688672e+02,	 2.9707486234620868e+00 
9.9257519999999999e-01,	 2.8478690000000001e-01,	 6.0538850630188934e-02,	 1.5194455777514718e+03,	 2.3935586594644853e+01,	 6.4993477403880013e+02,	 1.1319673041625350e+04,	 5.1163927350110220e+02,	 2.9701279231734188e+00 
9.9307650000000003e-01,	 2.8485030000000000e-01,	 6.0587377125562641e-02,	 1.5193357941390539e+03,	 2.3730746032095347e+01,	 6.5010925090030446e+02,	 1.1331787855568351e+04,	 5.1170794441077499e+02,	 2.9695085381654978e+00 
9.9357540000000000e-01,	 2.8491329999999998e-01,	 6.0632363676739437e-02,	 1.5192229145454107e+03,	 2.3523021421149263e+01,	 6.5028309509349663e+02,	 1.1343234244107369e+04,	 5.1177635714943523e+02,	 2.9688847341031734e+00 
9.9407440000000002e-01,	 2.8497639999999996e-01,	 6.0680225398901999e-02,	 1.5191122112705862e+03,	 2.3319266784784887e+01,	 6.5045381235528771e+02,	 1.1355168581789459e+04,	 5.1184353045099908e+02,	 2.9682727094863943e+00 
9.9457130000000005e-01,	 2.8503909999999999e-01,	 6.0723399828177739e-02,	 1.5189993648674003e+03,	 2.3113887948617645e+01,	 6.5062637845807421e+02,	 1.1366262550238975e+04,	 5.1191142227059015e+02,	 2.9676524982549073e+00 
9.9506819999999996e-01,	 2.8510189999999996e-01,	 6.0771129425898615e-02,	 1.5188873970126724e+03,	 2.2914524585147660e+01,	 6.5079680517122074e+02,	 1.1378176268473895e+04,	 5.1197846356461736e+02,	 2.9670393268236976e+00 
9.9556339999999999e-01,	 2.8516449999999999e-01,	 6.0815832695354663e-02,	 1.5187782388035575e+03,	 2.2719619740212945e+01,	 6.5096638148084844e+02,	 1.1389513020497074e+04,	 5.1204516162070308e+02,	 2.9664339713749275e+00 
9.9605860000000002e-01,	 2.8522700000000001e-01,	 6.0857917140391356e-02,	 1.5186687130022019e+03,	 2.2527640026996384e+01,	 6.5113586797193909e+02,	 1.1400361983804740e+04,	 5.1211181566926757e+02,	 2.9658284434810227e+00 
9.9655249999999995e-01,	 2.8528939999999997e-01,	 6.0902549327279468e-02,	 1.5185615248518566e+03,	 2.2344576232690770e+01,	 6.5130077339524792e+02,	 1.1411612171467743e+04,	 5.1217665979294645e+02,	 2.9652384179603666e+00 
9.9704640000000000e-01,	 2.8535179999999999e-01,	 6.0944189703947521e-02,	 1.5184578400008506e+03,	 2.2168470595188655e+01,	 6.5146327813098833e+02,	 1.1422263769961506e+04,	 5.1224055188788282e+02,	 2.9646611308232993e+00 
9.9753919999999996e-01,	 2.8541400000000000e-01,	 6.0984309801864908e-02,	 1.5183546702483482e+03,	 2.1999114721925682e+01,	 6.5162236342886308e+02,	 1.1432574264350367e+04,	 5.1230309184157329e+02,	 2.9640930462686210e+00 
9.9803200000000003e-01,	 2.8547630000000002e-01,	 6.1025761733584344e-02,	 1.5182571609388260e+03,	 2.1841996898481721e+01,	 6.5177479120799308e+02,	 1.1443021283495475e+04,	 5.1236300741597756e+02,	 2.9635517061726691e+00 
9.9852419999999997e-01,	 2.8553839999999997e-01,	 6.1061834116287295e-02,	 1.5181600510238127e+03,	 2.1690167509800780e+01,	 6.5192604551662293e+02,	 1.1452442361463411e+04,	 5.1242245480326801e+02,	 2.9630141578145119e+00 
9.9901640000000003e-01,	 2.8560059999999998e-01,	 6.1101414660550121e-02,	 1.5180668350755800e+03,	 2.1537106821389507e+01,	 6.5207268028739304e+02,	 1.1462443499697009e+04,	 5.1248007999329036e+02,	 2.9624948601938903e+00 
9.9950819999999996e-01,	 2.8566269999999999e-01,	 6.1145020365370721e-02,	 1.5179298651673842e+03,	 2.1617630001322624e+01,	 6.5226552085843332e+02,	 1.1474016062525960e+04,	 5.1255585348349985e+02,	 2.9617919315738526e+00 
1.0000000000000000e+00,	 2.8572480000000000e-01,	 6.1209654503645211e-02,	 1.5177194457727755e+03,	 2.1342641353790398e+01,	 6.5261145110972780e+02,	 1.1492236518900154e+04,	 5.1269175294987986e+02,	 2.9605888782899075e+00 
9.5378750000000001e-01,	 2.8078490000000000e-01,	 5.0581585746828472e-02,	 1.5433058360983462e+03,	 9.3766405299792609e+01,	 6.0823910118454910e+02,	 8.8510891210167683e+03,	 4.9495549986824216e+02,	 3.1238195928198387e+00 
9.5456799999999997e-01,	 2.8088049999999998e-01,	 5.1850702981290006e-02,	 1.5405849906595831e+03,	 8.3331871173182279e+01,	 6.1429316042247433e+02,	 9.1634764106987150e+03,	 4.9741265073095002e+02,	 3.1017246883061427e+00 
9.5533279999999998e-01,	 2.8097420000000001e-01,	 5.3109081423107510e-02,	 1.5373730929676972e+03,	 7.3631554379234473e+01,	 6.2009956960044747e+02,	 9.4745841477581234e+03,	 4.9975793855907881e+02,	 3.0797616877567600e+00 
9.5609770000000005e-01,	 2.8106789999999998e-01,	 5.4141333978129737e-02,	 1.5347591619794018e+03,	 6.5784000609100360e+01,	 6.2474374222617814e+02,	 9.7310746511813559e+03,	 5.0162589073665231e+02,	 3.0623785275678612e+00 
9.5684749999999996e-01,	 2.8115970000000001e-01,	 5.4969419096008526e-02,	 1.5326575284153523e+03,	 5.9509884611265761e+01,	 6.2839318105796065e+02,	 9.9376237226201683e+03,	 5.0308888045753366e+02,	 3.0487901343606669e+00 
9.5759729999999998e-01,	 2.8125139999999998e-01,	 5.5636149619847280e-02,	 1.5309700300129984e+03,	 5.4438554527579925e+01,	 6.3128334178933733e+02,	 1.0104418684050734e+04,	 5.0424447838119073e+02,	 3.0380850137887534e+00 
9.5833250000000003e-01,	 2.8134139999999996e-01,	 5.6166531317002784e-02,	 1.5296274116882548e+03,	 5.0382456072364356e+01,	 6.3354634860864905e+02,	 1.0237311864846870e+04,	 5.0514747058214806e+02,	 3.0297230369009256e+00 
9.5906769999999997e-01,	 2.8143140000000000e-01,	 5.6591222669752902e-02,	 1.5285542576865244e+03,	 4.7093732317538141e+01,	 6.3533935716942494e+02,	 1.0343910968103653e+04,	 5.0586177807828858e+02,	 3.0231174108252423e+00 
9.5978889999999994e-01,	 2.8151949999999998e-01,	 5.6930277334264819e-02,	 1.5277028527163448e+03,	 4.4447631951798954e+01,	 6.3674846295378461e+02,	 1.0428963373851831e+04,	 5.0642243747559991e+02,	 3.0179336299707598e+00 
9.6050999999999997e-01,	 2.8160770000000002e-01,	 5.7205435099850321e-02,	 1.5270251021129548e+03,	 4.2278821765915239e+01,	 6.3787343933151249e+02,	 1.0497883512240511e+04,	 5.0686960138648607e+02,	 3.0138131656672704e+00 
9.6121760000000001e-01,	 2.8169420000000001e-01,	 5.7426917809603933e-02,	 1.5264806888170058e+03,	 4.0507974957663635e+01,	 6.3876984016128699e+02,	 1.0553337995032098e+04,	 5.0722562719691336e+02,	 3.0105302042922784e+00 
9.6192509999999998e-01,	 2.8178070000000000e-01,	 5.7610954997664353e-02,	 1.5260382998581690e+03,	 3.9035544296931207e+01,	 6.3949750411552066e+02,	 1.0599219003219563e+04,	 5.0751445169104159e+02,	 3.0078699653762238e+00 
9.6261960000000002e-01,	 2.8186559999999999e-01,	 5.7763371825293716e-02,	 1.5256762186947190e+03,	 3.7812126542180053e+01,	 6.4008956873651084e+02,	 1.0637099547575153e+04,	 5.0774933285416347e+02,	 3.0057050063892858e+00 
9.6331409999999995e-01,	 2.8195039999999999e-01,	 5.7892714660567376e-02,	 1.5253736775731008e+03,	 3.6774613257731950e+01,	 6.4058343691093989e+02,	 1.0669143522850907e+04,	 5.0794517488751359e+02,	 3.0039007765152506e+00 
9.6399599999999996e-01,	 2.8203370000000000e-01,	 5.8003723062223372e-02,	 1.5251182866290724e+03,	 3.5895115505145043e+01,	 6.4099800508338058e+02,	 1.0696519462847289e+04,	 5.0810951245204399e+02,	 3.0023855166548614e+00 
9.6467780000000003e-01,	 2.8211690000000000e-01,	 5.8101728102751451e-02,	 1.5248984656935688e+03,	 3.5132943134769882e+01,	 6.4135568467670112e+02,	 1.0720571449686213e+04,	 5.0825125630805286e+02,	 3.0010808951426355e+00 
9.6534750000000003e-01,	 2.8219869999999997e-01,	 5.8188764976362842e-02,	 1.5247069081189716e+03,	 3.4471293611562821e+01,	 6.4166720646786450e+02,	 1.0741845993563906e+04,	 5.0837467621672977e+02,	 2.9999459086494253e+00 
9.6601729999999997e-01,	 2.8228039999999999e-01,	 5.8267860170448785e-02,	 1.5245413729113102e+03,	 3.3884792869611395e+01,	 6.4195022906222584e+02,	 1.0761191625299934e+04,	 5.0848677923230082e+02,	 2.9989332154504580e+00 
9.6667530000000002e-01,	 2.8236069999999996e-01,	 5.8341240025628613e-02,	 1.5243929726007420e+03,	 3.3364932324232022e+01,	 6.4221074717128215e+02,	 1.0779116411471237e+04,	 5.0858994655828189e+02,	 2.9980106258143713e+00 
9.6733340000000001e-01,	 2.8244100000000000e-01,	 5.8409953333822574e-02,	 1.5242374070621991e+03,	 3.2893546527579218e+01,	 6.4244367247741195e+02,	 1.0795725983235585e+04,	 5.0868216918924827e+02,	 2.9971412109372730e+00 
9.6798019999999996e-01,	 2.8251979999999999e-01,	 5.8474673720857913e-02,	 1.5240864786657912e+03,	 3.2467506948858215e+01,	 6.4264098953331040e+02,	 1.0811007467880909e+04,	 5.0876028028799334e+02,	 2.9963665109307636e+00 
9.6862700000000002e-01,	 2.8259869999999998e-01,	 5.8537191410625265e-02,	 1.5239584137012998e+03,	 3.2074568174935152e+01,	 6.4283855320888324e+02,	 1.0825893086117658e+04,	 5.0883847700184646e+02,	 2.9956380659092883e+00 
9.6926299999999999e-01,	 2.8267619999999999e-01,	 5.8597205746581019e-02,	 1.5238401367899446e+03,	 3.1710711252598788e+01,	 6.4304388677073098e+02,	 1.0840453682465064e+04,	 5.0891973634324529e+02,	 2.9949124351059253e+00 
9.6989899999999996e-01,	 2.8275370000000000e-01,	 5.8655376735884814e-02,	 1.5237224114124638e+03,	 3.1368118351700414e+01,	 6.4323811719402192e+02,	 1.0854492879313580e+04,	 5.0899658975463188e+02,	 2.9942150651745529e+00 
9.7052470000000002e-01,	 2.8282999999999997e-01,	 5.8712661424924067e-02,	 1.5236076164582387e+03,	 3.1047743369440866e+01,	 6.4342391023725509e+02,	 1.0868231995190738e+04,	 5.0907009379232937e+02,	 2.9935443945252103e+00 
9.7115039999999997e-01,	 2.8290620000000000e-01,	 5.8769155109713651e-02,	 1.5234957832776779e+03,	 3.0742632553081947e+01,	 6.4360535083357991e+02,	 1.0881757181821051e+04,	 5.0914186565937774e+02,	 2.9928906507004842e+00 
9.7176620000000002e-01,	 2.8298119999999999e-01,	 5.8823095974784786e-02,	 1.5233843548249245e+03,	 3.0453281617215566e+01,	 6.4378304894535620e+02,	 1.0894752116196885e+04,	 5.0921214731878956e+02,	 2.9922473791586239e+00 
9.7238190000000002e-01,	 2.8305619999999998e-01,	 5.8877588913206491e-02,	 1.5232753040368741e+03,	 3.0177290293788083e+01,	 6.4395771474259266e+02,	 1.0907803481229075e+04,	 5.0928122021057578e+02,	 2.9916166790819276e+00 
9.7298819999999997e-01,	 2.8312999999999999e-01,	 5.8930638297830115e-02,	 1.5231682628248755e+03,	 2.9913828651550084e+01,	 6.4412904786191200e+02,	 1.0920536311963428e+04,	 5.0934896606942891e+02,	 2.9909984667594247e+00 
9.7359450000000003e-01,	 2.8320370000000000e-01,	 5.8983344086702763e-02,	 1.5230625217471870e+03,	 2.9659690399037693e+01,	 6.4429852029755989e+02,	 1.0933179109044439e+04,	 5.0941596734277618e+02,	 2.9903877857343102e+00 
9.7419169999999999e-01,	 2.8327639999999998e-01,	 5.9035032392278940e-02,	 1.5229581902342909e+03,	 2.9415621853856599e+01,	 6.4446517765426279e+02,	 1.0945590583540225e+04,	 5.0948184707599700e+02,	 2.9897870764326502e+00 
9.7478889999999996e-01,	 2.8334909999999996e-01,	 5.9086172628026609e-02,	 1.5228544718008645e+03,	 2.9178864423266820e+01,	 6.4463064453468121e+02,	 1.0957885134976150e+04,	 5.0954724778677996e+02,	 2.9891908858394056e+00 
9.7537739999999995e-01,	 2.8342059999999997e-01,	 5.9136572869727788e-02,	 1.5227518505776789e+03,	 2.8950786648530588e+01,	 6.4479364901592089e+02,	 1.0970005390485574e+04,	 5.0961166702864818e+02,	 2.9886031513813722e+00 
9.7596590000000005e-01,	 2.8349219999999997e-01,	 5.9186782627267863e-02,	 1.5226503079229440e+03,	 2.8728550434254981e+01,	 6.4495547875986927e+02,	 1.0982075025756405e+04,	 5.0967561396095823e+02,	 2.9880207322916732e+00 
9.7654620000000003e-01,	 2.8356270000000000e-01,	 5.9236136148386534e-02,	 1.5225498743478483e+03,	 2.8513352633672628e+01,	 6.4511508758739114e+02,	 1.0993952573714247e+04,	 5.0973867544160805e+02,	 2.9874461451351659e+00 
9.7712639999999995e-01,	 2.8363329999999998e-01,	 5.9284707736497209e-02,	 1.5224494381070886e+03,	 2.8302923617984170e+01,	 6.4527403870534226e+02,	 1.1005678277315445e+04,	 5.0980146930863498e+02,	 2.9868734952676834e+00 
9.7769879999999998e-01,	 2.8370279999999998e-01,	 5.9333812844382203e-02,	 1.5223516002627323e+03,	 2.8099452143482448e+01,	 6.4543017522932223e+02,	 1.1017459445817682e+04,	 5.0986314373689277e+02,	 2.9863129462810538e+00 
9.7827120000000001e-01,	 2.8377239999999998e-01,	 5.9380513519373235e-02,	 1.5222523107839179e+03,	 2.7898639330674921e+01,	 6.4558671883804777e+02,	 1.1028805402678021e+04,	 5.0992497147633264e+02,	 2.9857489368233319e+00 
9.7883620000000005e-01,	 2.8384100000000001e-01,	 5.9427794102871315e-02,	 1.5221539580942590e+03,	 2.7704928353218971e+01,	 6.4574095334616550e+02,	 1.1040223820490255e+04,	 5.0998587989347357e+02,	 2.9851925862979840e+00 
9.7940110000000002e-01,	 2.8390959999999998e-01,	 5.9475460204103839e-02,	 1.5220580747515035e+03,	 2.7514347420171500e+01,	 6.4589399901158299e+02,	 1.1051697729093134e+04,	 5.1004631163766066e+02,	 2.9846441569508886e+00 
9.7995900000000002e-01,	 2.8397739999999999e-01,	 5.9520922011665034e-02,	 1.5219613228247272e+03,	 2.7326878329797971e+01,	 6.4604634868118490e+02,	 1.1062754219408209e+04,	 5.1010646144981769e+02,	 2.9840959597785242e+00 
9.8051679999999997e-01,	 2.8404509999999999e-01,	 5.9566763438356950e-02,	 1.5218646169452920e+03,	 2.7143096120109622e+01,	 6.4619823269238611e+02,	 1.1073877288831103e+04,	 5.1016642035410604e+02,	 2.9835492718540371e+00 
9.8106800000000005e-01,	 2.8411199999999998e-01,	 5.9612208519664749e-02,	 1.5217689533531611e+03,	 2.6962968137326836e+01,	 6.4634883022978624e+02,	 1.1084908600659704e+04,	 5.1022586444330102e+02,	 2.9830079342592404e+00 
9.8161909999999997e-01,	 2.8417890000000001e-01,	 5.9657164594574388e-02,	 1.5216731315380753e+03,	 2.6784580299629727e+01,	 6.4649957204242378e+02,	 1.1095855374502959e+04,	 5.1028535854633077e+02,	 2.9824662214470763e+00 
9.8216400000000004e-01,	 2.8424499999999997e-01,	 5.9701508860035689e-02,	 1.5215771639335621e+03,	 2.6609229710095669e+01,	 6.4664966621965095e+02,	 1.1106681104771722e+04,	 5.1034459015254708e+02,	 2.9819260273137416e+00 
9.8270880000000005e-01,	 2.8431109999999998e-01,	 5.9746166442501455e-02,	 1.5214815484483493e+03,	 2.6435360670594434e+01,	 6.4679974469529157e+02,	 1.1117568696861881e+04,	 5.1040380868979088e+02,	 2.9813868139209663e+00 
9.8324769999999995e-01,	 2.8437649999999998e-01,	 5.9790195331929009e-02,	 1.5213859132708130e+03,	 2.6262893374722292e+01,	 6.4694961479439075e+02,	 1.1128339546573301e+04,	 5.1046293814941413e+02,	 2.9808482927938846e+00 
9.8378659999999996e-01,	 2.8444179999999997e-01,	 5.9834025199461016e-02,	 1.5212894806689524e+03,	 2.6090563195323778e+01,	 6.4710092713662448e+02,	 1.1139101968442186e+04,	 5.1052262968122744e+02,	 2.9803050955763393e+00 
9.8431990000000003e-01,	 2.8450650000000000e-01,	 5.9877520326521654e-02,	 1.5211926627523108e+03,	 2.5919131774702180e+01,	 6.4725267468894606e+02,	 1.1149813371271348e+04,	 5.1058248589141027e+02,	 2.9797603772306105e+00 
9.8485319999999998e-01,	 2.8457119999999997e-01,	 5.9921408728948716e-02,	 1.5210958567053365e+03,	 2.5747090406139890e+01,	 6.4740520770147521e+02,	 1.1160615361467682e+04,	 5.1064264485244632e+02,	 2.9792140603808250e+00 
9.8538139999999996e-01,	 2.8463519999999998e-01,	 5.9964631500545054e-02,	 1.5209981556384623e+03,	 2.5574329938858572e+01,	 6.4755842189644613e+02,	 1.1171308949160339e+04,	 5.1070306533752586e+02,	 2.9786646083177337e+00 
9.8590949999999999e-01,	 2.8469919999999999e-01,	 6.0008995528891766e-02,	 1.5209003134155578e+03,	 2.5399642731473570e+01,	 6.4771276976998786e+02,	 1.1182238583806160e+04,	 5.1076392566528131e+02,	 2.9781124200139462e+00 
9.8643270000000005e-01,	 2.8476259999999998e-01,	 6.0052159197348964e-02,	 1.5208000632082940e+03,	 2.5222217958121902e+01,	 6.4786916706439865e+02,	 1.1192983833846345e+04,	 5.1082558669642549e+02,	 2.9775509324520315e+00 