TITLE = "Final State"
VARIABLES = "X", "Y", "rho", "u", "v", "T", "p", "c", "M"
ZONE I=77, J=21, DATAPACKING=POINT, STRANDID=60000, SOLUTIONTIME=0.001448
1.8369600000000000e-01,	 3.0203999999999998e-01,	 1.1611540434451305e-02,	 1.7358448185223499e+03,	 9.8217433895725914e-01,	 3.0025868016178327e+02,	 1.0030332908389987e+03,	 3.4775771388850131e+02,	 4.9915358511513288e+00 
1.8819400000000000e-01,	 3.0203999999999998e-01,	 1.1621160009185876e-02,	 1.7358019836223032e+03,	 1.3314432530122351e+00,	 3.0035565099422172e+02,	 1.0041884588782602e+03,	 3.4781386485922604e+02,	 4.9906075336161377e+00 
1.9269200000000000e-01,	 3.0203999999999998e-01,	 1.1630345481631686e-02,	 1.7357454805385123e+03,	 1.6308059621272610e+00,	 3.0044594936743999e+02,	 1.0052843147346549e+03,	 3.4786614399213511e+02,	 4.9896958258835893e+00 
1.9719000000000000e-01,	 3.0203999999999998e-01,	 1.1635550473853402e-02,	 1.7357137514639899e+03,	 1.7760325333977542e+00,	 3.0049495295535780e+02,	 1.0058982532385504e+03,	 3.4789451181365581e+02,	 4.9891981654410200e+00 
2.0168800000000001e-01,	 3.0203999999999998e-01,	 1.1637756277847119e-02,	 1.7357010135865221e+03,	 1.8144041865014031e+00,	 3.0051402498689981e+02,	 1.0061528011081876e+03,	 3.4790555184903923e+02,	 4.9890033450154156e+00 
2.0618600000000001e-01,	 3.0203999999999998e-01,	 1.1637708310512765e-02,	 1.7357023822105773e+03,	 1.7781356256516689e+00,	 3.0050902698056314e+02,	 1.0061319202627982e+03,	 3.4790265873717414e+02,	 4.9890486589374214e+00 
2.1068400000000001e-01,	 3.0203999999999998e-01,	 1.1636039082607090e-02,	 1.7357136361420607e+03,	 1.6918764615355291e+00,	 3.0048863782367289e+02,	 1.0059193530614342e+03,	 3.4789085615958243e+02,	 4.9892500190315072e+00 
2.1518200000000001e-01,	 3.0203999999999998e-01,	 1.1633255671776151e-02,	 1.7357313221210429e+03,	 1.5746522879053964e+00,	 3.0046158974680651e+02,	 1.0055882062704452e+03,	 3.4787519834561601e+02,	 4.9895251073842788e+00 
2.1967999999999999e-01,	 3.0203999999999998e-01,	 1.1629926923595314e-02,	 1.7357533681790399e+03,	 1.4405876770929085e+00,	 3.0042395357122945e+02,	 1.0051745414043576e+03,	 3.4785341003303648e+02,	 4.9899006763268892e+00 
2.2417799999999999e-01,	 3.0203999999999998e-01,	 1.1626086321068478e-02,	 1.7357778696180762e+03,	 1.2992719061836573e+00,	 3.0037843504392913e+02,	 1.0046903501115657e+03,	 3.4782705665049298e+02,	 4.9903488607284041e+00 
2.2867599999999999e-01,	 3.0203999999999998e-01,	 1.1621946955383686e-02,	 1.7358028206172808e+03,	 1.1561558208240807e+00,	 3.0033579873084472e+02,	 1.0041900819828943e+03,	 3.4780237014199923e+02,	 4.9907745164170505e+00 
2.3317399999999999e-01,	 3.0203999999999998e-01,	 1.1617971122749303e-02,	 1.7358274022523590e+03,	 1.0171435470042960e+00,	 3.0029394729665478e+02,	 1.0037066668003913e+03,	 3.4777813637567294e+02,	 4.9911927136940637e+00 
2.3767199999999999e-01,	 3.0203999999999998e-01,	 1.1614168774890184e-02,	 1.7358509581483190e+03,	 8.8699805473575100e-01,	 3.0025395469891686e+02,	 1.0032445440373925e+03,	 3.4775497737705678e+02,	 4.9915926376191804e+00 
2.4217000000000000e-01,	 3.0203999999999998e-01,	 1.1610610681911198e-02,	 1.7358730571367641e+03,	 7.6709710506135576e-01,	 3.0021647211114674e+02,	 1.0028119891403821e+03,	 3.4773327048013493e+02,	 4.9919676199902110e+00 
2.4666800000000000e-01,	 3.0203999999999998e-01,	 1.1607342773043578e-02,	 1.7358933864548667e+03,	 6.5848783618470474e-01,	 3.0018200541268402e+02,	 1.0024146422704806e+03,	 3.4771330894753021e+02,	 4.9923125364495755e+00 
2.5116600000000000e-01,	 3.0203999999999998e-01,	 1.1604387447268497e-02,	 1.7359117827520749e+03,	 5.6150504585422711e-01,	 3.0015081473866991e+02,	 1.0020552889340005e+03,	 3.4769524375039259e+02,	 4.9926247332034688e+00 
2.5566400000000000e-01,	 3.0203999999999998e-01,	 1.1601751488088317e-02,	 1.7359281966990925e+03,	 4.7593093283216631e-01,	 3.0012297965871073e+02,	 1.0017347636539088e+03,	 3.4767912127324706e+02,	 4.9929033862709913e+00 
2.6016200000000000e-01,	 3.0203999999999998e-01,	 1.1599429249629071e-02,	 1.7359426669881836e+03,	 4.0122686345060643e-01,	 3.0009843915829731e+02,	 1.0014523600691376e+03,	 3.4766490644362602e+02,	 4.9931490961031706e+00 
2.6466000000000001e-01,	 3.0203999999999998e-01,	 1.1597404577038915e-02,	 1.7359552864159837e+03,	 3.3664906114967363e-01,	 3.0007703313222510e+02,	 1.0012061360889863e+03,	 3.4765250675106341e+02,	 4.9933634458207150e+00 
2.6915800000000001e-01,	 3.0203999999999998e-01,	 1.1595656201430937e-02,	 1.7359661858750646e+03,	 2.8132735116306412e-01,	 3.0005854000504860e+02,	 1.0009935055289304e+03,	 3.4764179403338085e+02,	 4.9935486424974016e+00 
2.7365600000000001e-01,	 3.0203999999999998e-01,	 1.1594160365854506e-02,	 1.7359755186891994e+03,	 2.3434312944862778e-01,	 3.0004270397118307e+02,	 1.0008115556184516e+03,	 3.4763262025705313e+02,	 4.9937072453752958e+00 
2.7815400000000001e-01,	 3.0203999999999998e-01,	 1.1592890967680489e-02,	 1.7359834405263400e+03,	 1.9475842317038902e-01,	 3.0002925726731428e+02,	 1.0006571333435486e+03,	 3.4762483042378568e+02,	 4.9938419224395094e+00 
2.8265200000000001e-01,	 3.0203999999999998e-01,	 1.1591822622038006e-02,	 1.7359901092788950e+03,	 1.6165729554765937e-01,	 3.0001793304195496e+02,	 1.0005271524868315e+03,	 3.4761827003180576e+02,	 4.9939553425857355e+00 
2.8715000000000002e-01,	 3.0203999999999998e-01,	 1.1590931206238315e-02,	 1.7359956819656850e+03,	 1.3419095003229972e-01,	 3.0000847017535699e+02,	 1.0004186563449438e+03,	 3.4761278787408662e+02,	 4.9940501262022741e+00 
2.9164800000000002e-01,	 3.0203999999999998e-01,	 1.1590192797917731e-02,	 1.7360003014858453e+03,	 1.1157419390992210e-01,	 3.0000062288636980e+02,	 1.0003287578046532e+03,	 3.4760824160937858e+02,	 4.9941287267352603e+00 
2.9614600000000002e-01,	 3.0203999999999998e-01,	 1.1589585951492752e-02,	 1.7360041012083357e+03,	 9.3088423411588406e-02,	 2.9999416522934297e+02,	 1.0002548505498764e+03,	 3.4760450037234000e+02,	 4.9941934061400319e+00 
3.0064400000000002e-01,	 3.0203999999999998e-01,	 1.1589091815492295e-02,	 1.7360072051480875e+03,	 7.8102553545876696e-02,	 2.9998889118832653e+02,	 1.0001946192664526e+03,	 3.4760144483216209e+02,	 4.9942462343423770e+00 
3.0514200000000002e-01,	 3.0203999999999998e-01,	 1.1588692514079214e-02,	 1.7360097186361800e+03,	 6.6055928864028821e-02,	 2.9998461848103000e+02,	 1.0001459124590124e+03,	 3.4759896939963494e+02,	 4.9942890305207328e+00 
3.0964000000000003e-01,	 3.0203999999999998e-01,	 1.1588372820544035e-02,	 1.7360117361997441e+03,	 5.6455018704191548e-02,	 2.9998118665259199e+02,	 1.0001068803869455e+03,	 3.4759698112529281e+02,	 4.9943234014795674e+00 
3.1413799999999997e-01,	 3.0203999999999998e-01,	 1.1588120057657220e-02,	 1.7360133434242807e+03,	 4.8883121113388821e-02,	 2.9997845475464112e+02,	 1.0000759586164895e+03,	 3.4759539835663145e+02,	 4.9943507662071234e+00 
3.1863599999999997e-01,	 3.0203999999999998e-01,	 1.1587922159866856e-02,	 1.7360146094274960e+03,	 4.2978462794752856e-02,	 2.9997630179890098e+02,	 1.0000517022180236e+03,	 3.4759415100229813e+02,	 4.9943723303561187e+00 
3.2313399999999998e-01,	 3.0203999999999998e-01,	 1.1587769296714245e-02,	 1.7360155949056661e+03,	 3.8431813336383812e-02,	 2.9997462436813476e+02,	 1.0000329178500543e+03,	 3.4759317914896394e+02,	 4.9943891292155733e+00 
3.2763199999999998e-01,	 3.0203999999999998e-01,	 1.1587653762321612e-02,	 1.7360163543695226e+03,	 3.4988653889919695e-02,	 2.9997333408893610e+02,	 1.0000186457547528e+03,	 3.4759243159784711e+02,	 4.9944020551363053e+00 
3.3212999999999998e-01,	 3.0203999999999998e-01,	 1.1587546095691719e-02,	 1.7360169362483036e+03,	 3.2366560214797460e-02,	 2.9997236712754852e+02,	 1.0000061305649532e+03,	 3.4759187136683215e+02,	 4.9944117787435713e+00 
3.3662799999999998e-01,	 3.0203999999999998e-01,	 1.1587482630914100e-02,	 1.7360173557073276e+03,	 3.0400502410642516e-02,	 2.9997164612204676e+02,	 9.9999824997506630e+02,	 3.4759145363535140e+02,	 4.9944189876276894e+00 
3.4112599999999998e-01,	 3.0203999999999998e-01,	 1.1587462302068040e-02,	 1.7360176567830399e+03,	 2.9166869869859034e-02,	 2.9997111488523774e+02,	 9.9999472464774908e+02,	 3.4759114585050105e+02,	 4.9944242762004007e+00 
3.4562399999999999e-01,	 3.0203999999999998e-01,	 1.1587436875766004e-02,	 1.7360178774630940e+03,	 2.8383397425930580e-02,	 2.9997074940984476e+02,	 9.9999131200554507e+02,	 3.4759093410336436e+02,	 4.9944279535751024e+00 
3.5012199999999999e-01,	 3.0203999999999998e-01,	 1.1587421957950959e-02,	 1.7360180178651656e+03,	 2.7942478573469192e-02,	 2.9997051198016760e+02,	 9.9998923310235227e+02,	 3.4759079654258596e+02,	 4.9944303340533081e+00 
3.5461999999999999e-01,	 3.0203999999999998e-01,	 1.1587416304007154e-02,	 1.7360181067183717e+03,	 2.7791621303738592e-02,	 2.9997036822092241e+02,	 9.9998826593038234e+02,	 3.4759071325207145e+02,	 4.9944317864495806e+00 
3.5911799999999999e-01,	 3.0203999999999998e-01,	 1.1587417553616388e-02,	 1.7360181530213586e+03,	 2.7889762644763515e-02,	 2.9997029092114963e+02,	 9.9998811608267181e+02,	 3.4759066846650643e+02,	 4.9944325631764466e+00 
3.6361599999999999e-01,	 3.0203999999999998e-01,	 1.1587426178521128e-02,	 1.7360181461051643e+03,	 2.8106182539211506e-02,	 2.9997029846521821e+02,	 9.9998888555657663e+02,	 3.4759067283735232e+02,	 4.9944324804855080e+00 
3.6811400000000000e-01,	 3.0203999999999998e-01,	 1.1587440984538011e-02,	 1.7360181122133224e+03,	 2.8433223094377492e-02,	 2.9997036117243641e+02,	 9.9999037235087599e+02,	 3.4759070916835429e+02,	 4.9944318609659204e+00 
3.7261200000000000e-01,	 3.0203999999999998e-01,	 1.1587458788243511e-02,	 1.7360180599355663e+03,	 2.8862333584687917e-02,	 2.9997045514005958e+02,	 9.9999222205559715e+02,	 3.4759076361085005e+02,	 4.9944309283174038e+00 
3.7711000000000000e-01,	 3.0203999999999998e-01,	 1.1587478555301966e-02,	 1.7360179947960150e+03,	 2.9338830999856406e-02,	 2.9997056996894855e+02,	 9.9999431074174640e+02,	 3.4759083013983098e+02,	 4.9944297850019606e+00 
3.8160800000000000e-01,	 3.0203999999999998e-01,	 1.1587500646062687e-02,	 1.7360179201078145e+03,	 2.9921899870121983e-02,	 2.9997070227195900e+02,	 9.9999665821632925e+02,	 3.4759090679286425e+02,	 4.9944284687522202e+00 
3.8610600000000000e-01,	 3.0203999999999998e-01,	 1.1587524843376197e-02,	 1.7360178328018001e+03,	 3.0602236321379123e-02,	 2.9997085587089884e+02,	 9.9999925848061048e+02,	 3.4759099578420165e+02,	 4.9944269389225342e+00 
3.9060400000000001e-01,	 3.0203999999999998e-01,	 1.1587550439267631e-02,	 1.7360177361140852e+03,	 3.1295863031834022e-02,	 2.9997102383998651e+02,	 1.0000020273490844e+03,	 3.4759109310121283e+02,	 4.9944252624755165e+00 
3.9510200000000001e-01,	 3.0203999999999998e-01,	 1.1587577806106329e-02,	 1.7360176348514178e+03,	 3.2028925336658756e-02,	 2.9997120302633937e+02,	 1.0000049864469801e+03,	 3.4759119691719172e+02,	 4.9944234794889208e+00 
3.9960000000000001e-01,	 3.0203999999999998e-01,	 1.1587605921783390e-02,	 1.7360175293869852e+03,	 3.2807955995133933e-02,	 2.9997138906750587e+02,	 1.0000080330240360e+03,	 3.4759130470464106e+02,	 4.9944216273538293e+00 
4.0409800000000001e-01,	 3.0203999999999998e-01,	 1.1587634540449122e-02,	 1.7360174202468129e+03,	 3.3629026896082048e-02,	 2.9997157974749655e+02,	 1.0000111384763328e+03,	 3.4759141517967078e+02,	 4.9944197260314436e+00 
4.0859600000000001e-01,	 3.0203999999999998e-01,	 1.1587664353236958e-02,	 1.7360173092773450e+03,	 3.4485718982032273e-02,	 2.9997177526502026e+02,	 1.0000143631112541e+03,	 3.4759152845740482e+02,	 4.9944177791795923e+00 
4.1309400000000002e-01,	 3.0203999999999998e-01,	 1.1587695096750207e-02,	 1.7360171920821663e+03,	 3.5363171283002329e-02,	 2.9997197924119803e+02,	 1.0000176962697451e+03,	 3.4759164663582226e+02,	 4.9944157440043444e+00 
4.1759200000000002e-01,	 3.0203999999999998e-01,	 1.1587727054640680e-02,	 1.7360170668618739e+03,	 3.6248545216359937e-02,	 2.9997219505253406e+02,	 1.0000211736876488e+03,	 3.4759177167117446e+02,	 4.9944135872197943e+00 
4.2209000000000002e-01,	 3.0203999999999998e-01,	 1.1587760846006774e-02,	 1.7360169368493184e+03,	 3.7143251929624754e-02,	 2.9997242214649134e+02,	 1.0000248469517622e+03,	 3.4759190324332900e+02,	 4.9944113227268865e+00 
4.2658800000000002e-01,	 3.0203999999999998e-01,	 1.1587795669303382e-02,	 1.7360168012380168e+03,	 3.8051538618111710e-02,	 2.9997265848795251e+02,	 1.0000286401047642e+03,	 3.4759204017318666e+02,	 4.9944089651479802e+00 
4.3108600000000002e-01,	 3.0203999999999998e-01,	 1.1587831230374126e-02,	 1.7360166614400596e+03,	 3.8976611417641763e-02,	 2.9997290133677291e+02,	 1.0000325186264415e+03,	 3.4759218087317623e+02,	 4.9944065413571987e+00 
4.3558400000000003e-01,	 3.0203999999999998e-01,	 1.1587867879144472e-02,	 1.7360165217634965e+03,	 3.9930772273973528e-02,	 2.9997314729653834e+02,	 1.0000365013930150e+03,	 3.4759232337550458e+02,	 4.9944040920239381e+00 
4.4008199999999997e-01,	 3.0203999999999998e-01,	 1.1587904863882517e-02,	 1.7360163806517230e+03,	 4.0917172269784266e-02,	 2.9997339486592796e+02,	 1.0000405185250200e+03,	 3.4759246681034591e+02,	 4.9944016251685106e+00 
4.4457999999999998e-01,	 3.0203999999999998e-01,	 1.1587942086852425e-02,	 1.7360162380804820e+03,	 4.1932031264504760e-02,	 2.9997364339213738e+02,	 1.0000445594116309e+03,	 3.4759261079948260e+02,	 4.9943991461555051e+00 
4.4907799999999998e-01,	 3.0203999999999998e-01,	 1.1587980171241935e-02,	 1.7360160965552359e+03,	 4.2975403412756102e-02,	 2.9997389233564542e+02,	 1.0000486760357055e+03,	 3.4759275503033064e+02,	 4.9943966666845077e+00 
4.5357599999999998e-01,	 3.0203999999999998e-01,	 1.1588018660638272e-02,	 1.7360159530134233e+03,	 4.4042147476279200e-02,	 2.9997414331245773e+02,	 1.0000528343961857e+03,	 3.4759290043915723e+02,	 4.9943941644917560e+00 
4.5807399999999998e-01,	 3.0203999999999998e-01,	 1.1588057589439395e-02,	 1.7360158067346965e+03,	 4.5123709985477281e-02,	 2.9997439708113438e+02,	 1.0000570399906877e+03,	 3.4759304746544876e+02,	 4.9943916311896368e+00 
4.6257199999999998e-01,	 3.0203999999999998e-01,	 1.1588097582262605e-02,	 1.7360156605393497e+03,	 4.6217099640650836e-02,	 2.9997465316280238e+02,	 1.0000613451278572e+03,	 3.4759319583175812e+02,	 4.9943890788783527e+00 
4.6706999999999999e-01,	 3.0203999999999998e-01,	 1.1588137979989237e-02,	 1.7360155126722825e+03,	 4.7318618383956332e-02,	 2.9997491104030973e+02,	 1.0000656912014377e+03,	 3.4759334523846081e+02,	 4.9943865068135853e+00 
4.7156799999999999e-01,	 3.0203999999999998e-01,	 1.1588178682139289e-02,	 1.7360153632553265e+03,	 4.8424948375569057e-02,	 2.9997517007315355e+02,	 1.0000700674047328e+03,	 3.4759349531446708e+02,	 4.9943839206776515e+00 
4.7606599999999999e-01,	 3.0203999999999998e-01,	 1.1588220194909137e-02,	 1.7360152157718207e+03,	 4.9537170672399856e-02,	 2.9997542855620952e+02,	 1.0000745117384470e+03,	 3.4759364507187792e+02,	 4.9943813446865697e+00 
4.8056399999999999e-01,	 3.0203999999999998e-01,	 1.1588261809656813e-02,	 1.7360150685350272e+03,	 5.0654796024416547e-02,	 2.9997568549458896e+02,	 1.0000789597293816e+03,	 3.4759379393428503e+02,	 4.9943787822697869e+00 
4.8506199999999999e-01,	 3.0203999999999998e-01,	 1.1588303447428665e-02,	 1.7360149214770286e+03,	 5.1771190484986039e-02,	 2.9997594049285078e+02,	 1.0000834032453635e+03,	 3.4759394167258301e+02,	 4.9943762365232143e+00 
4.8956000000000000e-01,	 3.0203999999999998e-01,	 1.1588345653788246e-02,	 1.7360147778597109e+03,	 5.2887764840617378e-02,	 2.9997619225144513e+02,	 1.0000878850365484e+03,	 3.4759408753385384e+02,	 4.9943737276493412e+00 
4.9405800000000000e-01,	 3.0203999999999998e-01,	 1.1588387806284016e-02,	 1.7360146355179027e+03,	 5.4005586502712338e-02,	 2.9997644068710065e+02,	 1.0000923511069772e+03,	 3.4759423146985500e+02,	 4.9943712501123203e+00 
4.9855600000000000e-01,	 3.0203999999999998e-01,	 1.1588429871993627e-02,	 1.7360144941932244e+03,	 5.5119886458032050e-02,	 2.9997668589456578e+02,	 1.0000967989311589e+03,	 3.4759437353548321e+02,	 4.9943688023795323e+00 
5.0305400000000000e-01,	 3.0203999999999998e-01,	 1.1588472389364314e-02,	 1.7360143570954883e+03,	 5.6234406732459233e-02,	 2.9997692651041990e+02,	 1.0001012704321572e+03,	 3.4759451294081742e+02,	 4.9943664050354650e+00 
5.0755200000000000e-01,	 3.0203999999999998e-01,	 1.1588514765077693e-02,	 1.7360142218807123e+03,	 5.7348494362777953e-02,	 2.9997716272909065e+02,	 1.0001057150538662e+03,	 3.4759464979850611e+02,	 4.9943640497179329e+00 
5.1205000000000001e-01,	 3.0203999999999998e-01,	 1.1588557021762546e-02,	 1.7360140880257109e+03,	 5.8460898553396923e-02,	 2.9997739520795608e+02,	 1.0001101369406613e+03,	 3.4759478448941627e+02,	 4.9943617294491247e+00 
5.1654800000000001e-01,	 3.0203999999999998e-01,	 1.1588599774052896e-02,	 1.7360139581966960e+03,	 5.9577010686056711e-02,	 2.9997762337022181e+02,	 1.0001145872132639e+03,	 3.4759491667937419e+02,	 4.9943594567014529e+00 
5.2104600000000001e-01,	 3.0203999999999998e-01,	 1.1599237592751941e-02,	 1.7359619964780461e+03,	 4.7047624219531031e-01,	 3.0006398460295571e+02,	 1.0013208374225221e+03,	 3.4764494801992987e+02,	 4.9934914058702065e+00 
5.2554400000000001e-01,	 3.0203999999999998e-01,	 1.1611224158264988e-02,	 1.7359093688135088e+03,	 9.3212510918733149e-01,	 3.0018825216703033e+02,	 1.0027707073230939e+03,	 3.4771692686646725e+02,	 4.9923069167699374e+00 
1.8369600000000000e-01,	 3.0570929999999996e-01,	 1.1598080048628509e-02,	 1.7359068429672702e+03,	 4.0660468525857091e-01,	 3.0012387437610886e+02,	 1.0014207444540688e+03,	 3.4767963951801340e+02,	 4.9928344754200573e+00 
1.8819400000000000e-01,	 3.0569399999999997e-01,	 1.1605676536416261e-02,	 1.7358739159839940e+03,	 6.7491713162464873e-01,	 3.0019926188941758e+02,	 1.0023283626769349e+03,	 3.4772330325146186e+02,	 4.9921130708181840e+00 
1.9269200000000000e-01,	 3.0567869999999997e-01,	 1.1615264238667142e-02,	 1.7358232001333581e+03,	 9.9113586304140577e-01,	 3.0029648639248580e+02,	 1.0034812967937289e+03,	 3.4777960666862685e+02,	 4.9911594866776738e+00 
1.9719000000000000e-01,	 3.0566329999999997e-01,	 1.1622470058482007e-02,	 1.7357853225986705e+03,	 1.2149529898331357e+00,	 3.0036872807509519e+02,	 1.0043453866342694e+03,	 3.4782143645063445e+02,	 4.9904507482668237e+00 
2.0168800000000001e-01,	 3.0564799999999998e-01,	 1.1627483296029889e-02,	 1.7357591356153350e+03,	 1.3600743618371403e+00,	 3.0041862381640362e+02,	 1.0049455098508055e+03,	 3.4785032442419680e+02,	 4.9899613327645209e+00 
2.0618600000000001e-01,	 3.0563269999999998e-01,	 1.1630545919769716e-02,	 1.7357435798033594e+03,	 1.4391738712043440e+00,	 3.0044783007667331e+02,	 1.0053079327830925e+03,	 3.4786723276375358e+02,	 4.9896742577652580e+00 
2.1068400000000001e-01,	 3.0561729999999998e-01,	 1.1631937502232912e-02,	 1.7357371876258135e+03,	 1.4643447232167572e+00,	 3.0046036019630168e+02,	 1.0054701480018442e+03,	 3.4787448655652560e+02,	 4.9895518998823727e+00 
2.1518200000000001e-01,	 3.0560199999999998e-01,	 1.1631949874829852e-02,	 1.7357385692212808e+03,	 1.4470682119312674e+00,	 3.0045680537391297e+02,	 1.0054593215110833e+03,	 3.4787242865499371e+02,	 4.9895853463739090e+00 
2.1967999999999999e-01,	 3.0558669999999999e-01,	 1.1630784742240543e-02,	 1.7357459472012288e+03,	 1.3978117798823058e+00,	 3.0044412329951228e+02,	 1.0053161726006809e+03,	 3.4786508684995158e+02,	 4.9897117464536409e+00 
2.2417799999999999e-01,	 3.0557129999999999e-01,	 1.1628863196658581e-02,	 1.7357577598036576e+03,	 1.3243791347997400e+00,	 3.0042537191809919e+02,	 1.0050873486359209e+03,	 3.4785423116631677e+02,	 4.9899012561465153e+00 
2.2867599999999999e-01,	 3.0555599999999999e-01,	 1.1626443172595705e-02,	 1.7357729604431356e+03,	 1.2362219512363872e+00,	 3.0039883549548949e+02,	 1.0047894245908365e+03,	 3.4783886793205829e+02,	 4.9901651617677789e+00 
2.3317399999999999e-01,	 3.0554070000000000e-01,	 1.1623556124137705e-02,	 1.7357903909705510e+03,	 1.1385188098030419e+00,	 3.0036827635029732e+02,	 1.0044377274524234e+03,	 3.4782117490605197e+02,	 4.9904689236391526e+00 
2.3767199999999999e-01,	 3.0552530000000000e-01,	 1.1620431789607042e-02,	 1.7358090713421532e+03,	 1.0350684464106659e+00,	 3.0033546199457112e+02,	 1.0040580388869624e+03,	 3.4780217516406555e+02,	 4.9907950665650800e+00 
2.4217000000000000e-01,	 3.0551000000000000e-01,	 1.1617222172591198e-02,	 1.7358282429225455e+03,	 9.3174020023645499e-01,	 3.0030177297441736e+02,	 1.0036681180211988e+03,	 3.4778266790539845e+02,	 4.9911299589538558e+00 
2.4666800000000000e-01,	 3.0549470000000001e-01,	 1.1614031823787377e-02,	 1.7358473010137964e+03,	 8.3098820450937538e-01,	 3.0026830091307590e+02,	 1.0032806487790824e+03,	 3.4776328519067607e+02,	 4.9914627962183511e+00 
2.5116600000000000e-01,	 3.0547930000000001e-01,	 1.1610941676862659e-02,	 1.7358657605891976e+03,	 7.3495679808572500e-01,	 3.0023588368887278e+02,	 1.0029054195462853e+03,	 3.4774451227218532e+02,	 4.9917852185083476e+00 
2.5566400000000000e-01,	 3.0546400000000001e-01,	 1.1608014600869266e-02,	 1.7358832550405557e+03,	 6.4500012862816136e-01,	 3.0020518028975357e+02,	 1.0025500552319278e+03,	 3.4772673090074852e+02,	 4.9920906867726513e+00 
2.6016200000000000e-01,	 3.0544869999999996e-01,	 1.1605287272966960e-02,	 1.7358995651362532e+03,	 5.6209500259462108e-01,	 3.0017657518432395e+02,	 1.0022189982277854e+03,	 3.4771016390356260e+02,	 4.9923753641628359e+00 
2.6466000000000001e-01,	 3.0543329999999996e-01,	 1.1602782876328138e-02,	 1.7359145534231725e+03,	 4.8674392868901534e-01,	 3.0015030601992021e+02,	 1.0019150338353336e+03,	 3.4769494909991033e+02,	 4.9926368679141815e+00 
2.6915800000000001e-01,	 3.0541799999999997e-01,	 1.1600512517428116e-02,	 1.7359281525642491e+03,	 4.1909359449659389e-01,	 3.0012648630941101e+02,	 1.0016394897696808e+03,	 3.4768115241673740e+02,	 4.9928740487865770e+00 
2.7365600000000001e-01,	 3.0540269999999997e-01,	 1.1598477602418380e-02,	 1.7359403464436134e+03,	 3.5898994855242194e-01,	 3.0010513562098151e+02,	 1.0013925431196120e+03,	 3.4766878535764454e+02,	 4.9930866867359507e+00 
2.7815400000000001e-01,	 3.0538729999999997e-01,	 1.1596673638127188e-02,	 1.7359511663306689e+03,	 3.0609755316335130e-01,	 3.0008620063834144e+02,	 1.0011736194234657e+03,	 3.4765781719103143e+02,	 4.9932753054238033e+00 
2.8265200000000001e-01,	 3.0537199999999998e-01,	 1.1595090347638358e-02,	 1.7359606770181251e+03,	 2.5997595092105735e-01,	 3.0006956918748500e+02,	 1.0009814497658369e+03,	 3.4764818306922740e+02,	 4.9934410160266181e+00 
2.8715000000000002e-01,	 3.0535669999999998e-01,	 1.1593712174641746e-02,	 1.7359689614870763e+03,	 2.2010162850715376e-01,	 3.0005508690082354e+02,	 1.0008141700666226e+03,	 3.4763979367904750e+02,	 4.9935853346035630e+00 
2.9164800000000002e-01,	 3.0534129999999998e-01,	 1.1592523308309744e-02,	 1.7359761198327758e+03,	 1.8590998362387492e-01,	 3.0004258044190283e+02,	 1.0006698323166370e+03,	 3.4763254869588667e+02,	 4.9937099857303924e+00 
2.9614600000000002e-01,	 3.0532599999999999e-01,	 1.1591506299400247e-02,	 1.7359822560878349e+03,	 1.5682399732340832e-01,	 3.0003186665136548e+02,	 1.0005463154747026e+03,	 3.4762634208422230e+02,	 4.9938167883456162e+00 
3.0064400000000002e-01,	 3.0531069999999999e-01,	 1.1590642531316205e-02,	 1.7359874738339984e+03,	 1.3226485127818915e-01,	 3.0002275774444854e+02,	 1.0004413833154856e+03,	 3.4762106511137739e+02,	 4.9939075996916875e+00 
3.0514200000000002e-01,	 3.0529529999999999e-01,	 1.1589915505404662e-02,	 1.7359918800299206e+03,	 1.1168617281819779e-01,	 3.0001507127317467e+02,	 1.0003530010551649e+03,	 3.4761661212176881e+02,	 4.9939842432343555e+00 
3.0964000000000003e-01,	 3.0528000000000000e-01,	 1.1589308347606901e-02,	 1.7359955726730564e+03,	 9.4574685065863015e-02,	 3.0000863381562334e+02,	 1.0002791322667659e+03,	 3.4761288267714571e+02,	 4.9940484422769700e+00 
3.1413799999999997e-01,	 3.0526470000000000e-01,	 1.1588804865453538e-02,	 1.7359986431075670e+03,	 8.0454132107858969e-02,	 3.0000328120465815e+02,	 1.0002178307366313e+03,	 3.4760978169167902e+02,	 4.9941018245328319e+00 
3.1863599999999997e-01,	 3.0524930000000000e-01,	 1.1588391324662189e-02,	 1.7360011788879310e+03,	 6.8896972977506007e-02,	 2.9999886354207422e+02,	 1.0001674103932415e+03,	 3.4760722233903891e+02,	 4.9941458884933185e+00 
3.2313399999999998e-01,	 3.0523400000000001e-01,	 1.1588054722363517e-02,	 1.7360032569937384e+03,	 5.9517717690578259e-02,	 2.9999524604796471e+02,	 1.0001262989950221e+03,	 3.4760512654631628e+02,	 4.9941819767226274e+00 
3.2763199999999998e-01,	 3.0521870000000001e-01,	 1.1587783060353182e-02,	 1.7360049461120425e+03,	 5.1976508730772336e-02,	 2.9999230617201488e+02,	 1.0000930520045393e+03,	 3.4760342332190083e+02,	 4.9942113063785847e+00 
3.3212999999999998e-01,	 3.0520330000000001e-01,	 1.1587577689791635e-02,	 1.7360063021543656e+03,	 4.5961211730412302e-02,	 2.9998993640347368e+02,	 1.0000674273049054e+03,	 3.4760205038455001e+02,	 4.9942349328556892e+00 
3.3662799999999998e-01,	 3.0518800000000001e-01,	 1.1587408272792168e-02,	 1.7360073925430793e+03,	 4.1202601897908975e-02,	 2.9998804747979881e+02,	 1.0000465087923573e+03,	 3.4760095602321269e+02,	 4.9942537928926258e+00 
3.4112599999999998e-01,	 3.0517269999999996e-01,	 1.1587263946408610e-02,	 1.7360082599308762e+03,	 3.7542654587204669e-02,	 2.9998654933252385e+02,	 1.0000290585698588e+03,	 3.4760008805850612e+02,	 4.9942687587715078e+00 
3.4562399999999999e-01,	 3.0515729999999996e-01,	 1.1587161660805610e-02,	 1.7360089319875376e+03,	 3.4764674095446008e-02,	 2.9998537798797008e+02,	 1.0000163261611069e+03,	 3.4759940942830019e+02,	 4.9942804425095515e+00 
3.5012199999999999e-01,	 3.0514199999999997e-01,	 1.1587086598094406e-02,	 1.7360094534128823e+03,	 3.2701693157571571e-02,	 2.9998447598531584e+02,	 1.0000068411106357e+03,	 3.4759888684312000e+02,	 4.9942894509451987e+00 
3.5461999999999999e-01,	 3.0512669999999997e-01,	 1.1587021484070207e-02,	 1.7360098538275327e+03,	 3.1205371883774990e-02,	 2.9998379299099281e+02,	 9.9999894477010230e+02,	 3.4759849114230792e+02,	 4.9942962882346587e+00 
3.5911799999999999e-01,	 3.0511129999999997e-01,	 1.1586979084889634e-02,	 1.7360101492430690e+03,	 3.0148499150930329e-02,	 2.9998328311065285e+02,	 9.9999358589320116e+02,	 3.4759819573682887e+02,	 4.9943013824479472e+00 
3.6361599999999999e-01,	 3.0509599999999998e-01,	 1.1586966819719579e-02,	 1.7360103506746582e+03,	 2.9497804226687623e-02,	 2.9998292494145261e+02,	 9.9999133341460856e+02,	 3.4759798822692426e+02,	 4.9943049434219926e+00 
3.6811400000000000e-01,	 3.0508069999999998e-01,	 1.1586960565993501e-02,	 1.7360104895938023e+03,	 2.9179361437135908e-02,	 2.9998268450050710e+02,	 9.9998999219050665e+02,	 3.4759784892431941e+02,	 4.9943073445687576e+00 
3.7261200000000000e-01,	 3.0506529999999998e-01,	 1.1586958807853372e-02,	 1.7360105789264121e+03,	 2.9106589502772069e-02,	 2.9998253459719029e+02,	 9.9998934075616990e+02,	 3.4759776207584503e+02,	 4.9943088494097507e+00 
3.7711000000000000e-01,	 3.0504999999999999e-01,	 1.1586963736043763e-02,	 1.7360106269934186e+03,	 2.9241967024636259e-02,	 2.9998245559474310e+02,	 9.9998950271967237e+02,	 3.4759771630472090e+02,	 4.9943096453425166e+00 
3.8160800000000000e-01,	 3.0503469999999999e-01,	 1.1586973766013973e-02,	 1.7360106407289115e+03,	 2.9511572789095587e-02,	 2.9998243257404124e+02,	 9.9999029159657198e+02,	 3.4759770296736838e+02,	 4.9943098765032037e+00 
3.8610600000000000e-01,	 3.0501929999999999e-01,	 1.1586988646824014e-02,	 1.7360106280658870e+03,	 2.9880858759708025e-02,	 2.9998245634756313e+02,	 9.9999165510377486e+02,	 3.4759771674087733e+02,	 4.9943096421924604e+00 
3.9060400000000001e-01,	 3.0500400000000000e-01,	 1.1587007379465861e-02,	 1.7360105972357330e+03,	 3.0358411502778158e-02,	 2.9998251762367141e+02,	 9.9999347605086393e+02,	 3.4759775224201042e+02,	 4.9943090434385313e+00 
3.9510200000000001e-01,	 3.0498870000000000e-01,	 1.1587028763498305e-02,	 1.7360105447229137e+03,	 3.0930475429747778e-02,	 2.9998260658317059e+02,	 9.9999561810453338e+02,	 3.4759780378188003e+02,	 4.9943081518657007e+00 
3.9960000000000001e-01,	 3.0497330000000000e-01,	 1.1587052171587437e-02,	 1.7360104850967471e+03,	 3.1601193478750296e-02,	 2.9998271345733559e+02,	 9.9999799456043570e+02,	 3.4759786570083946e+02,	 4.9943070907071396e+00 
4.0409800000000001e-01,	 3.0495800000000001e-01,	 1.1587077398821363e-02,	 1.7360104168531559e+03,	 3.2340209024914024e-02,	 2.9998283522763847e+02,	 1.0000005776722485e+03,	 3.4759793625005983e+02,	 4.9943058807619449e+00 
4.0859600000000001e-01,	 3.0494270000000001e-01,	 1.1587104305878691e-02,	 1.7360103344044351e+03,	 3.3115265656333687e-02,	 2.9998297684289776e+02,	 1.0000033719136685e+03,	 3.4759801829669760e+02,	 4.9943044647581454e+00 
4.1309400000000002e-01,	 3.0492730000000001e-01,	 1.1587133784774809e-02,	 1.7360102384489667e+03,	 3.3894281280707872e-02,	 2.9998314269721050e+02,	 1.0000064689170318e+03,	 3.4759811438652093e+02,	 4.9943028081258349e+00 
4.1759200000000002e-01,	 3.0491200000000002e-01,	 1.1587165758197768e-02,	 1.7360101335126105e+03,	 3.4683453714465795e-02,	 2.9998332848444659e+02,	 1.0000098476563458e+03,	 3.4759822202470747e+02,	 4.9943009597318406e+00 
4.2209000000000002e-01,	 3.0489669999999996e-01,	 1.1587198777178566e-02,	 1.7360100192748821e+03,	 3.5492774325955018e-02,	 2.9998352824375166e+02,	 1.0000133632108967e+03,	 3.4759833775775178e+02,	 4.9942989682751806e+00 
4.2658800000000002e-01,	 3.0488129999999997e-01,	 1.1587233012123745e-02,	 1.7360099012710943e+03,	 3.6332488672024363e-02,	 2.9998373643754832e+02,	 1.0000170118280124e+03,	 3.4759845837738300e+02,	 4.9942968957777367e+00 
4.3108600000000002e-01,	 3.0486599999999997e-01,	 1.1587268029684825e-02,	 1.7360097820847977e+03,	 3.7214254325794574e-02,	 2.9998394843557952e+02,	 1.0000207406733725e+03,	 3.4759858120100120e+02,	 4.9942947882166795e+00 