TITLE = "Final State"
VARIABLES = "X", "Y", "rho", "u", "v", "T", "p", "c", "M"
ZONE I=76, J=15, DATAPACKING=POINT, STRANDID=32000, SOLUTIONTIME=0.001153
2.5993110000000003e-01,	 2.5656729999999999e-02,	 4.0681934555929672e-01,	 1.5828865532819998e+02,	 5.1481289387877514e+00,	 8.4463392345170848e+02,	 9.8855321876873219e+04,	 5.8326141441780021e+02,	 2.7152893595361505e-01 
2.6222580000000001e-01,	 2.5695610000000001e-02,	 3.9402845221839533e-01,	 1.5262413869540904e+02,	 5.5514918164415317e+00,	 8.7215841299743352e+02,	 9.8867350220130218e+04,	 5.9268873627586993e+02,	 2.5768174741793914e-01 
2.6454090000000002e-01,	 2.5734830000000000e-02,	 3.7439521295969691e-01,	 1.4516340327998699e+02,	 6.4750970673860149e+00,	 9.1786669558081041e+02,	 9.8864377598453939e+04,	 6.0802129852598773e+02,	 2.3898462863800965e-01 
2.6687640000000001e-01,	 2.5774399999999999e-02,	 3.5962195436094235e-01,	 1.3910420494562192e+02,	 7.5039426045798212e+00,	 9.5568375539199587e+02,	 9.8875874663341936e+04,	 6.2042042740225872e+02,	 2.2453557449355213e-01 
2.6923279999999999e-01,	 2.5814319999999998e-02,	 3.4998318053014688e-01,	 1.3467068672665295e+02,	 8.4373112349757200e+00,	 9.8226446247223566e+02,	 9.8902106789449186e+04,	 6.2898922032329426e+02,	 2.1452630398643355e-01 
2.7161010000000002e-01,	 2.5854599999999998e-02,	 3.4467497555168525e-01,	 1.3179472175010045e+02,	 9.2064656942077843e+00,	 9.9789391543473494e+02,	 9.8951883565751617e+04,	 6.3397360078419376e+02,	 2.0839335769219317e-01 
2.7400859999999999e-01,	 2.5895229999999998e-02,	 3.4225552336798915e-01,	 1.3024490061026211e+02,	 9.8455515484541927e+00,	 1.0054952279626350e+03,	 9.9005749724822817e+04,	 6.3638362108686147e+02,	 2.0524804794621399e-01 
2.7642860000000002e-01,	 2.5936230000000001e-02,	 3.4136592033683127e-01,	 1.2969097475775970e+02,	 1.0257106544320600e+01,	 1.0086375285988655e+03,	 9.9057011729418169e+04,	 6.3737723532902680e+02,	 2.0411139037565390e-01 
2.7887030000000002e-01,	 2.5977600000000000e-02,	 3.4108228575373772e-01,	 1.2977409824940028e+02,	 1.0431477856820898e+01,	 1.0099069280658148e+03,	 9.9099269631980816e+04,	 6.3777818804755736e+02,	 2.0413472304750835e-01 
2.8133390000000003e-01,	 2.6019339999999998e-02,	 3.4093366014455440e-01,	 1.3026298460298256e+02,	 1.0398486187506471e+01,	 1.0106352980577972e+03,	 9.9127529128540235e+04,	 6.3800813733883354e+02,	 2.0482084343182572e-01 
2.8381970000000001e-01,	 2.6061459999999998e-02,	 3.4072613408045083e-01,	 1.3087803546978722e+02,	 1.0182799969461115e+01,	 1.0113970624922997e+03,	 9.9141861981976108e+04,	 6.3824854075673443e+02,	 2.0567781881784702e-01 
2.8632780000000002e-01,	 2.6103950000000001e-02,	 3.4041658632228544e-01,	 1.3145051807943804e+02,	 9.8154961479317286e+00,	 1.0123314316156384e+03,	 9.9143300176952587e+04,	 6.3854329248182046e+02,	 2.0643310325822722e-01 
2.8885860000000002e-01,	 2.6146829999999999e-02,	 3.4003922671235021e-01,	 1.3185448419525241e+02,	 9.3190055923342392e+00,	 1.0133397256210819e+03,	 9.9132035978095097e+04,	 6.3886121165128236e+02,	 2.0690470579883777e-01 
2.9141220000000001e-01,	 2.6190089999999999e-02,	 3.3967985667887030e-01,	 1.3201820365427051e+02,	 8.7281479925469476e+00,	 1.0141756984520733e+03,	 9.9108962735291832e+04,	 6.3912467734784752e+02,	 2.0701189723437072e-01 
2.9398890000000000e-01,	 2.6233750000000000e-02,	 3.3946684807241978e-01,	 1.3193075924299413e+02,	 8.0814522753165363e+00,	 1.0144763974029104e+03,	 9.9076179831474481e+04,	 6.3921941925345902e+02,	 2.0678039374749396e-01 
2.9658899999999999e-01,	 2.6277800000000000e-02,	 3.3955687974443793e-01,	 1.3161174563168163e+02,	 7.3502315563291836e+00,	 1.0137312547620130e+03,	 9.9029664607933402e+04,	 6.3898461973371082e+02,	 2.0629108908556870e-01 
2.9921280000000000e-01,	 2.6322249999999998e-02,	 3.4022976847330472e-01,	 1.3104949471186171e+02,	 6.4500714656161264e+00,	 1.0111087675287500e+03,	 9.8969214497345907e+04,	 6.3815756908947901e+02,	 2.0560459793488559e-01 
3.0186030000000003e-01,	 2.6367109999999999e-02,	 3.4195913773394498e-01,	 1.3026765218086831e+02,	 5.3445231858054765e+00,	 1.0052836532190364e+03,	 9.8899198362844880e+04,	 6.3631666413804192e+02,	 2.0489364646451338e-01 
3.0453200000000002e-01,	 2.6412370000000001e-02,	 3.4536237577239270e-01,	 1.2940893054923748e+02,	 4.1220862738507469e+00,	 9.9464933544191695e+02,	 9.8826851037199274e+04,	 6.3294210195354947e+02,	 2.0455988673905495e-01 
3.0722810000000000e-01,	 2.6458050000000000e-02,	 3.5133795989399291e-01,	 1.2876840946916860e+02,	 2.9620599692017922e+00,	 9.7714931686850196e+02,	 9.8767928532815873e+04,	 6.2734935085422103e+02,	 2.0531219634460238e-01 
3.0994880000000002e-01,	 2.6504150000000001e-02,	 3.6081853479413234e-01,	 1.2869594972630716e+02,	 1.9287281451355693e+00,	 9.5107245049082803e+02,	 9.8726190134262477e+04,	 6.1892181072657422e+02,	 2.0795906578730539e-01 
3.1269439999999998e-01,	 2.6550660000000000e-02,	 3.7393267242605366e-01,	 1.2931954288869758e+02,	 9.5383868167140917e-01,	 9.1741840325917155e+02,	 9.8694010817449918e+04,	 6.0787279952805045e+02,	 2.1274691122254891e-01 
3.1546520000000000e-01,	 2.6597610000000001e-02,	 3.9010520753306599e-01,	 1.3055338234297113e+02,	 2.8869326344149793e-02,	 8.7917561809772860e+02,	 9.8670498120690827e+04,	 5.9506828464568707e+02,	 2.1939227632110825e-01 
3.1826130000000002e-01,	 2.6644979999999999e-02,	 4.0870184060282300e-01,	 1.3229782290867053e+02,	 -8.3554050536977542e-01,	 8.3900736141560651e+02,	 9.8651184091225412e+04,	 5.8131545883408717e+02,	 2.2758806658728958e-01 
3.2108320000000001e-01,	 2.6692790000000001e-02,	 4.2902925348442866e-01,	 1.3445838710891809e+02,	 -1.6157175436790783e+00,	 7.9915224902056093e+02,	 9.8638479528784141e+04,	 5.6734045100057097e+02,	 2.3701481913776068e-01 
3.2393100000000002e-01,	 2.6741040000000001e-02,	 4.5029913107593755e-01,	 1.3694996756688397e+02,	 -2.3252934439356370e+00,	 7.6133669100235988e+02,	 9.8629721449552264e+04,	 5.5375462521148631e+02,	 2.4734729184432569e-01 
3.2680500000000001e-01,	 2.6789729999999998e-02,	 4.7167288396402296e-01,	 1.3967294840864594e+02,	 -2.9849683306820012e+00,	 7.2678164287270624e+02,	 9.8622225048224151e+04,	 5.4104197684410383e+02,	 2.5821442109022763e-01 
3.2970559999999999e-01,	 2.6838870000000001e-02,	 4.9233766450091809e-01,	 1.4253878949821814e+02,	 -3.5781703485476282e+00,	 6.9625684104371635e+02,	 9.8619426799952693e+04,	 5.2955823285226961e+02,	 2.6925026413445030e-01 
3.3263290000000001e-01,	 2.6888470000000001e-02,	 5.1155254325289223e-01,	 1.4547663089342774e+02,	 -4.0994530730129064e+00,	 6.7012806774664045e+02,	 9.8622951144732215e+04,	 5.1952672228310826e+02,	 2.8012876600687447e-01 
3.3558729999999998e-01,	 2.6938520000000001e-02,	 5.2869890399572350e-01,	 1.4843212183780736e+02,	 -4.5628814282933750e+00,	 6.4845204741936129e+02,	 9.8631630683761774e+04,	 5.1105532695413672e+02,	 2.9057957158705572e-01 
3.3856900000000001e-01,	 2.6989039999999999e-02,	 5.4330859907908013e-01,	 1.5134301437529999e+02,	 -4.9719293111747849e+00,	 6.3111405604439187e+02,	 9.8647110570597099e+04,	 5.0417686442725807e+02,	 3.0034036086897897e-01 
3.4157840000000000e-01,	 2.7040019999999998e-02,	 5.5502521752000811e-01,	 1.5416586710919049e+02,	 -5.3018542143583574e+00,	 6.1794884846282559e+02,	 9.8672283856307753e+04,	 4.9889051853946216e+02,	 3.0920011779781365e-01 
3.4461560000000002e-01,	 2.7091480000000001e-02,	 5.6359698038815398e-01,	 1.5687603052799147e+02,	 -5.5342290477726177e+00,	 6.0877073440588174e+02,	 9.8708002038133651e+04,	 4.9517176129649874e+02,	 3.1700841999162743e-01 
3.4768110000000002e-01,	 2.7143419999999998e-02,	 5.6888383185181979e-01,	 1.5945109803412635e+02,	 -5.6484542872315338e+00,	 6.0340043440092518e+02,	 9.8755012180499485e+04,	 4.9298283253936864e+02,	 3.2364435959226373e-01 
3.5077510000000001e-01,	 2.7195839999999999e-02,	 5.7086216042054128e-01,	 1.6188402158089690e+02,	 -5.6173989445389036e+00,	 6.0166634404110823e+02,	 9.8813643452920529e+04,	 4.9227394022459066e+02,	 3.2904738866263694e-01 
3.5389789999999999e-01,	 2.7248749999999999e-02,	 5.6963061188597863e-01,	 1.6418478070491881e+02,	 -5.4032557295295174e+00,	 6.0339294211591016e+02,	 9.8883421138107864e+04,	 4.9297977190239862e+02,	 3.3322597701659978e-01 
3.5704979999999997e-01,	 2.7302150000000001e-02,	 5.6541918369724287e-01,	 1.6639953331023418e+02,	 -4.9775279773035459e+00,	 6.0836651548806117e+02,	 9.8961388286309462e+04,	 4.9500733894584778e+02,	 3.3630605092850185e-01 
3.6023110000000003e-01,	 2.7356050000000000e-02,	 5.5859480412953721e-01,	 1.6858777979573969e+02,	 -4.3478190835226584e+00,	 6.1630609764075916e+02,	 9.9042887610295482e+04,	 4.9822695373954849e+02,	 3.3848797935837216e-01 
3.6344209999999999e-01,	 2.7410449999999999e-02,	 5.4965141241581450e-01,	 1.7081719768548601e+02,	 -3.5289208165934856e+00,	 6.2685005772287491e+02,	 9.9124487737843141e+04,	 5.0247079181406247e+02,	 3.4002701978695904e-01 
3.6668309999999998e-01,	 2.7465359999999998e-02,	 5.3916952123929918e-01,	 1.7317311498974681e+02,	 -2.5434463454819802e+00,	 6.3955409400528924e+02,	 9.9204770047195605e+04,	 5.0753690647104435e+02,	 3.4123979943212318e-01 
3.6995440000000002e-01,	 2.7520779999999998e-02,	 5.2772301170058822e-01,	 1.7575755351115129e+02,	 -1.5532072550898515e+00,	 6.5384992812878818e+02,	 9.9269092140772482e+04,	 5.1317799633014931e+02,	 3.4250185636791319e-01 
3.7325639999999999e-01,	 2.7576730000000001e-02,	 5.1591368942120730e-01,	 1.7855100450410885e+02,	 -7.1972858332105893e-01,	 6.6913459862641957e+02,	 9.9316287161027067e+04,	 5.1914147861447975e+02,	 3.4393794841150960e-01 
3.7658930000000002e-01,	 2.7633189999999998e-02,	 5.0429974702655089e-01,	 1.8155671238612535e+02,	 -2.4379757477004521e-02,	 6.8486173583775110e+02,	 9.9362289522296283e+04,	 5.2520691768963127e+02,	 3.4568606754394282e-01 
3.7995350000000000e-01,	 2.7690190000000000e-02,	 4.9327012674878362e-01,	 1.8484129442544815e+02,	 5.1828617928494225e-01,	 7.0051676827562528e+02,	 9.9410735641114923e+04,	 5.3117576776719409e+02,	 3.4798654657360956e-01 
3.8334930000000000e-01,	 2.7747720000000000e-02,	 4.8311263446722691e-01,	 1.8846740816120035e+02,	 8.6266621305597857e-01,	 7.1561450663853759e+02,	 9.9462064316386372e+04,	 5.3686928051342193e+02,	 3.5105264786003199e-01 
3.8677699999999998e-01,	 2.7805799999999999e-02,	 4.7405446557421471e-01,	 1.9247822370032870e+02,	 9.8162276717777386e-01,	 7.2971886094165939e+02,	 9.9520775374661040e+04,	 5.4213415901102042e+02,	 3.5504260999158771e-01 
3.9023700000000000e-01,	 2.7864420000000001e-02,	 4.6625422006700101e-01,	 1.9691439924860683e+02,	 8.7441506260123281e-01,	 7.4245200608266077e+02,	 9.9591230456055448e+04,	 5.4684365715318711e+02,	 3.6009623247935951e-01 
3.9372950000000001e-01,	 2.7923589999999998e-02,	 4.5981055237756585e-01,	 2.0181631302334677e+02,	 5.5179423020886287e-01,	 7.5350406383548841e+02,	 9.9676887944943330e+04,	 5.5089874883279060e+02,	 3.6634148796146893e-01 
3.9725490000000002e-01,	 2.7983319999999999e-02,	 4.5477090010965365e-01,	 2.0722319114451852e+02,	 3.0122331566324906e-02,	 7.6264316684750702e+02,	 9.9780112242130257e+04,	 5.5422955105174560e+02,	 3.7389416161695965e-01 
4.0081359999999999e-01,	 2.8043610000000000e-02,	 4.5113385022642050e-01,	 2.1316784460337578e+02,	 -6.8820567973641245e-01,	 7.6972268362128943e+02,	 9.9900954533769007e+04,	 5.5679602895873211e+02,	 3.8284927413064024e-01 
4.0440589999999998e-01,	 2.8104469999999999e-02,	 4.4885871920996989e-01,	 2.1966554284242295e+02,	 -1.6087113987234951e+00,	 7.7469688058450515e+02,	 1.0003947653794775e+05,	 5.5859222974705892e+02,	 3.9325902103610277e-01 
4.0803210000000001e-01,	 2.8165909999999999e-02,	 4.4792127503375478e-01,	 2.2672614030473244e+02,	 -2.7434861947267253e+00,	 7.7763528713236553e+02,	 1.0020919831932608e+05,	 5.5965059052733704e+02,	 4.0515053898076869e-01 
4.1169260000000002e-01,	 2.8227929999999998e-02,	 4.4789960290518238e-01,	 2.3428841485870026e+02,	 -4.1183852709789379e+00,	 7.7877929587241942e+02,	 1.0035176423494113e+05,	 5.6006210083193935e+02,	 4.1839040485199691e-01 
4.1538779999999997e-01,	 2.8290529999999998e-02,	 4.4906809394098968e-01,	 2.4230553998737849e+02,	 -5.7854283876775874e+00,	 7.7827975485885861e+02,	 1.0054902661072080e+05,	 5.5988244860568261e+02,	 4.3290265462179478e-01 
4.1911789999999999e-01,	 2.8353730000000001e-02,	 4.5098480112830519e-01,	 2.5077851248312396e+02,	 -7.7210034512080092e+00,	 7.7652292639671600e+02,	 1.0075024844493894e+05,	 5.5925017394617748e+02,	 4.4863167447836511e-01 
4.2288340000000002e-01,	 2.8417519999999998e-02,	 4.5346275333717934e-01,	 2.5964332465868739e+02,	 -9.8562579616427612e+00,	 7.7395753328825981e+02,	 1.0096914760545910e+05,	 5.5832561434603235e+02,	 4.6537419412275471e-01 
4.2668450000000002e-01,	 2.8481920000000001e-02,	 4.5620520915579421e-01,	 2.6891116582005532e+02,	 -1.2147981817315213e+01,	 7.7106893759748141e+02,	 1.0120066944762439e+05,	 5.5728273762033689e+02,	 4.8303203837118380e-01 
4.3052180000000001e-01,	 2.8546940000000000e-02,	 4.5890465529719893e-01,	 2.7858905136237627e+02,	 -1.4559980670758215e+01,	 7.6833497256739952e+02,	 1.0143854294190812e+05,	 5.5629388669895638e+02,	 5.0147822010507048e-01 
4.3439539999999999e-01,	 2.8612559999999999e-02,	 4.6126967009709596e-01,	 2.8869710394472747e+02,	 -1.7055915545290517e+01,	 7.6618748778573763e+02,	 1.0167633708919270e+05,	 5.5551592616598350e+02,	 5.2059801361188141e-01 
4.3830590000000003e-01,	 2.8678820000000001e-02,	 4.6305952809882783e-01,	 2.9927877693961983e+02,	 -1.9603713625902536e+01,	 7.6496761827313162e+02,	 1.0190836028483484e+05,	 5.5507352342696697e+02,	 5.4032507389346984e-01 
4.4225360000000002e-01,	 2.8745699999999999e-02,	 4.6413205879493813e-01,	 3.1028812362593976e+02,	 -2.2056169753082017e+01,	 7.6505001195361433e+02,	 1.0215540055820599e+05,	 5.5510341575051450e+02,	 5.6038394823072379e-01 
4.4623879999999999e-01,	 2.8813220000000000e-02,	 4.6362759657354746e-01,	 3.2174150564681486e+02,	 -2.4447380222344968e+01,	 7.6665163065904756e+02,	 1.0225799658005867e+05,	 5.5568416156889020e+02,	 5.8066974484397493e-01 
4.5026200000000000e-01,	 2.8881379999999998e-02,	 4.6259233587663706e-01,	 3.3390601935789743e+02,	 -2.6644094203990534e+01,	 7.6974852705865146e+02,	 1.0244180858124881e+05,	 5.5680537609298187e+02,	 6.0158788371081628e-01 
4.5432339999999999e-01,	 2.8950190000000001e-02,	 4.6011185010578537e-01,	 3.4693430740611950e+02,	 -2.8563365985538582e+01,	 7.7457139141046002e+02,	 1.0253090918319341e+05,	 5.5854698616973189e+02,	 6.2323878216732609e-01 
4.5842359999999999e-01,	 2.9019659999999999e-02,	 4.5627037051913660e-01,	 3.6081289322191316e+02,	 -3.0106841685139592e+01,	 7.8120260032429428e+02,	 1.0254532951683551e+05,	 5.6093278835431647e+02,	 6.4547269296550824e-01 
4.6256300000000000e-01,	 2.9089790000000001e-02,	 4.5104536019780284e-01,	 3.7574982574171236e+02,	 -3.1201914112445408e+01,	 7.8961511164711544e+02,	 1.0246265579074403e+05,	 5.6394495026688492e+02,	 6.6858137280379626e-01 
4.6674179999999998e-01,	 2.9160590000000000e-02,	 4.4442574215280317e-01,	 3.9201758424580879e+02,	 -3.1845634108020072e+01,	 7.9970062406057173e+02,	 1.0224841363188588e+05,	 5.6753507098048090e+02,	 6.9301259234629942e-01 
4.7096050000000000e-01,	 2.9232060000000001e-02,	 4.3641540499782772e-01,	 4.0993312993214295e+02,	 -3.2112013178006805e+01,	 8.1127099534134436e+02,	 1.0185819105854190e+05,	 5.7162598300097432e+02,	 7.1933215422297447e-01 
4.7521950000000002e-01,	 2.9304219999999999e-02,	 4.2700631371036479e-01,	 4.2985217476241132e+02,	 -3.2175602910289840e+01,	 8.2404876011755027e+02,	 1.0123184316646903e+05,	 5.7611003717163101e+02,	 7.4821593187809987e-01 
4.7951919999999998e-01,	 2.9377069999999998e-02,	 4.1617811547435007e-01,	 4.5210714058627707e+02,	 -3.2278366299080538e+01,	 8.3769093475629472e+02,	 1.0029816614558650e+05,	 5.8085922947495555e+02,	 7.8032321130077342e-01 
4.8386010000000002e-01,	 2.9450609999999999e-02,	 4.0392380520441551e-01,	 4.7700085584068921e+02,	 -3.2583938171250757e+01,	 8.5182764719118563e+02,	 9.8987673699884443e+04,	 5.8573995884207091e+02,	 8.1625379677105947e-01 
4.8824250000000002e-01,	 2.9524860000000000e-02,	 3.9021834821276580e-01,	 5.0485404634908105e+02,	 -3.3158400323752687e+01,	 8.6603254259529933e+02,	 9.7223630722668502e+04,	 5.9060360345256936e+02,	 8.5665204188741473e-01 
4.9266690000000002e-01,	 2.9599819999999999e-02,	 3.7505301063553104e-01,	 5.3597277541046537e+02,	 -3.3942632256633317e+01,	 8.7973834029518866e+02,	 9.4924018006966566e+04,	 5.9525869288778358e+02,	 9.0220686104639480e-01 
4.9713360000000001e-01,	 2.9675500000000000e-02,	 3.5863319533030935e-01,	 5.7101501684191726e+02,	 -3.4330904437895455e+01,	 8.9194289123047588e+02,	 9.2027467672427214e+04,	 5.9937346300252784e+02,	 9.5440681433770214e-01 
5.0164319999999996e-01,	 2.9751899999999998e-02,	 3.4159727797492712e-01,	 6.1053348165750072e+02,	 -3.2642078657204962e+01,	 9.0141170092019820e+02,	 8.8586497289167819e+04,	 6.0254651950376660e+02,	 1.0147025018521232e+00 
5.0619599999999998e-01,	 2.9829040000000001e-02,	 3.3332096125149874e-01,	 6.3370487548813537e+02,	 -3.0442997803834054e+01,	 9.0827177544341544e+02,	 8.7098039947153884e+04,	 6.0483497405605942e+02,	 1.0489401533909424e+00 
2.5992599999999999e-01,	 2.6153179999999998e-02,	 3.9153911865509494e-01,	 1.5411336363353007e+02,	 6.6026088640909730e+00,	 8.7884479322207324e+02,	 9.8995916444786722e+04,	 5.9495631502884851e+02,	 2.5927069127990005e-01 
2.6222069999999997e-01,	 2.6193180000000000e-02,	 3.8039386068776637e-01,	 1.4828390794203688e+02,	 6.9449404150447664e+00,	 9.0449542857380970e+02,	 9.8985096950080915e+04,	 6.0357629476920795e+02,	 2.4594480394662593e-01 
2.6453569999999998e-01,	 2.6233520000000000e-02,	 3.6350691096693744e-01,	 1.4028461820233073e+02,	 7.7112781967579247e+00,	 9.4616759197081376e+02,	 9.8948833356246367e+04,	 6.1732379998136685e+02,	 2.2758947287345191e-01 
2.6687119999999998e-01,	 2.6274229999999999e-02,	 3.5137669697746721e-01,	 1.3328089539678928e+02,	 8.4490378114320581e+00,	 9.7867537643286971e+02,	 9.8933085757450463e+04,	 6.2783904007513263e+02,	 2.1271125572480090e-01 
2.6922760000000001e-01,	 2.6315300000000000e-02,	 3.4429205041715694e-01,	 1.2762064593974792e+02,	 9.0560999632797561e+00,	 9.9885181111778843e+02,	 9.8936830642193716e+04,	 6.3427780892750684e+02,	 2.0171217724496329e-01 
2.7160489999999998e-01,	 2.6356740000000000e-02,	 3.4156371510833455e-01,	 1.2344440485995386e+02,	 9.5362089185454231e+00,	 1.0073306351930605e+03,	 9.8985984786190835e+04,	 6.3696417608726586e+02,	 1.9437858931593655e-01 
2.7400340000000001e-01,	 2.6398539999999998e-02,	 3.4156994889318593e-01,	 1.2072217175393706e+02,	 9.9259014595586859e+00,	 1.0078105347729486e+03,	 9.9034949849749741e+04,	 6.3711588518435781e+02,	 1.9012168142283092e-01 
2.7642339999999999e-01,	 2.6440720000000001e-02,	 3.4292624543249128e-01,	 1.1922025507456229e+02,	 1.0128527582683745e+01,	 1.0043118468435098e+03,	 9.9083022852975526e+04,	 6.3600902653381024e+02,	 1.8812582578285683e-01 
2.7886499999999997e-01,	 2.6483279999999998e-02,	 3.4467795011249025e-01,	 1.1856258330463976e+02,	 1.0140496532986820e+01,	 9.9963587970781828e+02,	 9.9125473455001382e+04,	 6.3452670458215118e+02,	 1.8753417896606103e-01 
2.8132859999999998e-01,	 2.6526209999999998e-02,	 3.4637099911144714e-01,	 1.1858091211379441e+02,	 1.0018784712441086e+01,	 9.9513606414688581e+02,	 9.9163974578271664e+04,	 6.3309694718363608e+02,	 1.8797026056203389e-01 
2.8381430000000002e-01,	 2.6569539999999999e-02,	 3.4783857961309916e-01,	 1.1904466594705926e+02,	 9.7696513542638606e+00,	 9.9121013596769251e+02,	 9.9191263163552881e+04,	 6.3184689230545780e+02,	 1.8904085497406073e-01 
2.8632249999999998e-01,	 2.6613249999999998e-02,	 3.4910519965378206e-01,	 1.1976947678581379e+02,	 9.4049449973402055e+00,	 9.8778622087079134e+02,	 9.9208576570949765e+04,	 6.3075466094795593e+02,	 1.9046735636284706e-01 
2.8885319999999998e-01,	 2.6657359999999998e-02,	 3.5027342736201739e-01,	 1.2060906848298143e+02,	 8.9396616838782510e+00,	 9.8457328413148116e+02,	 9.9216791043775243e+04,	 6.2972800892136786e+02,	 1.9205104614669963e-01 
2.9140680000000002e-01,	 2.6701869999999999e-02,	 3.5148498195228500e-01,	 1.2146468962688893e+02,	 8.3963836072328917e+00,	 9.8118783502370536e+02,	 9.9217633917414481e+04,	 6.2864441872065447e+02,	 1.9367792807535442e-01 
2.9398350000000001e-01,	 2.6746779999999998e-02,	 3.5290252807514871e-01,	 1.2229547971475020e+02,	 7.8024845511571446e+00,	 9.7720718502102363e+02,	 9.9213634277404912e+04,	 6.2736792683325632e+02,	 1.9533055805077926e-01 
2.9658360000000000e-01,	 2.6792090000000001e-02,	 3.5473568871150235e-01,	 1.2309499305510366e+02,	 7.1251004177304988e+00,	 9.7206200285510340e+02,	 9.9203909665949730e+04,	 6.2571414120451891e+02,	 1.9705648856154021e-01 
2.9920730000000001e-01,	 2.6837819999999998e-02,	 3.5734174556800635e-01,	 1.2382872424185624e+02,	 6.2854813098444478e+00,	 9.6483097682706068e+02,	 9.9189324007548290e+04,	 6.2338249926926733e+02,	 1.9889577528693911e-01 
3.0185489999999998e-01,	 2.6883959999999998e-02,	 3.6125505593324236e-01,	 1.2448368217923728e+02,	 5.2450180892486813e+00,	 9.5423755086728659e+02,	 9.9174580978057071e+04,	 6.1995081884825800e+02,	 2.0097421709313892e-01 
3.0452659999999998e-01,	 2.6930529999999998e-02,	 3.6718948442169824e-01,	 1.2512057723958668e+02,	 4.0632748981987312e+00,	 9.3878672788260383e+02,	 9.9171552941743284e+04,	 6.1491127613712069e+02,	 2.0358471519475635e-01 
3.0722260000000001e-01,	 2.6977510000000000e-02,	 3.7612952344406581e-01,	 1.2592035927589350e+02,	 2.8887152146869788e+00,	 9.1670862998883740e+02,	 9.9197032665801817e+04,	 6.0763760948537856e+02,	 2.0728389370046743e-01 
3.0994329999999998e-01,	 2.7024929999999999e-02,	 3.8849933292067179e-01,	 1.2710634672705710e+02,	 1.7952248589060633e+00,	 8.8776515963162547e+02,	 9.9224361289266977e+04,	 5.9796812613276916e+02,	 2.1258494933017852e-01 
3.1268889999999999e-01,	 2.7072779999999998e-02,	 4.0373151710662841e-01,	 1.2875395827241775e+02,	 7.5259456801712943e-01,	 8.5421889711070298e+02,	 9.9218296413964432e+04,	 5.8656152705190766e+02,	 2.1951006306072399e-01 
3.1545960000000001e-01,	 2.7121070000000001e-02,	 4.2118839249824447e-01,	 1.3079114463908900e+02,	 -2.3164347429487975e-01,	 8.1852178701675825e+02,	 9.9182848103600656e+04,	 5.7417477441582446e+02,	 2.2779013568340215e-01 
3.1825579999999998e-01,	 2.7169800000000001e-02,	 4.4027844162544949e-01,	 1.3313642015942526e+02,	 -1.1382837225354494e+00,	 7.8257766371864375e+02,	 9.9125366535564550e+04,	 5.6142624486982413e+02,	 2.3714831166225464e-01 
3.2107760000000002e-01,	 2.7218980000000000e-02,	 4.6037636070732946e-01,	 1.3571707455655630e+02,	 -1.9526029090212818e+00,	 7.4789875104639714e+02,	 9.9057134559515936e+04,	 5.4884585738848045e+02,	 2.4730280523957129e-01 
3.2392539999999997e-01,	 2.7268609999999999e-02,	 4.8079985773819334e-01,	 1.3847631399578142e+02,	 -2.6835951396836180e+00,	 7.1561118324571146e+02,	 9.8985455718389116e+04,	 5.3686803387185000e+02,	 2.5798204794961616e-01 
3.2679940000000002e-01,	 2.7318699999999998e-02,	 5.0086330002257629e-01,	 1.4134733580953170e+02,	 -3.3514859503662064e+00,	 6.8647119602997930e+02,	 9.8917120909850986e+04,	 5.2582368713433982e+02,	 2.6888682883424475e-01 
3.2969989999999999e-01,	 2.7369249999999998e-02,	 5.1990333516512721e-01,	 1.4426849158523672e+02,	 -3.9463138101213682e+00,	 6.6095130506244709e+02,	 9.8860318509793869e+04,	 5.1595724934979967e+02,	 2.7971785515089087e-01 
3.3262730000000001e-01,	 2.7420270000000000e-02,	 5.3730442683655211e-01,	 1.4719470466646038e+02,	 -4.4631288097686355e+00,	 6.3926952202770781e+02,	 9.8817612216966401e+04,	 5.0742397868874031e+02,	 2.9021559711264266e-01 
3.3558159999999998e-01,	 2.7471750000000000e-02,	 5.5255145793462090e-01,	 1.5009023146208116e+02,	 -4.9160313610909387e+00,	 6.2144145192100018e+02,	 9.8787702501621156e+04,	 5.0029837913289612e+02,	 3.0016231432180923e-01 
3.3856330000000001e-01,	 2.7523719999999998e-02,	 5.6525033429995419e-01,	 1.5290876647067313e+02,	 -5.3064225266354264e+00,	 6.0738430877594942e+02,	 9.8772110468548737e+04,	 4.9460758327296719e+02,	 3.0933778381909410e-01 
3.4157270000000001e-01,	 2.7576159999999999e-02,	 5.7509397050723698e-01,	 1.5561906156054818e+02,	 -5.6127681015062567e+00,	 5.9699212418841216e+02,	 9.8772797329959940e+04,	 4.9035802529805312e+02,	 3.1756439067622227e-01 
3.4460990000000002e-01,	 2.7629100000000000e-02,	 5.8184963640858478e-01,	 1.5820272224789852e+02,	 -5.8217951529287557e+00,	 5.9015460494747049e+02,	 9.8788525889866403e+04,	 4.8754183400802407e+02,	 3.2471019879393487e-01 
3.4767540000000002e-01,	 2.7682519999999999e-02,	 5.8538379414169284e-01,	 1.6064569869174002e+02,	 -5.9147913976497719e+00,	 5.8677173164422084e+02,	 9.8818854603133543e+04,	 4.8614248665931854e+02,	 3.3067373077185075e-01 
3.5076940000000001e-01,	 2.7736440000000001e-02,	 5.8567882059181620e-01,	 1.6294434158251806e+02,	 -5.8659403301441069e+00,	 5.8674027746865681e+02,	 9.8863358226124954e+04,	 4.8612945653599417e+02,	 3.3540426551370511e-01 
3.5389219999999999e-01,	 2.7790860000000001e-02,	 5.8283966097803375e-01,	 1.6511233509151202e+02,	 -5.6407248785766715e+00,	 5.8994281811351323e+02,	 9.8921103591396357e+04,	 4.8745434489421120e+02,	 3.3892129721164616e-01 
3.5704399999999997e-01,	 2.7845789999999999e-02,	 5.7709932835555822e-01,	 1.6719613955488711e+02,	 -5.2139506710914656e+00,	 5.9621822502744135e+02,	 9.8988730278412695e+04,	 4.9004008916948413e+02,	 3.4135455664152708e-01 
3.6022530000000003e-01,	 2.7901229999999999e-02,	 5.6883701324933322e-01,	 1.6925443935217956e+02,	 -4.5936460361109903e+00,	 6.0532220454601065e+02,	 9.9061383706012450e+04,	 4.9376725900905149e+02,	 3.4290804353170679e-01 
3.6343629999999999e-01,	 2.7957190000000000e-02,	 5.5856373381047131e-01,	 1.7135434830339875e+02,	 -3.7957061939257666e+00,	 6.1691766356533117e+02,	 9.9135654274598885e+04,	 4.9847408992518700e+02,	 3.4384211006104387e-01 
3.6667729999999998e-01,	 2.8013670000000001e-02,	 5.4687609324878073e-01,	 1.7358078041753194e+02,	 -2.8464779927498363e+00,	 6.3057284020275665e+02,	 9.9209700159498883e+04,	 5.0396063803479825e+02,	 3.4447951852266068e-01 
3.6994860000000002e-01,	 2.8070680000000001e-02,	 5.3436776323444590e-01,	 1.7603227445404673e+02,	 -1.8951458128576204e+00,	 6.4572677252457129e+02,	 9.9270219272466653e+04,	 5.0998028007945675e+02,	 3.4519467224481076e-01 
3.7325059999999999e-01,	 2.8128219999999999e-02,	 5.2165121328397723e-01,	 1.7869721693249537e+02,	 -1.0930913107185138e+00,	 6.6177255853813620e+02,	 9.9315930013438832e+04,	 5.1627769666392464e+02,	 3.4613263613177575e-01 
3.7658350000000002e-01,	 2.8186300000000001e-02,	 5.0928957748400383e-01,	 1.8158242148916563e+02,	 -4.3355695944602368e-01,	 6.7814440449555616e+02,	 9.9361218470611537e+04,	 5.2262487646339059e+02,	 3.4744411768218469e-01 
3.7994760000000000e-01,	 2.8244929999999998e-02,	 4.9768093342699959e-01,	 1.8475299057928206e+02,	 6.7319855928090089e-02,	 6.9430173371615035e+02,	 9.9409797714191940e+04,	 5.2881420352268060e+02,	 3.4937224002963507e-01 
3.8334340000000000e-01,	 2.8304099999999999e-02,	 4.8711793833476869e-01,	 1.8827232661914977e+02,	 3.6705410289413198e-01,	 7.0973301214573974e+02,	 9.9462430285280789e+04,	 5.3465851731863495e+02,	 3.5213632313531862e-01 
3.8677109999999998e-01,	 2.8363830000000000e-02,	 4.7782323847773572e-01,	 1.9218419356861278e+02,	 4.3975104595368047e-01,	 7.2398040326235321e+02,	 9.9523127624611938e+04,	 5.3999829925672316e+02,	 3.5589870735914558e-01 
3.9023099999999999e-01,	 2.8424129999999999e-02,	 4.6994530917942906e-01,	 1.9652966607984709e+02,	 2.8453636846774466e-01,	 7.3665589259517014e+02,	 9.9596006216183465e+04,	 5.4470494777126078e+02,	 3.6080060014190513e-01 
3.9372350000000000e-01,	 2.8484989999999998e-02,	 4.6356520568823240e-01,	 2.0134588597904008e+02,	 -8.7553489259227957e-02,	 7.4745611696915194e+02,	 9.9684232411369740e+04,	 5.4868341973576605e+02,	 3.6696189054142681e-01 
3.9724900000000002e-01,	 2.8546419999999999e-02,	 4.5870687369470642e-01,	 2.0666924025693686e+02,	 -6.5995366995413607e-01,	 7.5617512342842315e+02,	 9.9790126097624467e+04,	 5.5187431201636593e+02,	 3.7448797572954590e-01 
4.0080759999999999e-01,	 2.8608439999999999e-02,	 4.5533923842645058e-01,	 2.1252932210881616e+02,	 -1.4292248734512834e+00,	 7.6271250721603792e+02,	 9.9913893345752091e+04,	 5.5425474606397097e+02,	 3.8345928332658852e-01 
4.0439989999999998e-01,	 2.8671039999999998e-02,	 4.5338574048424046e-01,	 2.1894266261278858e+02,	 -2.3996303043776770e+00,	 7.6708411849297181e+02,	 1.0005545833396280e+05,	 5.5584087730895135e+02,	 3.9391815397712943e-01 
4.0802610000000000e-01,	 2.8734229999999999e-02,	 4.5274609845234337e-01,	 2.2589230012116198e+02,	 -3.5690220617537785e+00,	 7.6944021035688786e+02,	 1.0022118475170307e+05,	 5.5669385292340394e+02,	 4.0582537753403108e-01 
4.1168660000000001e-01,	 2.8798009999999999e-02,	 4.5310703797952323e-01,	 2.3333315359450467e+02,	 -4.9897081438873760e+00,	 7.7003814050954361e+02,	 1.0037902710123162e+05,	 5.5691011365044449e+02,	 4.1907390965419217e-01 
4.1538170000000002e-01,	 2.8862400000000000e-02,	 4.5452161615729336e-01,	 2.4124408186461741e+02,	 -6.6801575786441383e+00,	 7.6911748803911485e+02,	 1.0057201838200938e+05,	 5.5657709507123741e+02,	 4.3360848761042664e-01 
4.1911179999999998e-01,	 2.8927399999999999e-02,	 4.5664146649320952e-01,	 2.4959010884821760e+02,	 -8.6315928424903614e+00,	 7.6708715791172517e+02,	 1.0077434771315096e+05,	 5.5584197851250394e+02,	 4.4929913069463784e-01 
4.2287730000000001e-01,	 2.8993019999999998e-02,	 4.5923448945878143e-01,	 2.5832316899939656e+02,	 -1.0780668296432042e+01,	 7.6441211647501916e+02,	 1.0099316829028104e+05,	 5.5487194604548813e+02,	 4.6595981144988152e-01 