TITLE = "Final State"
VARIABLES = "X", "Y", "rho", "u", "v", "T", "p", "c", "M"
ZONE I=98, J=25, DATAPACKING=POINT, STRANDID=65000, SOLUTIONTIME=0.001568
1.3750830000000001e+00,	 2.8192020000000001e-01,	 4.7675538910192827e-02,	 1.5567231748085469e+03,	 -9.0416700031671180e+00,	 5.9374502687930328e+02,	 8.1437706335607554e+03,	 4.8902265490140758e+02,	 3.1833891878788005e+00 
1.3782770000000000e+00,	 2.8188779999999997e-01,	 4.7609862984988670e-02,	 1.5568642251304618e+03,	 -6.4500737031133228e+00,	 5.9347320171014644e+02,	 8.1288288977503671e+03,	 4.8891070121966897e+02,	 3.1843802610298648e+00 
1.3814979999999999e+00,	 2.8185519999999997e-01,	 4.7523366269754022e-02,	 1.5570989082851302e+03,	 -2.5498183232658089e+00,	 5.9314506494242528e+02,	 8.1095742539109224e+03,	 4.8877552092962520e+02,	 3.1857180430033409e+00 
1.3847449999999999e+00,	 2.8182219999999997e-01,	 4.7409415629611956e-02,	 1.5573875245234065e+03,	 1.0809624933983235e+00,	 5.9269844304676394e+02,	 8.0840376237157698e+03,	 4.8859146902465250e+02,	 3.1875053053490965e+00 
1.3880189999999999e+00,	 2.8178900000000001e-01,	 4.7277018969203902e-02,	 1.5577273696635239e+03,	 4.5266880205824771e+00,	 5.9215938190666213e+02,	 8.0541300226247022e+03,	 4.8836923072533813e+02,	 3.1896643949401930e+00 
1.3913210000000000e+00,	 2.8175549999999999e-01,	 4.7131885146902350e-02,	 1.5580994247724357e+03,	 7.8569416539038199e+00,	 5.9156248643504398e+02,	 8.0213113481124155e+03,	 4.8812303106401049e+02,	 3.1920625239344402e+00 
1.3946490000000000e+00,	 2.8172179999999997e-01,	 4.6978525732830859e-02,	 1.5584962636187820e+03,	 1.1095952879275529e+01,	 5.9092122432674910e+02,	 7.9865443960456059e+03,	 4.8785839318947052e+02,	 3.1946478415531732e+00 
1.3980060000000001e+00,	 2.8168769999999999e-01,	 4.6818006429324335e-02,	 1.5589114645952959e+03,	 1.4248553702443086e+01,	 5.9024412399799837e+02,	 7.9501354262322711e+03,	 4.8757880959608195e+02,	 3.1973837847621298e+00 
1.4013899999999999e+00,	 2.8165340000000000e-01,	 4.6652818955408848e-02,	 1.5593500087041198e+03,	 1.7301828863783292e+01,	 5.8952304422266195e+02,	 7.9124069248753995e+03,	 4.8728088993120832e+02,	 3.2003019706535656e+00 
1.4048030000000000e+00,	 2.8161880000000000e-01,	 4.6482421458441683e-02,	 1.5598095723308752e+03,	 2.0244017791995290e+01,	 5.8875581208715778e+02,	 7.8732472296913847e+03,	 4.8696370192688221e+02,	 3.2034029010973057e+00 
1.4082440000000001e+00,	 2.8158390000000000e-01,	 4.6307941245899459e-02,	 1.5602913893866883e+03,	 2.3061646721936942e+01,	 5.8794255868948153e+02,	 7.8328590055670447e+03,	 4.8662726215875472e+02,	 3.2066880156224107e+00 
1.4117139999999999e+00,	 2.8154869999999999e-01,	 4.6129437248598248e-02,	 1.5607965210968096e+03,	 2.5732987772086908e+01,	 5.8708388137794941e+02,	 7.7912699294397635e+03,	 4.8627177805418978e+02,	 3.2101567644568738e+00 
1.4152119999999999e+00,	 2.8151319999999996e-01,	 4.5947035267151090e-02,	 1.5613248637034153e+03,	 2.8232207519823945e+01,	 5.8618227046171751e+02,	 7.7485441150975612e+03,	 4.8589823994917646e+02,	 3.2138006784906308e+00 
1.4187399999999999e+00,	 2.8147739999999999e-01,	 4.5761366792013772e-02,	 1.5618752640313742e+03,	 3.0531277272174187e+01,	 5.8524243153685939e+02,	 7.7048596285061603e+03,	 4.8550855802341289e+02,	 3.2176026969509470e+00 
1.4222969999999999e+00,	 2.8144130000000001e-01,	 4.5573270723554007e-02,	 1.5624431279763226e+03,	 3.2599268354913640e+01,	 5.8427491490638090e+02,	 7.6605045815548829e+03,	 4.8510707320211270e+02,	 3.2215221290658111e+00 
1.4258830000000000e+00,	 2.8140490000000001e-01,	 4.5384963982889416e-02,	 1.5630229721843864e+03,	 3.4397780079837332e+01,	 5.8329145957438777e+02,	 7.6160107823944254e+03,	 4.8469863356932660e+02,	 3.2255123446444056e+00 
1.4295000000000000e+00,	 2.8136830000000002e-01,	 4.5198981876085106e-02,	 1.5636076481367750e+03,	 3.5887635400855615e+01,	 5.8230595572188236e+02,	 7.5719863390616802e+03,	 4.8428899761711261e+02,	 3.2295167654328676e+00 
1.4331460000000000e+00,	 2.8133130000000001e-01,	 4.5017436333976139e-02,	 1.5641821927760084e+03,	 3.7028700703835497e+01,	 5.8134226952654728e+02,	 7.5290919016921107e+03,	 4.8388809507689393e+02,	 3.2334344145700054e+00 
1.4368230000000000e+00,	 2.8129399999999999e-01,	 4.4845755544446239e-02,	 1.5647377218971546e+03,	 3.7771915683101682e+01,	 5.8041830416100652e+02,	 7.4884577299116654e+03,	 4.8350340463282208e+02,	 3.2371924111239596e+00 
1.4405310000000000e+00,	 2.8125639999999996e-01,	 4.4687099137431546e-02,	 1.5652577774803560e+03,	 3.8075207996817724e+01,	 5.7956236380634914e+02,	 7.4509607544018154e+03,	 4.8314676291338941e+02,	 3.2406732750793714e+00 
1.4442690000000000e+00,	 2.8121839999999998e-01,	 4.4546096554508738e-02,	 1.5657267188549665e+03,	 3.7891004785155772e+01,	 5.7879960543608433e+02,	 7.4176752872515208e+03,	 4.8282872503389427e+02,	 3.2437695952208805e+00 
1.4480390000000001e+00,	 2.8118019999999999e-01,	 4.4428150719157664e-02,	 1.5661322444155135e+03,	 3.7177515112747116e+01,	 5.7814965965713634e+02,	 7.3897279158815709e+03,	 4.8255755981977023e+02,	 3.2463970737653520e+00 
1.4518400000000000e+00,	 2.8114159999999999e-01,	 4.4336332667790392e-02,	 1.5664544574129218e+03,	 3.5912618873671335e+01,	 5.7764468011183271e+02,	 7.3680146814464142e+03,	 4.8234677103289738e+02,	 3.2484224312131391e+00 
1.4556730000000000e+00,	 2.8110279999999999e-01,	 4.4275053120173130e-02,	 1.5666882997706566e+03,	 3.4058530576887215e+01,	 5.7729602889783121e+02,	 7.3533899715163143e+03,	 4.8220118311647229e+02,	 3.2498021848559100e+00 
1.4595380000000000e+00,	 2.8106359999999997e-01,	 4.4243554075751042e-02,	 1.5668215810367569e+03,	 3.1617087963161559e+01,	 5.7711769067966952e+02,	 7.3458884834388191e+03,	 4.8212669659838025e+02,	 3.2504745375132811e+00 
1.4634339999999999e+00,	 2.8102400000000000e-01,	 4.4244212219131829e-02,	 1.5668523198073426e+03,	 2.8611355211564209e+01,	 5.7711213641937888e+02,	 7.3459270580399198e+03,	 4.8212437656587019e+02,	 3.2504341237407037e+00 
1.4673639999999999e+00,	 2.8098419999999996e-01,	 4.4275303502974699e-02,	 1.5667882212386457e+03,	 2.5075549785642529e+01,	 5.7726489653392048e+02,	 7.3530350010222974e+03,	 4.8218818089200062e+02,	 3.2497454944079833e+00 
1.4713259999999999e+00,	 2.8094399999999997e-01,	 4.4330569280097071e-02,	 1.5666356140072326e+03,	 2.1079491698916339e+01,	 5.7755917823507002e+02,	 7.3659664374259728e+03,	 4.8231107168186810e+02,	 3.2484790721495584e+00 
1.4753210000000001e+00,	 2.8090339999999997e-01,	 4.4405449821671245e-02,	 1.5664155231232262e+03,	 1.6706285933908429e+01,	 5.7795845765812714e+02,	 7.3835094435092997e+03,	 4.8247775902926600e+02,	 3.2467913391237535e+00 
1.4793499999999999e+00,	 2.8086259999999996e-01,	 4.4492441907458533e-02,	 1.5661536935155755e+03,	 1.2056402384947450e+01,	 5.7841821785813545e+02,	 7.4038590541060139e+03,	 4.8266962400751811e+02,	 3.2448698252423056e+00 
1.4834120000000000e+00,	 2.8082140000000000e-01,	 4.4581599950231268e-02,	 1.5658712872922752e+03,	 7.2414101586194857e+00,	 5.7889922018221705e+02,	 7.4248648426790915e+03,	 4.8287027204875005e+02,	 3.2428752024810321e+00 
1.4875090000000000e+00,	 2.8077979999999997e-01,	 4.4665913453773132e-02,	 1.5655961783009725e+03,	 2.3620071831927314e+00,	 5.7935577697203144e+02,	 7.4447736729399649e+03,	 4.8306064564401964e+02,	 3.2409967033993206e+00 
1.4916389999999999e+00,	 2.8073789999999998e-01,	 4.4738234084005388e-02,	 1.5653527855952689e+03,	 -2.4901200802575767e+00,	 5.7974726805581827e+02,	 7.4618666885947878e+03,	 4.8322382861920340e+02,	 3.2393989565336065e+00 
1.4958039999999999e+00,	 2.8069569999999999e-01,	 4.4792434605227374e-02,	 1.5651596649740420e+03,	 -7.2385192868151069e+00,	 5.8004385285689727e+02,	 7.4747287019740579e+03,	 4.8334741567713814e+02,	 3.2382016586803117e+00 
1.5000030000000000e+00,	 2.8065309999999999e-01,	 4.4824024543675470e-02,	 1.5650286696770104e+03,	 -1.1825478979203755e+01,	 5.8022686176353261e+02,	 7.4823602722086944e+03,	 4.8342365983135426e+02,	 3.2374777575163445e+00 
1.5042380000000000e+00,	 2.8061009999999997e-01,	 4.4831489339977437e-02,	 1.5649710434040562e+03,	 -1.6216545654465492e+01,	 5.8028094522579045e+02,	 7.4843039052555587e+03,	 4.8344618948118386e+02,	 3.2372890608302316e+00 
1.5085080000000000e+00,	 2.8056680000000001e-01,	 4.4813923453032090e-02,	 1.5649918211780914e+03,	 -2.0388221552138717e+01,	 5.8020036769173680e+02,	 7.4803325435149645e+03,	 4.8341262276274756e+02,	 3.2376577431301716e+00 
1.5128140000000001e+00,	 2.8052309999999997e-01,	 4.4771022497218677e-02,	 1.5650897149183452e+03,	 -2.4328721069597471e+01,	 5.7998848881707659e+02,	 7.4704424536294009e+03,	 4.8332434784871771e+02,	 3.2385680564128196e+00 
1.5171550000000000e+00,	 2.8047909999999998e-01,	 4.4703900670382254e-02,	 1.5652648726682050e+03,	 -2.8038723878222157e+01,	 5.7964699007783838e+02,	 7.4548505595626084e+03,	 4.8318203557707346e+02,	 3.2400128052953274e+00 
1.5215330000000000e+00,	 2.8043469999999998e-01,	 4.4613388333926127e-02,	 1.5655121941967830e+03,	 -3.1517120118336223e+01,	 5.7918557148579362e+02,	 7.4338343677572147e+03,	 4.8298968267538334e+02,	 3.2419520993001538e+00 
1.5259480000000001e+00,	 2.8038989999999997e-01,	 4.4501232445160299e-02,	 1.5658285288092870e+03,	 -3.4766341542072979e+01,	 5.7861184199972729e+02,	 7.4078007762774532e+03,	 4.8275040351009881e+02,	 3.2443565685065106e+00 
1.5303990000000001e+00,	 2.8034470000000000e-01,	 4.4369050234712513e-02,	 1.5662108640318625e+03,	 -3.7789552202446693e+01,	 5.7793206080891571e+02,	 7.3771201602605934e+03,	 4.8246674090338882e+02,	 3.2472014301408394e+00 
1.5348880000000000e+00,	 2.8029919999999997e-01,	 4.4218659181171641e-02,	 1.5666572805222295e+03,	 -4.0587558814932478e+01,	 5.7715180754317112e+02,	 7.3421891251338584e+03,	 4.8214094707785500e+02,	 3.2504663936123852e+00 
1.5394140000000001e+00,	 2.8025329999999998e-01,	 4.4050875325759936e-02,	 1.5671616850872635e+03,	 -4.3157612250088334e+01,	 5.7628175823559059e+02,	 7.3033035642738387e+03,	 4.8177739921782336e+02,	 3.2541082821792324e+00 
1.5439780000000001e+00,	 2.8020699999999998e-01,	 4.3867713807474562e-02,	 1.5677210039089277e+03,	 -4.5496528279740062e+01,	 5.7532927158012535e+02,	 7.2609159502391949e+03,	 4.8137909031119523e+02,	 3.2580996339708710e+00 
1.5485800000000001e+00,	 2.8016029999999997e-01,	 4.3671121648986649e-02,	 1.5683316043679256e+03,	 -4.7599657289360735e+01,	 5.7430121735335103e+02,	 7.2154599561471277e+03,	 4.8094881055029271e+02,	 3.2624132558687564e+00 
1.5532210000000000e+00,	 2.8011330000000001e-01,	 4.3463041797703522e-02,	 1.5689892609737076e+03,	 -4.9457676776009365e+01,	 5.7320665578048727e+02,	 7.1673940122607646e+03,	 4.8049027142485892e+02,	 3.2670142627036127e+00 
1.5579000000000001e+00,	 2.8006579999999998e-01,	 4.3244706872003914e-02,	 1.5696840689859064e+03,	 -5.1058484544356546e+01,	 5.7206190521682481e+02,	 7.1171467918168019e+03,	 4.8001023826410324e+02,	 3.2718349239449034e+00 
1.5626180000000001e+00,	 2.8001789999999999e-01,	 4.3020086927910692e-02,	 1.5704126975840788e+03,	 -5.2391812742011254e+01,	 5.7087458965260032e+02,	 7.0654842644908040e+03,	 4.7951184844968742e+02,	 3.2768458225146566e+00 
1.5673760000000001e+00,	 2.7996969999999999e-01,	 4.2791497169487706e-02,	 1.5711665058304307e+03,	 -5.3439961438775768e+01,	 5.6965995522908815e+02,	 7.0129882380775971e+03,	 4.7900145462223173e+02,	 3.2819839116186453e+00 
1.5721740000000000e+00,	 2.7992099999999998e-01,	 4.2561580032917573e-02,	 1.5719319867729041e+03,	 -5.4181416585706032e+01,	 5.6844018130903680e+02,	 6.9603719612754730e+03,	 4.7848835327276305e+02,	 3.2871551888196833e+00 
1.5770120000000001e+00,	 2.7987190000000001e-01,	 4.2335100626919531e-02,	 1.5727013206249007e+03,	 -5.4593989414966799e+01,	 5.6723215955964292e+02,	 6.9086211739285400e+03,	 4.7797965263834794e+02,	 3.2922920489539500e+00 
1.5818900000000000e+00,	 2.7982239999999997e-01,	 4.2116166356461468e-02,	 1.5734565173225578e+03,	 -5.4643881089837208e+01,	 5.6606546355222213e+02,	 6.8587571936362656e+03,	 4.7748783990469798e+02,	 3.2972673888401327e+00 
1.5868100000000001e+00,	 2.7977249999999998e-01,	 4.1909048787467713e-02,	 1.5741848826073538e+03,	 -5.4303059495601310e+01,	 5.6495545798462308e+02,	 6.8116441211877645e+03,	 4.7701945393348183e+02,	 3.3020062597738455e+00 
1.5917699999999999e+00,	 2.7972219999999998e-01,	 4.1717836487340190e-02,	 1.5748740145031168e+03,	 -5.3546913230402147e+01,	 5.6392401721893089e+02,	 6.7681863290393385e+03,	 4.7658380712412958e+02,	 3.3064154632952922e+00 
1.5967720000000001e+00,	 2.7967149999999996e-01,	 4.1547811085966585e-02,	 1.5755047544856679e+03,	 -5.2336224870443544e+01,	 5.6300954916942248e+02,	 6.7296712125525210e+03,	 4.7619723244560305e+02,	 3.3103379821778325e+00 
1.6018150000000000e+00,	 2.7962029999999999e-01,	 4.1402593477457256e-02,	 1.5760618996381995e+03,	 -5.0640206881680840e+01,	 5.6223201355716174e+02,	 6.6968882903218901e+03,	 4.7586829643452973e+02,	 3.3136799782713164e+00 
1.6069009999999999e+00,	 2.7956870000000000e-01,	 4.1286371893307840e-02,	 1.5765347328561843e+03,	 -4.8440704951287515e+01,	 5.6160694217972764e+02,	 6.6706649124164878e+03,	 4.7560369537604595e+02,	 3.3163719472617035e+00 
1.6120300000000001e+00,	 2.7951670000000001e-01,	 4.1200730248444964e-02,	 1.5769118319363847e+03,	 -4.5730567716450778e+01,	 5.6114934117393693e+02,	 6.6514037115924884e+03,	 4.7540989339102697e+02,	 3.3183465669263583e+00 
1.6172010000000001e+00,	 2.7946420000000000e-01,	 4.1146009631813488e-02,	 1.5771878205364840e+03,	 -4.2524756802151927e+01,	 5.6086319652635677e+02,	 6.6391824521799781e+03,	 4.7528866599850051e+02,	 3.3195847362736512e+00 
1.6224160000000001e+00,	 2.7941129999999997e-01,	 4.1121604045448359e-02,	 1.5773658501364841e+03,	 -3.8858658905772522e+01,	 5.6073428405616187e+02,	 6.6337193603793721e+03,	 4.7523404112965130e+02,	 3.3201418366658211e+00 
1.6276740000000001e+00,	 2.7935800000000000e-01,	 4.1123137651325990e-02,	 1.5774563346005493e+03,	 -3.4792367234485383e+01,	 5.6075540263971641e+02,	 6.6342166119437452e+03,	 4.7524299026616325e+02,	 3.3200699650176380e+00 
1.6329769999999999e+00,	 2.7930420000000000e-01,	 4.1143815033442041e-02,	 1.5774693105513516e+03,	 -3.0418862650604538e+01,	 5.6087761866652863e+02,	 6.6389990511914066e+03,	 4.7529477678963508e+02,	 3.3195453618180726e+00 
1.6383230000000000e+00,	 2.7925000000000000e-01,	 4.1176759083304308e-02,	 1.5774361544035253e+03,	 -2.5838179563521479e+01,	 5.6106357779376265e+02,	 6.6465178539709868e+03,	 4.7537356231618543e+02,	 3.3187536668540338e+00 
1.6437150000000000e+00,	 2.7919529999999998e-01,	 4.1212715238923350e-02,	 1.5773781085043033e+03,	 -2.1161407997963682e+01,	 5.6126910195595872e+02,	 6.6547585151342264e+03,	 4.7546062179696219e+02,	 3.3178773926797902e+00 
1.6491510000000000e+00,	 2.7914010000000000e-01,	 4.1243359524319574e-02,	 1.5773223849814190e+03,	 -1.6502289545471264e+01,	 5.6144784191232179e+02,	 6.6618275818591756e+03,	 4.7553632260220462e+02,	 3.3171150823076632e+00 
1.6546339999999999e+00,	 2.7908450000000001e-01,	 4.1260933864962650e-02,	 1.5772949866797558e+03,	 -1.1963847130578142e+01,	 5.6155771898636090e+02,	 6.6659705703892969e+03,	 4.7558285228820455e+02,	 3.3166468294082745e+00 
1.6601619999999999e+00,	 2.7902840000000001e-01,	 4.1257786534268648e-02,	 1.5773198300160921e+03,	 -7.6325232399072291e+00,	 5.6156173950391121e+02,	 6.6655098206825614e+03,	 4.7558455477195395e+02,	 3.3166306194406081e+00 
1.6657360000000001e+00,	 2.7897189999999999e-01,	 4.1231540837553940e-02,	 1.5774168903862669e+03,	 -3.5746108000857060e+00,	 5.6143389723211453e+02,	 6.6597531578180306e+03,	 4.7553041711764678e+02,	 3.3171820010695003e+00 
1.6713570000000000e+00,	 2.7891489999999997e-01,	 4.1178439842858697e-02,	 1.5775962906452451e+03,	 1.6494408268766392e-01,	 5.6116047340442242e+02,	 6.6479370522689878e+03,	 4.7541460902185139e+02,	 3.3183589004845251e+00 
1.6770250000000000e+00,	 2.7885739999999998e-01,	 4.1098314454785179e-02,	 1.5778629148029020e+03,	 3.5552229411071523e+00,	 5.6073776752864239e+02,	 6.6300034812825488e+03,	 4.7523551728527445e+02,	 3.3201788643772439e+00 
1.6827410000000000e+00,	 2.7879939999999998e-01,	 4.0991917998683708e-02,	 1.5782159128166591e+03,	 6.5812149096497770e+00,	 5.6017063036964487e+02,	 6.6061512361807399e+03,	 4.7499512692712767e+02,	 3.3226227917617446e+00 
1.6885049999999999e+00,	 2.7874090000000001e-01,	 4.0861623754324047e-02,	 1.5786508433537679e+03,	 9.2356457619400167e+00,	 5.5946904937930094e+02,	 6.5769058336557391e+03,	 4.7469758190945703e+02,	 3.3256496749171927e+00 
1.6943170000000001e+00,	 2.7868199999999999e-01,	 4.0710313141602394e-02,	 1.5791590811183978e+03,	 1.1518121216529643e+01,	 5.5864976932702575e+02,	 6.5429560668882368e+03,	 4.7434988372720045e+02,	 3.3291904148313058e+00 
1.7001770000000000e+00,	 2.7862250000000000e-01,	 4.0541456941366058e-02,	 1.5797274414434385e+03,	 1.3427794812676524e+01,	 5.5773482738233361e+02,	 6.5051460859435219e+03,	 4.7396128565188786e+02,	 3.3331509489048368e+00 
1.7060869999999999e+00,	 2.7856259999999999e-01,	 4.0359917733347669e-02,	 1.5803456060238400e+03,	 1.4961446497603049e+01,	 5.5674385537773776e+02,	 6.4645104576590657e+03,	 4.7354003602001438e+02,	 3.3374504914440246e+00 
1.7120460000000000e+00,	 2.7850209999999997e-01,	 4.0169472994372443e-02,	 1.5809960155184647e+03,	 1.6115423274094749e+01,	 5.5570455678648284e+02,	 6.4219959820144286e+03,	 4.7309784040208143e+02,	 3.3419686422210111e+00 
1.7180550000000001e+00,	 2.7844120000000000e-01,	 3.9975702561683008e-02,	 1.5816659278259349e+03,	 1.6878846497739062e+01,	 5.5463985836900065e+02,	 6.3787725823678138e+03,	 4.7264440879393271e+02,	 3.3466089044176814e+00 
1.7241139999999999e+00,	 2.7837970000000001e-01,	 3.9782657955420617e-02,	 1.5823352838948151e+03,	 1.7241193853413492e+01,	 5.5358118310728582e+02,	 6.3358524204447540e+03,	 4.7219311058767153e+02,	 3.3512331629223944e+00 
1.7302249999999999e+00,	 2.7831770000000000e-01,	 3.9595949621952405e-02,	 1.5829900145709976e+03,	 1.7181557944470285e+01,	 5.5255381589985677e+02,	 6.2944136922523012e+03,	 4.7175474579350754e+02,	 3.3557336075267643e+00 
1.7363860000000000e+00,	 2.7825519999999998e-01,	 3.9420051005391053e-02,	 1.5836124624860781e+03,	 1.6681364989865727e+01,	 5.5158315813693935e+02,	 6.2554436527171783e+03,	 4.7134020365234159e+02,	 3.3599941324208293e+00 
1.7425990000000000e+00,	 2.7819220000000000e-01,	 3.9259617574401905e-02,	 1.5841853209636879e+03,	 1.5725250682216030e+01,	 5.5069699883812996e+02,	 6.2199760437515943e+03,	 4.7096142994198743e+02,	 3.3638919577094568e+00 
1.7488640000000000e+00,	 2.7812860000000000e-01,	 3.9118659793397161e-02,	 1.5846944014613312e+03,	 1.4297891064342785e+01,	 5.4991964933146187e+02,	 6.1888954015964264e+03,	 4.7062891412826406e+02,	 3.3673215858002243e+00 
1.7551820000000000e+00,	 2.7806460000000000e-01,	 3.9000203378486864e-02,	 1.5851299064647646e+03,	 1.2394781776899038e+01,	 5.4926608976241937e+02,	 6.1628216122935310e+03,	 4.7034916828436275e+02,	 3.3702161554804730e+00 
1.7615529999999999e+00,	 2.7799989999999997e-01,	 3.8905154111006438e-02,	 1.5854818546452645e+03,	 1.0026680813938526e+01,	 5.4874945106946075e+02,	 6.1420192925776646e+03,	 4.7012791145417339e+02,	 3.3725152673548813e+00 
1.7679769999999999e+00,	 2.7793479999999998e-01,	 3.8834596438582059e-02,	 1.5857540210677205e+03,	 7.2171542206518495e+00,	 5.4836390260034409e+02,	 6.1265727151685451e+03,	 4.6996272773967843e+02,	 3.3742472560029984e+00 
1.7744549999999999e+00,	 2.7786909999999998e-01,	 3.8785319366321749e-02,	 1.5859477217158983e+03,	 4.0168584546898121e+00,	 5.4810427328264450e+02,	 6.1159017132819999e+03,	 4.6985145988663675e+02,	 3.3754344596524786e+00 
1.7809870000000001e+00,	 2.7780280000000002e-01,	 3.8754464378144005e-02,	 1.5860767551630388e+03,	 4.9581942278445829e-01,	 5.4794745039602890e+02,	 6.1092878319248739e+03,	 4.6978423843159590e+02,	 3.3761814529084213e+00 
1.7875740000000000e+00,	 2.7773599999999998e-01,	 3.8736371989819975e-02,	 1.5861619034835935e+03,	 -3.2640905103982574e+00,	 5.4785974708901392e+02,	 6.1054583487703885e+03,	 4.6974664059255349e+02,	 3.3766399265590770e+00 
1.7942160000000000e+00,	 2.7766859999999999e-01,	 3.8723249171611095e-02,	 1.5862262788395724e+03,	 -7.1698646198996654e+00,	 5.4780271242885874e+02,	 6.1027545969742941e+03,	 4.6972218858866785e+02,	 3.3769800990075636e+00 
1.8009139999999999e+00,	 2.7760059999999998e-01,	 3.8708803653443834e-02,	 1.5862956206947019e+03,	 -1.1111344404442541e+01,	 5.4773544182432829e+02,	 6.0997288508033153e+03,	 4.6969334657583147e+02,	 3.3773834502168580e+00 
1.8076690000000000e+00,	 2.7753210000000000e-01,	 3.8686491773816029e-02,	 1.5863943839309486e+03,	 -1.4985717392243087e+01,	 5.4762058448962489e+02,	 6.0949346025332070e+03,	 4.6964409784164934e+02,	 3.3780157574434355e+00 
1.8144790000000000e+00,	 2.7746300000000002e-01,	 3.8650061109499187e-02,	 1.5865451896181962e+03,	 -1.8708686923102913e+01,	 5.4742342061637009e+02,	 6.0870027286646000e+03,	 4.6955954551830104e+02,	 3.3790293652994658e+00 
1.8213470000000000e+00,	 2.7739340000000001e-01,	 3.8595085384989611e-02,	 1.5867676478548960e+03,	 -2.2207801325666846e+01,	 5.4711599068670512e+02,	 6.0749310309515222e+03,	 4.6942767599483824e+02,	 3.3805485432589393e+00 
1.8282730000000000e+00,	 2.7732309999999999e-01,	 3.8518201238842927e-02,	 1.5870710373319066e+03,	 -2.5427575758857810e+01,	 5.4668446744486050e+02,	 6.0580474416717307e+03,	 4.6924251515647035e+02,	 3.3826319429418423e+00 
1.8352569999999999e+00,	 2.7725230000000001e-01,	 3.8418607671321089e-02,	 1.5874638363030804e+03,	 -2.8331498458189436e+01,	 5.4611877418017980e+02,	 6.0361311279687188e+03,	 4.6899967303181472e+02,	 3.3853256705223651e+00 
1.8422989999999999e+00,	 2.7718080000000000e-01,	 3.8281158067925217e-02,	 1.5880013193267155e+03,	 -3.1092481981665539e+01,	 5.4533956558370255e+02,	 6.0059541543064724e+03,	 4.6866496651383557e+02,	 3.3890002311392458e+00 
1.8493999999999999e+00,	 2.7710879999999999e-01,	 3.8176050932273789e-02,	 1.5883426000933512e+03,	 -3.2843918270173575e+01,	 5.4473794635558409e+02,	 5.9828562486143310e+03,	 4.6840637931406104e+02,	 3.3916748554040912e+00 
1.3750840000000000e+00,	 2.8275859999999997e-01,	 4.7480063252974283e-02,	 1.5572203424217378e+03,	 -8.3243626584995454e+00,	 5.9273159841919960e+02,	 8.0965370271907213e+03,	 4.8860513466337056e+02,	 3.1871187619036463e+00 
1.3782779999999999e+00,	 2.8272749999999996e-01,	 4.7410995798236877e-02,	 1.5573861365490870e+03,	 -5.8026909329151959e+00,	 5.9241358523729832e+02,	 8.0804216542667946e+03,	 4.8847404352436786e+02,	 3.1882900787240120e+00 
1.3814979999999999e+00,	 2.8269620000000001e-01,	 4.7321125676302658e-02,	 1.5576578814238799e+03,	 -2.0030401955324355e+00,	 5.9201301869716826e+02,	 8.0596514718413191e+03,	 4.8830887222421819e+02,	 3.1899055247835455e+00 
1.3847460000000000e+00,	 2.8266459999999999e-01,	 4.7219823218214260e-02,	 1.5579553981168883e+03,	 1.7143120081693080e+00,	 5.9156961464223104e+02,	 8.0363742442154353e+03,	 4.8812597194658537e+02,	 3.1917095807952234e+00 
1.3880200000000000e+00,	 2.8263279999999996e-01,	 4.7100414854352721e-02,	 1.5582963266796501e+03,	 5.2599683672815756e+00,	 5.9104136232889971e+02,	 8.0088939802603300e+03,	 4.8790798300924507e+02,	 3.1938505995580178e+00 
1.3913210000000000e+00,	 2.8260069999999998e-01,	 4.6966226486392079e-02,	 1.5586703965742813e+03,	 8.6618488478453806e+00,	 5.9044656473728776e+02,	 7.9780399322496096e+03,	 4.8766241682623843e+02,	 3.1962571041699821e+00 
1.3946499999999999e+00,	 2.8256840000000000e-01,	 4.6821985092211624e-02,	 1.5590686406551440e+03,	 1.1949671839722100e+01,	 5.8980427061515377e+02,	 7.9448860493899265e+03,	 4.8739710244324152e+02,	 3.1988586452935159e+00 
1.3980060000000001e+00,	 2.8253570000000000e-01,	 4.6669842383228660e-02,	 1.5594831191870699e+03,	 1.5137416324752376e+01,	 5.8912807669504650e+02,	 7.9099910569443655e+03,	 4.8711762881948613e+02,	 3.2016016097098761e+00 
1.4013910000000001e+00,	 2.8250280000000000e-01,	 4.6511792824213964e-02,	 1.5599135745434619e+03,	 1.8222611851591729e+01,	 5.8841967208055462e+02,	 7.8737242506966413e+03,	 4.8682467030375273e+02,	 3.2044801806598997e+00 
1.4048030000000000e+00,	 2.8246969999999999e-01,	 4.6348467980231012e-02,	 1.5603595113344936e+03,	 2.1192402339805589e+01,	 5.8767884463510723e+02,	 7.8361975869269172e+03,	 4.8651811472602833e+02,	 3.2074929429120034e+00 
1.4082440000000001e+00,	 2.8243619999999997e-01,	 4.6180716949985164e-02,	 1.5608205326709362e+03,	 2.4033474220245893e+01,	 5.8690618398430274e+02,	 7.7975702120864134e+03,	 4.8619818059236309e+02,	 3.2106363565780103e+00 
1.4117139999999999e+00,	 2.8240250000000000e-01,	 4.6009158448760523e-02,	 1.5612974734529801e+03,	 2.6725204007954105e+01,	 5.8610212683555199e+02,	 7.7579597935322017e+03,	 4.8586502248424375e+02,	 3.2139094525507672e+00 
1.4152130000000001e+00,	 2.8236849999999997e-01,	 4.5834327006855358e-02,	 1.5617903885180131e+03,	 2.9240886067514722e+01,	 5.8526845147770462e+02,	 7.7174870741015238e+03,	 4.8551935078455506e+02,	 3.2173055424872894e+00 
1.4187399999999999e+00,	 2.8233419999999998e-01,	 4.5657219032426144e-02,	 1.5622981793060474e+03,	 3.1549429153214145e+01,	 5.8440927414126782e+02,	 7.6763804714409453e+03,	 4.8516284734786194e+02,	 3.2208086703203160e+00 
1.4222969999999999e+00,	 2.8229959999999998e-01,	 4.5479307341688216e-02,	 1.5628174146835297e+03,	 3.3615216707419421e+01,	 5.8353313863798962e+02,	 7.6350046107218486e+03,	 4.8479903738844098e+02,	 3.2243853089148229e+00 
1.4258839999999999e+00,	 2.8226469999999998e-01,	 4.5302589506284463e-02,	 1.5633418695997598e+03,	 3.5399222451504905e+01,	 5.8265196033183292e+02,	 7.5938528360344981e+03,	 4.8443285785039859e+02,	 3.2279862328634366e+00 
1.4295000000000000e+00,	 2.8222959999999997e-01,	 4.5130229816711102e-02,	 1.5638653518516271e+03,	 3.6856437539265869e+01,	 5.8177986877733190e+02,	 7.5536380698997882e+03,	 4.8407018164275104e+02,	 3.2315553785618207e+00 
1.4331469999999999e+00,	 2.8219410000000000e-01,	 4.4965042688497062e-02,	 1.5643756123477174e+03,	 3.7941069603027820e+01,	 5.8093820007574323e+02,	 7.5151020491093504e+03,	 4.8371989951093286e+02,	 3.2350036496736556e+00 
1.4368240000000001e+00,	 2.8215839999999998e-01,	 4.4811365729737443e-02,	 1.5648608668502536e+03,	 3.8606305560030350e+01,	 5.8014748230077703e+02,	 7.4792238137348140e+03,	 4.8339059067730403e+02,	 3.2382446990730833e+00 
1.4405310000000000e+00,	 2.8212229999999999e-01,	 4.4673533699016992e-02,	 1.5653078651164174e+03,	 3.8803522201778996e+01,	 5.7943279087165797e+02,	 7.4470335957507141e+03,	 4.8309275125969447e+02,	 3.2411762567818201e+00 
1.4442699999999999e+00,	 2.8208600000000000e-01,	 4.4555399206863619e-02,	 1.5657008029452063e+03,	 3.8489621007127624e+01,	 5.7881954014742178e+02,	 7.4194798645558658e+03,	 4.8283703962869942e+02,	 3.2436903097774055e+00 
1.4480390000000001e+00,	 2.8204940000000001e-01,	 4.4461765585254151e-02,	 1.5660276126017759e+03,	 3.7624582539079320e+01,	 5.7832751013102757e+02,	 7.3975940207419117e+03,	 4.8263177632240729e+02,	 3.2457032437267488e+00 
1.4518409999999999e+00,	 2.8201240000000000e-01,	 4.4395738892285777e-02,	 1.5662723519268295e+03,	 3.6180632698430443e+01,	 5.7798114490032140e+02,	 7.3821845298712542e+03,	 4.8248722855273240e+02,	 3.2471122276453923e+00 
1.4556730000000000e+00,	 2.8197509999999998e-01,	 4.4360306528768337e-02,	 1.5664286799992738e+03,	 3.4148157587432920e+01,	 5.7779207298351389e+02,	 7.3738798200582960e+03,	 4.8240830534941210e+02,	 3.2478728775295336e+00 
1.4595380000000000e+00,	 2.8193760000000001e-01,	 4.4355606499159081e-02,	 1.5664882846298481e+03,	 3.1532399724946679e+01,	 5.7776688574037075e+02,	 7.3727771385420147e+03,	 4.8239779060866942e+02,	 3.2479535487812381e+00 
1.4634350000000000e+00,	 2.8189969999999998e-01,	 4.4380872433464072e-02,	 1.5664522548473478e+03,	 2.8357924212365237e+01,	 5.7790186793128248e+02,	 7.3787002995525818e+03,	 4.8245413799508907e+02,	 3.2473737836631091e+00 
1.4673639999999999e+00,	 2.8186149999999999e-01,	 4.4433610798647188e-02,	 1.5663292866003087e+03,	 2.4680081548228888e+01,	 5.7817833103080011e+02,	 7.3910026036755880e+03,	 4.8256952507509186e+02,	 3.2462135105387433e+00 
1.4713270000000001e+00,	 2.8182299999999999e-01,	 4.4507900868410138e-02,	 1.5661321364729747e+03,	 2.0574357990010938e+01,	 5.7857063084257072e+02,	 7.4083831271975305e+03,	 4.8273321145183024e+02,	 3.2445815549519668e+00 
1.4753220000000000e+00,	 2.8178409999999998e-01,	 4.4596795153158723e-02,	 1.5658796723822313e+03,	 1.6138108831421196e+01,	 5.7904123033839846e+02,	 7.4292175547272473e+03,	 4.8292949503220194e+02,	 3.2426324064810887e+00 
1.4793510000000001e+00,	 2.8174499999999997e-01,	 4.4692716030552040e-02,	 1.5655980899541687e+03,	 1.1475116051888483e+01,	 5.7954522475588192e+02,	 7.4516769237830267e+03,	 4.8313961895573232e+02,	 3.2405542448425231e+00 
1.4834130000000001e+00,	 2.8170550000000000e-01,	 4.4786752591438252e-02,	 1.5653113051274142e+03,	 6.6910711771834617e+00,	 5.8004118443831771e+02,	 7.4737461348576444e+03,	 4.8334630388645081e+02,	 3.2385177941445891e+00 
1.4875090000000000e+00,	 2.8166569999999996e-01,	 4.4871300408874118e-02,	 1.5650431436622803e+03,	 1.8848200643978426e+00,	 5.8048866917830878e+02,	 7.4936316305498531e+03,	 4.8353271168096700e+02,	 3.2366874894332445e+00 
1.4916389999999999e+00,	 2.8162549999999997e-01,	 4.4939934866792999e-02,	 1.5648152002151432e+03,	 -2.8601057653899313e+00,	 5.8085290173063527e+02,	 7.5098029103154349e+03,	 4.8368438624843304e+02,	 3.2352043160679886e+00 
1.4958039999999999e+00,	 2.8158499999999997e-01,	 4.4987771638880319e-02,	 1.5646444052566133e+03,	 -7.4794767998751492e+00,	 5.8110859980716032e+02,	 7.5211062165778076e+03,	 4.8379083622811845e+02,	 3.2341709786029789e+00 