TITLE = "Final State"
VARIABLES = "X", "Y", "rho", "u", "v", "T", "p", "c", "M"
ZONE I=60, J=50, DATAPACKING=POINT, STRANDID=29000, SOLUTIONTIME=0.001043
0.0000000000000000e+00,	 1.0000000000000000e-04,	 3.1924170908483558e+00,	 7.5037459035132235e+02,	 -9.6983781138939862e-01,	 2.8275633377097929e+03,	 2.5969399451827360e+06,	 1.0671738076992406e+03,	 7.0314246065756891e-01 
1.0000000000000000e-03,	 1.0000000000000000e-04,	 3.0605049801001152e+00,	 8.1938702694741903e+02,	 -1.0269654155193082e+00,	 2.7689375392467045e+03,	 2.4380139551544213e+06,	 1.0560526389982215e+03,	 7.7589661751108419e-01 
1.9821470000000001e-03,	 1.0000000000000000e-04,	 2.7793541182208310e+00,	 9.3470735876388369e+02,	 -8.8758706298509249e-01,	 2.6665792721181469e+03,	 2.1322018717971360e+06,	 1.0363494852713259e+03,	 9.0192333133659730e-01 
2.9474710000000001e-03,	 1.0000000000000000e-04,	 2.4568709366559105e+00,	 1.0574007212156762e+03,	 8.0015148576253872e-02,	 2.5473775244107173e+03,	 1.8005516879709777e+06,	 1.0129211582505214e+03,	 1.0439121698962368e+00 
3.8969479999999999e-03,	 1.0000000000000000e-04,	 2.2051056771534263e+00,	 1.1561541580005396e+03,	 -3.4194032780679617e-02,	 2.4414613997719121e+03,	 1.5488494546816146e+06,	 9.9163972843855788e+02,	 1.1659014109153159e+00 
4.8315040000000004e-03,	 1.0000000000000000e-04,	 2.0479600845812733e+00,	 1.2167142395200590e+03,	 -9.2083368609362948e-02,	 2.3712505928545343e+03,	 1.3971044559168075e+06,	 9.7727707864170839e+02,	 1.2450043796132666e+00 
5.7520189999999997e-03,	 1.0000000000000000e-04,	 1.8885094856279143e+00,	 1.2777909675448059e+03,	 1.2774258749732215e-01,	 2.2963740003782450e+03,	 1.2476470071324508e+06,	 9.6172365245762205e+02,	 1.3286467174481971e+00 
6.6593310000000001e-03,	 1.0000000000000000e-04,	 1.7315016224866939e+00,	 1.3379192420616323e+03,	 7.5920391752440120e-01,	 2.2185120125584826e+03,	 1.1051331972424048e+06,	 9.4527871492802342e+02,	 1.4153703414014631e+00 
7.5542379999999996e-03,	 1.0000000000000000e-04,	 1.5809366176256394e+00,	 1.3956511502085032e+03,	 1.1975821919299010e+00,	 2.1400678430840057e+03,	 9.7335650908200594e+05,	 9.2841630119635693e+02,	 1.5032606194240998e+00 
8.4375019999999995e-03,	 1.0000000000000000e-04,	 1.4394865208548748e+00,	 1.4504492593541218e+03,	 1.5769301169757628e+00,	 2.0624794556655525e+03,	 8.5413628407224617e+05,	 9.1143101317546268e+02,	 1.5913986858100948e+00 
9.3098550000000006e-03,	 1.0000000000000000e-04,	 1.3092502180663539e+00,	 1.5021044736743843e+03,	 1.5690047360293007e+00,	 1.9868408567166709e+03,	 7.4836880224223947e+05,	 8.9456216837210400e+02,	 1.6791513728441427e+00 
1.0171990000000001e-02,	 1.0000000000000000e-04,	 1.1900034211359920e+00,	 1.5503246606103983e+03,	 1.5277195569147848e+00,	 1.9135282588277523e+03,	 6.5510818810029631e+05,	 8.7790278487154535e+02,	 1.7659420155035581e+00 
1.1024590000000001e-02,	 1.0000000000000000e-04,	 1.0818012352295681e+00,	 1.5951533525039868e+03,	 1.6417427026330502e+00,	 1.8430144326992768e+03,	 5.7359604302174051e+05,	 8.6157552763363628e+02,	 1.8514386100674536e+00 
1.1868290000000000e-02,	 1.0000000000000000e-04,	 9.8444576679917040e-01,	 1.6367651606910449e+03,	 1.7397823928969993e+00,	 1.7756988780641850e+03,	 5.0291090582706564e+05,	 8.4569477372387144e+02,	 1.9354099566269123e+00 
1.2703720000000000e-02,	 1.0000000000000000e-04,	 8.9689091715310820e-01,	 1.6753204881350655e+03,	 1.8090469452085474e+00,	 1.7116546573650598e+03,	 4.4165760141067614e+05,	 8.3030386519841909e+02,	 2.0177209032481684e+00 
1.3531470000000000e-02,	 1.0000000000000000e-04,	 8.1855278856792735e-01,	 1.7110931580637548e+03,	 1.9394845839975563e+00,	 1.6510412235844854e+03,	 3.8880742213110160e+05,	 8.1546991826833653e+02,	 2.0982923084121041e+00 
1.4352119999999999e-02,	 1.0000000000000000e-04,	 7.4868952035904712e-01,	 1.7443139602265348e+03,	 2.0333316335447336e+00,	 1.5938504796033524e+03,	 3.4330432055164012e+05,	 8.0122183328474125e+02,	 2.1770689126050606e+00 
1.5166249999999999e-02,	 1.0000000000000000e-04,	 6.8603677490987902e-01,	 1.7750411045909264e+03,	 2.0972365438244269e+00,	 1.5397440690624198e+03,	 3.0389662294604874e+05,	 7.8750488512651464e+02,	 2.2540080411855081e+00 
1.5974380000000000e-02,	 1.0000000000000000e-04,	 6.2985334690229000e-01,	 1.8034925398873111e+03,	 2.1904610075421660e+00,	 1.4886240598525837e+03,	 2.6974562705293007e+05,	 7.7432183057494581e+02,	 2.3291269842897302e+00 
1.6777060000000000e-02,	 1.0000000000000000e-04,	 5.7959855250595593e-01,	 1.8299325380511191e+03,	 2.2758241270697059e+00,	 1.4404628964603735e+03,	 2.4019242444087641e+05,	 7.6169310565115461e+02,	 2.4024557130109221e+00 
1.7574800000000002e-02,	 1.0000000000000000e-04,	 5.3454556761604666e-01,	 1.8545391324660941e+03,	 2.3410683576074911e+00,	 1.3950788769755122e+03,	 2.1454254757319691e+05,	 7.4959791191665784e+02,	 2.4740471933035009e+00 
1.8368110000000000e-02,	 1.0000000000000000e-04,	 4.9410906001193283e-01,	 1.8775035267329172e+03,	 2.4175435925759539e+00,	 1.3523253954946067e+03,	 1.9223566238485978e+05,	 7.3802247647919717e+02,	 2.5439673492719965e+00 
1.9157480000000001e-02,	 1.0000000000000000e-04,	 4.5774693097276919e-01,	 1.8989414752928619e+03,	 2.4946908380398813e+00,	 1.3120267709193822e+03,	 1.7278183229647900e+05,	 7.2694295972707118e+02,	 2.6122312466944617e+00 
1.9943389999999998e-02,	 1.0000000000000000e-04,	 4.2485548310322441e-01,	 1.9188827148845930e+03,	 2.5522915438381517e+00,	 1.2738711709991071e+03,	 1.5570289022750594e+05,	 7.1629470565600070e+02,	 2.6789035254957301e+00 
2.0726330000000001e-02,	 1.0000000000000000e-04,	 3.9505807271410770e-01,	 1.9374866651525510e+03,	 2.6045924615871980e+00,	 1.2377205278985471e+03,	 1.4067388192003735e+05,	 7.0605784611375589e+02,	 2.7440930321961345e+00 
2.1506760000000000e-02,	 1.0000000000000000e-04,	 3.6814265326565709e-01,	 1.9549899804923011e+03,	 2.6684491361896132e+00,	 1.2036212718180088e+03,	 1.2747820217660657e+05,	 6.9626395680763301e+02,	 2.8078314014631061e+00 
2.2285139999999998e-02,	 1.0000000000000000e-04,	 3.4380076169386015e-01,	 1.9714972181461990e+03,	 2.7334681498479707e+00,	 1.1714577522616228e+03,	 1.1586797120075903e+05,	 6.8689807917945961e+02,	 2.8701479489771193e+00 
2.3061950000000001e-02,	 1.0000000000000000e-04,	 3.2165854269153737e-01,	 1.9869953549116228e+03,	 2.7889699200501079e+00,	 1.1409716881074760e+03,	 1.0558443383776319e+05,	 6.7790122795197817e+02,	 2.9311015090340202e+00 
2.3837620000000000e-02,	 1.0000000000000000e-04,	 3.0140821393069905e-01,	 2.0014883954796323e+03,	 2.8286066385835458e+00,	 1.1119487662764657e+03,	 9.6420593029215757e+04,	 6.6922379630068201e+02,	 2.9907639347387569e+00 
2.4612610000000000e-02,	 1.0000000000000000e-04,	 2.8288223192366391e-01,	 2.0151101989172193e+03,	 2.8534771133638461e+00,	 1.0843444309799099e+03,	 8.8247591395906755e+04,	 6.6086478907478102e+02,	 3.0492050000978046e+00 
2.5387389999999999e-02,	 1.0000000000000000e-04,	 2.6598091804530566e-01,	 2.0280391587024731e+03,	 2.8864509752004102e+00,	 1.0581927356882613e+03,	 8.0973925542905708e+04,	 6.5284694248611572e+02,	 3.1064573957880235e+00 
2.6162379999999999e-02,	 1.0000000000000000e-04,	 2.5055142920238926e-01,	 2.0403177307591122e+03,	 2.9235853435077335e+00,	 1.0334247653986347e+03,	 7.4491322862220724e+04,	 6.4516146444776393e+02,	 3.1624948757862938e+00 
2.6938050000000002e-02,	 1.0000000000000000e-04,	 2.3638984248214981e-01,	 2.0518970244196053e+03,	 2.9492599472137089e+00,	 1.0098616506871787e+03,	 6.8678472764773949e+04,	 6.3776389106267084e+02,	 3.2173335190462549e+00 
2.7714860000000001e-02,	 1.0000000000000000e-04,	 2.2333641103508667e-01,	 2.0627726523627107e+03,	 2.9604558335332740e+00,	 9.8739057680139899e+02,	 6.3442231233713326e+04,	 6.3062832828130172e+02,	 3.2709833736475153e+00 
2.8493240000000000e-02,	 1.0000000000000000e-04,	 2.1131196038118263e-01,	 2.0730389277354052e+03,	 2.9755994961839622e+00,	 9.6602004832826015e+02,	 5.8727316453123327e+04,	 6.2376651374537255e+02,	 3.3234247392433356e+00 
2.9273670000000002e-02,	 1.0000000000000000e-04,	 2.0027252899530068e-01,	 2.0827909772360340e+03,	 2.9905806946244855e+00,	 9.4578855381933477e+02,	 5.4493584151984767e+04,	 6.1720013652421267e+02,	 3.3745830582291978e+00 
3.0056610000000001e-02,	 1.0000000000000000e-04,	 1.9016717774982511e-01,	 2.0920179176460815e+03,	 2.9843943661916521e+00,	 9.2669588320018636e+02,	 5.0699389804320970e+04,	 6.1093865353681247e+02,	 3.4242718712371114e+00 
3.0842519999999998e-02,	 1.0000000000000000e-04,	 1.8092599056342668e-01,	 2.1006548653177633e+03,	 2.9587572711933285e+00,	 9.0867790499675948e+02,	 4.7297791730464451e+04,	 6.0497018353371084e+02,	 3.4723313746483910e+00 
3.1631890000000003e-02,	 1.0000000000000000e-04,	 1.7247848082536862e-01,	 2.1086783163012351e+03,	 2.9251377995412744e+00,	 8.9171104601551281e+02,	 4.4247526928774743e+04,	 5.9929555952793316e+02,	 3.5185983136975869e+00 
3.2425200000000001e-02,	 1.0000000000000000e-04,	 1.6479985000280634e-01,	 2.1161314323591641e+03,	 2.8854720419149862e+00,	 8.7585801550454073e+02,	 4.1526034301407068e+04,	 5.9394446706270071e+02,	 3.5628472306181007e+00 
3.3222939999999999e-02,	 1.0000000000000000e-04,	 1.5794161406493928e-01,	 2.1230150648144963e+03,	 3.1100944837936400e+00,	 8.6127414463818218e+02,	 3.9135232594079687e+04,	 5.8897883890595892e+02,	 3.6045732081160060e+00 
3.4025619999999999e-02,	 1.0000000000000000e-04,	 1.5185383970039623e-01,	 2.1290112335628710e+03,	 3.8323495370208476e+00,	 8.4854864186170948e+02,	 3.7070842641646770e+04,	 5.8461150501693760e+02,	 3.6417598088997005e+00 
3.4833749999999997e-02,	 1.0000000000000000e-04,	 1.4620485329363259e-01,	 2.1337238114397155e+03,	 5.5934312203700411e+00,	 8.3797850374358404e+02,	 3.5247198541258615e+04,	 5.8095892183192336e+02,	 3.6727745502625662e+00 
3.5647880000000000e-02,	 1.0000000000000000e-04,	 1.4190421705463235e-01,	 2.1363651497843803e+03,	 3.8330463018501364e+00,	 8.3021584525314370e+02,	 3.3893487422325503e+04,	 5.7826178908693407e+02,	 3.6944661202026765e+00 
3.6468529999999999e-02,	 1.0000000000000000e-04,	 1.4083582185438098e-01,	 2.1344129138270800e+03,	 -3.2221066479644045e+00,	 8.2875817101767939e+02,	 3.3579242375413472e+04,	 5.7775391656493082e+02,	 3.6943329758104491e+00 
3.7296280000000001e-02,	 1.0000000000000000e-04,	 1.5204248188740133e-01,	 2.1181363401085837e+03,	 -1.9138422499816137e+01,	 8.5412645442166934e+02,	 3.7360876895368099e+04,	 5.8652978765109060e+02,	 3.6114496578978321e+00 
3.8131709999999999e-02,	 1.0000000000000000e-04,	 1.8730841846401031e-01,	 2.0786314949496050e+03,	 -3.4321985998868449e+01,	 9.3116754764739198e+02,	 5.0178198621719108e+04,	 6.1241088676928211e+02,	 3.3946405587390678e+00 
3.8975410000000002e-02,	 1.0000000000000000e-04,	 2.3813473956247355e-01,	 2.0291949865983929e+03,	 -3.4928363606091217e+01,	 1.0292106113083651e+03,	 7.0511012089241238e+04,	 6.4384468391967050e+02,	 3.1521508595530991e+00 
3.9828009999999997e-02,	 1.0000000000000000e-04,	 2.8493727457466206e-01,	 1.9893241154533216e+03,	 -3.0349691354831592e+01,	 1.1092785061760085e+03,	 9.0932640318018821e+04,	 6.6841976837112998e+02,	 2.9765062433289859e+00 
4.0690150000000001e-02,	 1.0000000000000000e-04,	 3.1981613107190238e-01,	 1.9645825703779535e+03,	 -1.9324752519210698e+01,	 1.1663646668258207e+03,	 1.0731604466113565e+05,	 6.8540325729174390e+02,	 2.8664550274758862e+00 
4.1562500000000002e-02,	 1.0000000000000000e-04,	 3.3509345843713101e-01,	 1.9569179234454832e+03,	 -7.0046276141247414e+00,	 1.1884880615670663e+03,	 1.1457522290505341e+05,	 6.9187302477616367e+02,	 2.8284531837098181e+00 
4.2445759999999999e-02,	 1.0000000000000000e-04,	 3.3376176395183205e-01,	 1.9605619475846688e+03,	 2.2987710118381965e+00,	 1.1848359662667967e+03,	 1.1376921157703489e+05,	 6.9080918138246875e+02,	 2.8380678023448986e+00 
4.3340669999999998e-02,	 1.0000000000000000e-04,	 3.2276171291703104e-01,	 1.9701311042027996e+03,	 6.3618276567920793e+00,	 1.1656957975963674e+03,	 1.0824234188839594e+05,	 6.8520670174354507e+02,	 2.8752511771653082e+00 
4.4247979999999999e-02,	 1.0000000000000000e-04,	 3.0760129546857817e-01,	 1.9821897057822837e+03,	 6.1595566528088632e+00,	 1.1410834182795168e+03,	 1.0098002923227390e+05,	 6.7793441903263249e+02,	 2.9238805706999695e+00 
4.5168500000000000e-02,	 1.0000000000000000e-04,	 2.9176733095493407e-01,	 1.9945019614080202e+03,	 4.6758158221877686e+00,	 1.1164954456677863e+03,	 9.3718117384082259e+04,	 6.7059060477462970e+02,	 2.9742549747639919e+00 
4.6103050000000000e-02,	 1.0000000000000000e-04,	 2.7818679070849583e-01,	 2.0052059857849756e+03,	 3.6900325219260512e+00,	 1.0950298576935686e+03,	 8.7637988887147920e+04,	 6.6411297778336484e+02,	 3.0193799068980156e+00 
4.7052530000000002e-02,	 1.0000000000000000e-04,	 2.6647195581513244e-01,	 2.0144515995623137e+03,	 3.3720112503208886e+00,	 1.0763607517370267e+03,	 8.2516215293341869e+04,	 6.5842742697764777e+02,	 3.0594934828723028e+00 
4.8017850000000001e-02,	 1.0000000000000000e-04,	 2.5581439012955803e-01,	 2.0229033064157957e+03,	 3.0772470981761697e+00,	 1.0592080166063897e+03,	 7.7953598405036566e+04,	 6.5316005375166139e+02,	 3.0971055797951883e+00 
4.9000000000000002e-02,	 1.0000000000000000e-04,	 2.4609464106692444e-01,	 2.0307934980329560e+03,	 2.8617813201742779e+00,	 1.0432760722464009e+03,	 7.3863748017789374e+04,	 6.4822922944557081e+02,	 3.1328354572516504e+00 
5.0000000000000003e-02,	 1.0000000000000000e-04,	 2.3818515554884775e-01,	 2.0368547498431567e+03,	 2.6165633603692022e+00,	 1.0298539544880362e+03,	 7.0570024761121065e+04,	 6.4404588101788192e+02,	 3.1625952288595434e+00 
0.0000000000000000e+00,	 2.6326529999999999e-04,	 3.1926765111189006e+00,	 7.5038479728279981e+02,	 -4.8946738820750166e+00,	 2.8308963458809558e+03,	 2.6002123842913387e+06,	 1.0678025913964445e+03,	 7.0275233161733941e-01 
9.9971869999999994e-04,	 2.6784560000000000e-04,	 3.0607902749892202e+00,	 8.1960085894673125e+02,	 -4.2784265322538770e+00,	 2.7718494953244335e+03,	 2.4408054014736493e+06,	 1.0566077925143315e+03,	 7.7570128827156470e-01 
1.9818309999999999e-03,	 2.7300700000000002e-04,	 2.7795776790572182e+00,	 9.3495781419666048e+02,	 -2.2863372670152398e+00,	 2.6676341748874402e+03,	 2.1332169482448981e+06,	 1.0365544557089474e+03,	 9.0198889651881742e-01 
2.9470809999999998e-03,	 2.7833529999999999e-04,	 2.4568894438145432e+00,	 1.0576290812176435e+03,	 1.1503308493210262e+00,	 2.5470877313357000e+03,	 1.8003604164852139e+06,	 1.0128635409788043e+03,	 1.0441976278210019e+00 
3.8964799999999999e-03,	 2.8372949999999999e-04,	 2.2053803694004568e+00,	 1.1562062920942594e+03,	 2.3914575748496585e+00,	 2.4414239450484133e+03,	 1.5490186323994964e+06,	 9.9163212198320048e+02,	 1.1659654217169007e+00 
4.8309670000000002e-03,	 2.8909280000000002e-04,	 2.0483447320916213e+00,	 1.2168043955442731e+03,	 3.9343741995927890e+00,	 2.3711402386176428e+03,	 1.3973018286005352e+06,	 9.7725433791549563e+02,	 1.2451321103975874e+00 
5.7514269999999999e-03,	 2.9441970000000000e-04,	 1.8881177918660708e+00,	 1.2778950254455467e+03,	 6.0517967016239318e+00,	 2.2962368818725163e+03,	 1.2473137513362311e+06,	 9.6169493934758293e+02,	 1.3288094831224622e+00 
6.6586800000000002e-03,	 2.9968470000000001e-04,	 1.7293054854011922e+00,	 1.3379894790780804e+03,	 8.5781484387292224e+00,	 2.2184075132700764e+03,	 1.1036795204252149e+06,	 9.4525645178142986e+02,	 1.4155068441835277e+00 
7.5535450000000001e-03,	 3.0487949999999999e-04,	 1.5779317958464643e+00,	 1.3957180297930763e+03,	 1.1062876436235252e+01,	 2.1399532066400170e+03,	 9.7145444961663743e+05,	 9.2839143474902119e+02,	 1.5034195929512522e+00 
8.4367569999999996e-03,	 3.0999590000000001e-04,	 1.4366904141402621e+00,	 1.4505226302532471e+03,	 1.3542973572619420e+01,	 2.0623833371381561e+03,	 8.5243745289180567e+05,	 9.1140977504209127e+02,	 1.5915846980947552e+00 
9.3090729999999993e-03,	 3.1504459999999999e-04,	 1.3065115255594721e+00,	 1.5021402967196905e+03,	 1.5674092743250128e+01,	 1.9866929693366549e+03,	 7.4674777558775537e+05,	 8.9452887508724712e+02,	 1.6793444147445367e+00 
1.0171180000000000e-02,	 3.2002650000000001e-04,	 1.1875604841024783e+00,	 1.5503741279929059e+03,	 1.7393985764740641e+01,	 1.9134040926170478e+03,	 6.5372090625492204e+05,	 8.7787430145876351e+02,	 1.7661659485963239e+00 
1.1023760000000001e-02,	 3.2494510000000002e-04,	 1.0796387803376093e+00,	 1.5952029884013803e+03,	 1.9063305511169311e+01,	 1.8429192509371169e+03,	 5.7241989547911845e+05,	 8.6155327948019760e+02,	 1.8516752583322100e+00 
1.1867440000000000e-02,	 3.2980500000000002e-04,	 9.8232210203819026e-01,	 1.6367972809287430e+03,	 2.0521842505695755e+01,	 1.7755936829331336e+03,	 5.0179628810070880e+05,	 8.4566972322368099e+02,	 1.9356562974097165e+00 
1.2702860000000000e-02,	 3.3460930000000003e-04,	 8.9497670313180611e-01,	 1.6753512507081346e+03,	 2.1756052697029183e+01,	 1.7115710656555671e+03,	 4.4069345846767531e+05,	 8.3028359026544410e+02,	 2.0179761783403842e+00 
1.3530600000000000e-02,	 3.3936220000000002e-04,	 8.1684331221215689e-01,	 1.7111160693021543e+03,	 2.2949317133771203e+01,	 1.6509694567340111e+03,	 3.8797856638032617e+05,	 8.1545219480303467e+02,	 2.0985533796563627e+00 
1.4351269999999999e-02,	 3.4406740000000001e-04,	 7.4703676704152211e-01,	 1.7443167511653428e+03,	 2.3923280040771672e+01,	 1.5937820088758544e+03,	 3.4253175098022231e+05,	 8.0120462312867051e+02,	 2.1773224302753036e+00 
1.5165400000000001e-02,	 3.4873119999999998e-04,	 6.8451232670549889e-01,	 1.7750481989517727e+03,	 2.4677704080059769e+01,	 1.5397119598617346e+03,	 3.0321500839734194e+05,	 7.8749667392936396e+02,	 2.2542568000536312e+00 
1.5973550000000000e-02,	 3.5335489999999999e-04,	 6.2847755517704451e-01,	 1.8035014945188159e+03,	 2.5383785339307291e+01,	 1.4886123412782376e+03,	 2.6915430154735129e+05,	 7.7431878280551825e+02,	 2.3293766864612611e+00 
1.6776249999999999e-02,	 3.5794300000000000e-04,	 5.7830734258323924e-01,	 1.8299301319771682e+03,	 2.5991122785288745e+01,	 1.4404580170282459e+03,	 2.3965652011851338e+05,	 7.6169181556830426e+02,	 2.4026970825483120e+00 
1.7574030000000001e-02,	 3.6249939999999999e-04,	 5.3334405449110089e-01,	 1.8545307550528285e+03,	 2.6462055184363727e+01,	 1.3950851474081364e+03,	 2.1406127638011007e+05,	 7.4959959651600127e+02,	 2.4742803302662364e+00 
1.8367370000000001e-02,	 3.6702790000000000e-04,	 4.9300021316276776e-01,	 1.8774910026025600e+03,	 2.6859446058647944e+01,	 1.3523449607391708e+03,	 1.9180703483049749e+05,	 7.3802781526011006e+02,	 2.5441901781937273e+00 
1.9156780000000002e-02,	 3.7153159999999996e-04,	 4.5669717747408839e-01,	 1.8989230303066547e+03,	 2.7151651142783404e+01,	 1.3120227216719668e+03,	 1.7238505876554883e+05,	 7.2694183796102288e+02,	 2.6124746636422009e+00 
1.9942740000000000e-02,	 3.7601349999999997e-04,	 4.2387557275267107e-01,	 1.9188673544439675e+03,	 2.7334640343105086e+01,	 1.2738407410098766e+03,	 1.5534005758685447e+05,	 7.1628615024991007e+02,	 2.6791835044476153e+00 
2.0725730000000001e-02,	 3.8047690000000002e-04,	 3.9416912629873302e-01,	 1.9374734982561090e+03,	 2.7497723627975343e+01,	 1.2377000282794622e+03,	 1.4035501761849926e+05,	 7.0605199908427619e+02,	 2.7443709848493150e+00 
2.1506210000000001e-02,	 3.8492520000000001e-04,	 3.6732754972984799e-01,	 1.9549675783966788e+03,	 2.7651027133633878e+01,	 1.2035981528975099e+03,	 1.2719350991966361e+05,	 6.9625726992499904e+02,	 2.8081044190025857e+00 
2.2284650000000000e-02,	 3.8936059999999999e-04,	 3.4303783310228070e-01,	 1.9714673413272917e+03,	 2.7734678312400195e+01,	 1.1714121570687835e+03,	 1.1560634870034162e+05,	 6.8688471140965453e+02,	 2.8704415532697745e+00 
2.3061519999999999e-02,	 3.9378629999999997e-04,	 3.2093859661925978e-01,	 1.9869657507890829e+03,	 2.7728456037528673e+01,	 1.1409019827102452e+03,	 1.0534167546758380e+05,	 6.7788052012171170e+02,	 2.9314298908463825e+00 
2.3837259999999999e-02,	 3.9820489999999997e-04,	 3.0073687392095327e-01,	 2.0014631915816376e+03,	 2.7659360571061193e+01,	 1.1118722374137865e+03,	 9.6199209846510377e+04,	 6.6920076654481659e+02,	 2.9911117900033641e+00 
2.4612330000000002e-02,	 4.0261989999999998e-04,	 2.8227143087968082e-01,	 2.0150853308484668e+03,	 2.7569585826770297e+01,	 1.0842857021884015e+03,	 8.8052277430987233e+04,	 6.6084689240153034e+02,	 3.0495322640985552e+00 
2.5387170000000001e-02,	 4.0703330000000000e-04,	 2.6542712924370049e-01,	 2.0280069501116827e+03,	 2.7480282087825895e+01,	 1.0581587713217805e+03,	 8.0802739222813689e+04,	 6.5283646532539194e+02,	 3.1067399472002681e+00 
2.6162250000000001e-02,	 4.1144869999999999e-04,	 2.5004056369475391e-01,	 2.0402792480315011e+03,	 2.7347949518496797e+01,	 1.0334064396820222e+03,	 7.4338119427122161e+04,	 6.4515574409976296e+02,	 3.1627441043960118e+00 
2.6938009999999998e-02,	 4.1586850000000002e-04,	 2.3591639862132197e-01,	 2.0518592256381571e+03,	 2.7141981197447588e+01,	 1.0098634519726118e+03,	 6.8541045111979140e+04,	 6.3776445985062992e+02,	 3.2175495248614689e+00 
2.7714889999999999e-02,	 4.2029680000000002e-04,	 2.2290534512856131e-01,	 2.0627370795207817e+03,	 2.6880026620114208e+01,	 9.8741328284056749e+02,	 6.3321236263858758e+04,	 6.3063557920587994e+02,	 3.2711636960816133e+00 
2.8493370000000001e-02,	 4.2473529999999997e-04,	 2.1093424769060137e-01,	 2.0730007173857348e+03,	 2.6588718105943709e+01,	 9.6605155375605091e+02,	 5.8624255330146902e+04,	 6.2377668530995993e+02,	 3.3235792155770669e+00 
2.9273890000000000e-02,	 4.2918759999999997e-04,	 1.9996571884571407e-01,	 2.0827448045727406e+03,	 2.6233199340261379e+01,	 9.4582659502195509e+02,	 5.4412290450613567e+04,	 6.1721254881196410e+02,	 3.3747045682727594e+00 
3.0056929999999999e-02,	 4.3365610000000002e-04,	 1.8994037395129815e-01,	 2.0919645543475162e+03,	 2.5735557478068046e+01,	 9.2674416470138999e+02,	 5.0641561256567104e+04,	 6.1095456849428501e+02,	 3.4243509369568557e+00 
3.0842939999999999e-02,	 4.3814560000000002e-04,	 1.8077688466030856e-01,	 2.1005970636647771e+03,	 2.5091010173115684e+01,	 9.0874403573807581e+02,	 4.7262251715808445e+04,	 6.0499219705391386e+02,	 3.4723537276924641e+00 
3.1632410000000000e-02,	 4.4265819999999998e-04,	 1.7241736461844664e-01,	 2.1086149854445675e+03,	 2.4394707949269588e+01,	 8.9180043182086388e+02,	 4.4236282048081979e+04,	 5.9932559570058174e+02,	 3.5185483614510682e+00 
3.2425820000000001e-02,	 4.4719889999999998e-04,	 1.6475723224537597e-01,	 2.1160449108097810e+03,	 2.3668238254980050e+01,	 8.7599752763632091e+02,	 4.1521908354270665e+04,	 5.9399176877019352e+02,	 3.5626373699032734e+00 
3.3223669999999997e-02,	 4.5177180000000001e-04,	 1.5771113756650551e-01,	 2.1229329385891524e+03,	 2.2776949020246136e+01,	 8.6140048433959828e+02,	 3.9083856799551919e+04,	 5.8902203576869522e+02,	 3.6043729998209582e+00 
3.4026450000000000e-02,	 4.5638119999999997e-04,	 1.5149712050230352e-01,	 2.1291647008792652e+03,	 2.1203676638238314e+01,	 8.4792951684239642e+02,	 3.6956775291465477e+04,	 5.8439819157951786e+02,	 3.6435264675534071e+00 
3.4834700000000003e-02,	 4.6103189999999997e-04,	 1.4690858126539091e-01,	 2.1339564445332048e+03,	 1.6572243890176807e+01,	 8.3673917421271994e+02,	 3.5364474110714975e+04,	 5.8052915785053131e+02,	 3.6759924363614354e+00 
3.5648939999999997e-02,	 4.6572859999999998e-04,	 1.4550405002978573e-01,	 2.1350905091708382e+03,	 5.4090626902096348e+00,	 8.3259418584838181e+02,	 3.4852857700521316e+04,	 5.7908947741464181e+02,	 3.6869904291520639e+00 
3.6469700000000001e-02,	 4.7047639999999997e-04,	 1.5093413862291072e-01,	 2.1279340703101147e+03,	 -1.9731526112984568e+01,	 8.4531989746867839e+02,	 3.6706122507962027e+04,	 5.8349821580652565e+02,	 3.6470129508175133e+00 
3.7297570000000002e-02,	 4.7528000000000002e-04,	 1.6811260512324780e-01,	 2.1066018872878635e+03,	 -6.3996151201172665e+01,	 8.8645018959480831e+02,	 4.2873067023062111e+04,	 5.9752510268815536e+02,	 3.5271718602341466e+00 
3.8133109999999998e-02,	 4.8014809999999999e-04,	 1.9945542535477331e-01,	 2.0712867806395925e+03,	 -1.0283595067009355e+02,	 9.5470953765507249e+02,	 5.4783156605497112e+04,	 6.2010412051910430e+02,	 3.3443384069485642e+00 
3.8976940000000002e-02,	 4.8508660000000001e-04,	 2.4241689369230435e-01,	 2.0314912955488658e+03,	 -1.0896552330369963e+02,	 1.0375701890930698e+03,	 7.2361957177345306e+04,	 6.4645415213216552e+02,	 3.1470314589607584e+00 
3.9829669999999998e-02,	 4.9010690000000001e-04,	 2.8536203497453388e-01,	 1.9991885344407010e+03,	 -8.7626096788471784e+01,	 1.1084530252213790e+03,	 9.1000425681145294e+04,	 6.6817101637848816e+02,	 2.9949038888473667e+00 
4.0691959999999999e-02,	 4.9521130000000006e-04,	 3.1572982516238857e-01,	 1.9792873031444949e+03,	 -5.1489360853843763e+01,	 1.1514652211034681e+03,	 1.0459149521903034e+05,	 6.8101142684601871e+02,	 2.9073769342119919e+00 
4.1564480000000001e-02,	 5.0041500000000004e-04,	 3.2846024285198955e-01,	 1.9714026280628866e+03,	 -1.6513860918237842e+01,	 1.1685496754959763e+03,	 1.1042309770601460e+05,	 6.8604495682655181e+02,	 2.8736772614012018e+00 
4.2447930000000002e-02,	 5.0572219999999997e-04,	 3.2769681860630384e-01,	 1.9722038623827914e+03,	 6.6699426693759776e+00,	 1.1673489362094106e+03,	 1.1005324548274992e+05,	 6.8569239464142345e+02,	 2.8762389032607771e+00 
4.3343039999999999e-02,	 5.1114290000000000e-04,	 3.1808317706452610e-01,	 1.9787061539085257e+03,	 1.8513994935864911e+01,	 1.1547247056011829e+03,	 1.0566936454570453e+05,	 6.8197462464526370e+02,	 2.9015636281464370e+00 
4.4250650000000002e-02,	 5.1668190000000004e-04,	 3.0501318587884241e-01,	 1.9877649370938852e+03,	 2.4030622449886536e+01,	 1.1362130826747277e+03,	 9.9703025575328109e+04,	 6.7648610300694747e+02,	 2.9385824472442144e+00 
4.5171490000000002e-02,	 5.2232500000000002e-04,	 2.9128028066913941e-01,	 1.9976509184779318e+03,	 2.4653401705567799e+01,	 1.1154803294135227e+03,	 9.3476606586213282e+04,	 6.7028568538377408e+02,	 2.9805246963830032e+00 
4.6106389999999997e-02,	 5.2803970000000003e-04,	 2.7812004721660882e-01,	 2.0075172606499502e+03,	 2.2897049518660431e+01,	 1.0951746557478371e+03,	 8.7628548263425182e+04,	 6.6415688484562361e+02,	 3.0228517992329671e+00 
4.7056140000000003e-02,	 5.3376740000000002e-04,	 2.6630231018184514e-01,	 2.0168176823781337e+03,	 2.1162170755478751e+01,	 1.0763727065442870e+03,	 8.2464598400916177e+04,	 6.5843108344278528e+02,	 3.0632343396456414e+00 
4.8021729999999999e-02,	 5.3952700000000004e-04,	 2.5571351532311032e-01,	 2.0254116656841607e+03,	 1.9903637551956209e+01,	 1.0590637270882917e+03,	 7.7912244148457277e+04,	 6.5311556420960937e+02,	 3.1013033074634251e+00 
4.9003510000000000e-02,	 5.4481090000000005e-04,	 2.4609674556192693e-01,	 2.0334167814307750e+03,	 1.8950588927263009e+01,	 1.0429043276499942e+03,	 7.3838059996654236e+04,	 6.4811372924869568e+02,	 3.1375744618598906e+00 
5.0000000000000003e-02,	 5.4897959999999999e-04,	 2.3821763972635451e-01,	 2.0395523895236920e+03,	 1.8303035152032486e+01,	 1.0293592877293631e+03,	 7.0545747927170931e+04,	 6.4389118609593470e+02,	 3.1676695659846543e+00 
0.0000000000000000e+00,	 4.2653059999999999e-04,	 3.1901953970986687e+00,	 7.4690942867065883e+02,	 -8.9513555777547573e+00,	 2.8332031551301743e+03,	 2.6003088754105777e+06,	 1.0682375623381433e+03,	 6.9924808109847869e-01 
9.9880699999999999e-04,	 4.3478849999999998e-04,	 3.0578991955313222e+00,	 8.1694915452908936e+02,	 -7.7338422175105439e+00,	 2.7733111173422985e+03,	 2.4397857744465647e+06,	 1.0568863353574843e+03,	 7.7301194414160612e-01 
1.9807929999999998e-03,	 4.4463670000000001e-04,	 2.7756804382059914e+00,	 9.3331518937263684e+02,	 -3.8667421258448367e+00,	 2.6684221627687784e+03,	 2.1308552124021845e+06,	 1.0367075374261333e+03,	 9.0027627429776313e-01 
2.9458819999999999e-03,	 4.5510890000000000e-04,	 2.4529947049867977e+00,	 1.0563028435920787e+03,	 2.4626600128459946e+00,	 2.5481797588574341e+03,	 1.7982770834630013e+06,	 1.0130806431070226e+03,	 1.0426669599235390e+00 
3.8951400000000001e-03,	 4.6581629999999997e-04,	 2.2032605436334238e+00,	 1.1546709825471589e+03,	 4.2817416003683810e+00,	 2.4429025427777010e+03,	 1.5484669349873029e+06,	 9.9193235723665589e+02,	 1.1640702239983218e+00 
4.8294770000000004e-03,	 4.7656799999999997e-04,	 2.0453873435882901e+00,	 1.2157557822817839e+03,	 7.1910222314293151e+00,	 2.3721641249532572e+03,	 1.3958869124218896e+06,	 9.7746531012047012e+02,	 1.2438058276276815e+00 
5.7498209999999996e-03,	 4.8727819999999997e-04,	 1.8848337436979887e+00,	 1.2771248557013143e+03,	 1.1299052176969338e+01,	 2.2969812680075402e+03,	 1.2455479154368970e+06,	 9.6185080618709924e+02,	 1.3278305006542177e+00 
6.6569710000000002e-03,	 4.9788440000000001e-04,	 1.7266012327832552e+00,	 1.3374160668723789e+03,	 1.5513331434642849e+01,	 2.2191201693270627e+03,	 1.1023076078630523e+06,	 9.4540826983989120e+02,	 1.4147390918893774e+00 
7.5517709999999997e-03,	 5.0835330000000001e-04,	 1.5753926052032188e+00,	 1.3952710800773241e+03,	 1.9815615591324150e+01,	 2.1406440088142517e+03,	 9.7020428804235929e+05,	 9.2854127051889077e+02,	 1.5027999592488746e+00 
8.4349079999999996e-03,	 5.1866979999999998e-04,	 1.4341243845992881e+00,	 1.4501175483773122e+03,	 2.3974107973615578e+01,	 2.0630413244667693e+03,	 8.5118641777302045e+05,	 9.1155515254003069e+02,	 1.5910345162261457e+00 
9.3071820000000006e-03,	 5.2885040000000001e-04,	 1.3038159757988661e+00,	 1.5017205378869890e+03,	 2.7781908269179581e+01,	 1.9872105912367565e+03,	 7.4540127079813939e+05,	 8.9464539978111316e+02,	 1.6788523136048108e+00 
1.0169269999999999e-02,	 5.3889260000000000e-04,	 1.1850030400400327e+00,	 1.5499894956267426e+03,	 3.1146035175121874e+01,	 1.9138718166947624e+03,	 6.5247255572243989e+05,	 8.7798159135640776e+02,	 1.7657572880916359e+00 
1.1021860000000000e-02,	 5.4880480000000001e-04,	 1.0773058842628218e+00,	 1.5948729634602107e+03,	 3.4099204444215417e+01,	 1.8433682579551869e+03,	 5.7132216634987481e+05,	 8.6165822708141809e+02,	 1.8513575347394866e+00 