TITLE = "Final State"
VARIABLES = "X", "Y", "rho", "u", "v", "T", "p", "c", "M"
ZONE I=77, J=27, DATAPACKING=POINT, STRANDID=68000, SOLUTIONTIME=0.001641
-7.7777780000000005e-02,	 1.0000000000000000e-04,	 1.1521929919264443e-02,	 1.7360198623857780e+03,	 1.0601667374006747e+00,	 2.9993687348776621e+02,	 9.9422579569762104e+02,	 3.4757130669655936e+02,	 4.9947166312464715e+00 
-7.2222220000000004e-02,	 1.0000000000000000e-04,	 1.1523328618070414e-02,	 1.7360136561632719e+03,	 8.1201784668658494e-01,	 2.9995460806662800e+02,	 9.9440528265651108e+02,	 3.4758158209145080e+02,	 4.9945507343268423e+00 
-6.6666669999999997e-02,	 1.0000000000000000e-04,	 1.1526935711717118e-02,	 1.7359959234549706e+03,	 5.0857316402262642e-01,	 2.9999148638814245e+02,	 9.9483885345085901e+02,	 3.4760294837659512e+02,	 4.9941923854724104e+00 
-6.1111110000000003e-02,	 1.0000000000000000e-04,	 1.1531393479246796e-02,	 1.7359709171966210e+03,	 2.8597731469081933e-01,	 3.0003233683121675e+02,	 9.9535910524951555e+02,	 3.4762661446668551e+02,	 4.9937803048114988e+00 
-5.5555559999999997e-02,	 1.0000000000000000e-04,	 1.1536384805225734e-02,	 1.7359423588390446e+03,	 1.2398402216667533e-01,	 3.0008227162727565e+02,	 9.9595567388013058e+02,	 3.4765554125185287e+02,	 4.9932825952256268e+00 
-5.0000000000000003e-02,	 1.0000000000000000e-04,	 1.1541538106978111e-02,	 1.7359128220614111e+03,	 9.9376471919294367e-03,	 3.0013559410860444e+02,	 9.9657762044454853e+02,	 3.4768642783600302e+02,	 4.9927540539737514e+00 
-4.4444440000000002e-02,	 1.0000000000000000e-04,	 1.1546583598781020e-02,	 1.7358837652928764e+03,	 -6.6923160603661741e-02,	 3.0018784798096959e+02,	 9.9718686460744652e+02,	 3.4771669277605696e+02,	 4.9922359284053419e+00 
-3.8888890000000002e-02,	 1.0000000000000000e-04,	 1.1551393824178821e-02,	 1.7358560458666329e+03,	 -1.1608188038896841e-01,	 3.0023762627271174e+02,	 9.9776771184025370e+02,	 3.4774552143384921e+02,	 4.9917423597307549e+00 
-3.3333330000000001e-02,	 1.0000000000000000e-04,	 1.1555809971091005e-02,	 1.7358306286031022e+03,	 -1.4384791436308639e-01,	 3.0028329545455404e+02,	 9.9830099126404139e+02,	 3.4777196823495711e+02,	 4.9912896757414513e+00 
-2.7777779999999998e-02,	 1.0000000000000000e-04,	 1.1559750837887246e-02,	 1.7358079615488050e+03,	 -1.5574399042721906e-01,	 3.0032402996373628e+02,	 9.9877691019773806e+02,	 3.4779555569428692e+02,	 4.9908859964317287e+00 
-2.2222220000000001e-02,	 1.0000000000000000e-04,	 1.1563182163350550e-02,	 1.7357882395918166e+03,	 -1.5626296017315205e-01,	 3.0035948716305336e+02,	 9.9919133474824650e+02,	 3.4781608600679368e+02,	 4.9905347005475678e+00 
-1.6666670000000001e-02,	 1.0000000000000000e-04,	 1.1566100266058220e-02,	 1.7357714835460972e+03,	 -1.4895452487806338e-01,	 3.0038963735779066e+02,	 9.9954381673563955e+02,	 3.4783354252144028e+02,	 4.9902360691115382e+00 
-1.1111110000000000e-02,	 1.0000000000000000e-04,	 1.1568522989444894e-02,	 1.7357575911993877e+03,	 -1.3657846754344177e-01,	 3.0041466734968947e+02,	 9.9983649330949834e+02,	 3.4784803384922526e+02,	 4.9899882352795046e+00 
-5.5555559999999997e-03,	 1.0000000000000000e-04,	 1.1545841288737148e-02,	 1.7358397753898100e+03,	 3.3584689020056979e+00,	 3.0028054426292510e+02,	 9.9743066295112862e+02,	 3.4777037509019385e+02,	 4.9913481672687228e+00 
0.0000000000000000e+00,	 1.0000000000000000e-04,	 1.1620076645710836e-02,	 1.7326144186611418e+03,	 3.1223990340936233e+01,	 3.0484328930346931e+02,	 1.0190971081422413e+03,	 3.5040258880551164e+02,	 4.9454421852668977e+00 
4.0447620000000004e-03,	 1.1838100000000000e-03,	 1.2051065638805772e-02,	 1.7196012161478416e+03,	 8.6032796494298410e+01,	 3.2439130123899497e+02,	 1.1246686495178112e+03,	 3.6146278171634418e+02,	 4.7632898801667798e+00 
8.0895240000000007e-03,	 2.2676189999999998e-03,	 1.2731895761608276e-02,	 1.7018553270598986e+03,	 1.4015596992118643e+02,	 3.4919873885653004e+02,	 1.2790740215528990e+03,	 3.7502940412489727e+02,	 4.5532878615535717e+00 
1.2134290000000001e-02,	 3.3514290000000000e-03,	 1.3515654986492910e-02,	 1.6867662928208447e+03,	 1.8237249729308346e+02,	 3.6787622502546640e+02,	 1.4304370680218963e+03,	 3.8492830491790727e+02,	 4.4075653737862597e+00 
1.6179050000000000e-02,	 4.4352380000000002e-03,	 1.4339258674285264e-02,	 1.6745277492036221e+03,	 2.1497811720269490e+02,	 3.8176327726461818e+02,	 1.5748920366102257e+03,	 3.9212638142481035e+02,	 4.3054255515870041e+00 
2.0223809999999998e-02,	 5.5190480000000004e-03,	 1.5164444181595189e-02,	 1.6646963046550593e+03,	 2.4044256479973751e+02,	 3.9221164168142900e+02,	 1.7111060019199654e+03,	 3.9745615489105467e+02,	 4.2318403427508917e+00 
2.4268570000000000e-02,	 6.6028570000000002e-03,	 1.5967781443285728e-02,	 1.6567244629710110e+03,	 2.6076511008657229e+02,	 4.0025154192254541e+02,	 1.8386858368549217e+03,	 4.0150919301982736e+02,	 4.1770422497853748e+00 
2.8313330000000001e-02,	 7.6866670000000003e-03,	 1.6734463979531024e-02,	 1.6501596439455559e+03,	 2.7737585339800489e+02,	 4.0658358221848721e+02,	 1.9574540742562976e+03,	 4.0467269859575345e+02,	 4.1349697320662493e+00 
3.2358100000000001e-02,	 8.7704759999999993e-03,	 1.7454904594628409e-02,	 1.6446701359926988e+03,	 2.9124754887988865e+02,	 4.1166963170933201e+02,	 2.0672654564771219e+03,	 4.0719590517331841e+02,	 4.1018559814324274e+00 
3.6402860000000002e-02,	 9.8542859999999986e-03,	 1.8123283265950640e-02,	 1.6400176763550689e+03,	 3.0303131525221886e+02,	 4.1581919567755028e+02,	 2.1680602649394750e+03,	 4.0924299428556935e+02,	 4.0752774577378883e+00 
4.0447619999999997e-02,	 1.0938099999999999e-02,	 1.8737837375612791e-02,	 1.6360200935807093e+03,	 3.1317516737525921e+02,	 4.1925970657501841e+02,	 2.2601253629498574e+03,	 4.1093255612583761e+02,	 4.0535245314850101e+00 
4.4492379999999998e-02,	 1.2021899999999999e-02,	 1.9300244199501888e-02,	 1.6325369997205871e+03,	 3.2199935387640608e+02,	 4.2216520452652850e+02,	 2.3440948285746631e+03,	 4.1235399283428598e+02,	 4.0353419724021800e+00 
4.8537139999999999e-02,	 1.3105710000000000e-02,	 1.9814045122414616e-02,	 1.6294670113206309e+03,	 3.2973398562725527e+02,	 4.2466151823652751e+02,	 2.4207279979924774e+03,	 4.1357134531546103e+02,	 4.0198488173992786e+00 
5.2581900000000001e-02,	 1.4189519999999999e-02,	 2.0283469687231329e-02,	 1.6267345625833195e+03,	 3.3655941867853937e+02,	 4.2683830361684750e+02,	 2.4907811482363054e+03,	 4.1462995941690173e+02,	 4.0064292431863588e+00 
5.6626669999999997e-02,	 1.5273330000000000e-02,	 2.0712783669738256e-02,	 1.6242738023937093e+03,	 3.4264669470429283e+02,	 4.2876395007470649e+02,	 2.5549750886750653e+03,	 4.1556419167490219e+02,	 3.9946216800975645e+00 
6.0671429999999998e-02,	 1.6357139999999999e-02,	 2.1106975412246806e-02,	 1.6220423437116315e+03,	 3.4810099948482542e+02,	 4.3048695857918159e+02,	 2.6140623431383392e+03,	 4.1639833682306505e+02,	 3.9841040080754615e+00 
6.4716190000000007e-02,	 1.7440950000000000e-02,	 2.1470843141954292e-02,	 1.6200089380825661e+03,	 3.5300258773344103e+02,	 4.3204374020758132e+02,	 2.6687430030670707e+03,	 4.1715057363552364e+02,	 3.9746387980760978e+00 
6.8760950000000001e-02,	 1.8524759999999998e-02,	 2.1808546477403244e-02,	 1.6181484305270810e+03,	 3.5742105459829298e+02,	 4.3346197131556505e+02,	 2.7196164561459609e+03,	 4.1783468400373977e+02,	 3.9660480246673471e+00 
7.2805709999999996e-02,	 1.9608569999999999e-02,	 2.2123447442664722e-02,	 1.6164401045235202e+03,	 3.6141840244251625e+02,	 4.3476239485971632e+02,	 2.7671628135689043e+03,	 4.1846098477913330e+02,	 3.9581993009555849e+00 
7.6850479999999999e-02,	 2.0692380000000000e-02,	 2.2418122301974153e-02,	 1.6148667697299034e+03,	 3.6504997817627952e+02,	 4.3596028557009879e+02,	 2.8117460906462588e+03,	 4.1903707613656502e+02,	 3.9509953349037570e+00 
8.0895239999999993e-02,	 2.1776190000000001e-02,	 2.2694454769517411e-02,	 1.6134142688265931e+03,	 3.6836467567274906e+02,	 4.3706654822393136e+02,	 2.8536273514256236e+03,	 4.1956839903236539e+02,	 3.9443663149275907e+00 
8.4940000000000002e-02,	 2.2859999999999998e-02,	 2.2953754779583974e-02,	 1.6120708527872262e+03,	 3.7140468237745404e+02,	 4.3808887787380161e+02,	 2.8929831401235610e+03,	 4.2005881254090980e+02,	 3.9382619229265754e+00 
8.8984759999999996e-02,	 2.3943809999999999e-02,	 2.3196949860883435e-02,	 1.6108263083812685e+03,	 3.7420568051891689e+02,	 4.3903334469920873e+02,	 2.9299373059420450e+03,	 4.2051136684779431e+02,	 3.9326414655819812e+00 
9.3029520000000004e-02,	 2.5027620000000000e-02,	 2.3424741850008007e-02,	 1.6096716843351046e+03,	 3.7679694749624912e+02,	 4.3990528703841005e+02,	 2.9645851754635382e+03,	 4.2092873809956677e+02,	 3.9274687472181680e+00 
9.7074289999999994e-02,	 2.6111429999999998e-02,	 2.3637796837809665e-02,	 1.6085989433564816e+03,	 3.7920201880748743e+02,	 4.4071000970051142e+02,	 2.9970214257337780e+03,	 4.2131356653346091e+02,	 3.9227081233486114e+00 
1.0111900000000000e-01,	 2.7195239999999999e-02,	 2.3836805292310557e-02,	 1.6076014877904822e+03,	 3.8143798720216489e+02,	 4.4145258025342105e+02,	 3.0273459030465165e+03,	 4.2166836148531877e+02,	 3.9183259616718376e+00 
1.0516380000000000e-01,	 2.8279050000000000e-02,	 2.4022479448128194e-02,	 1.6066735991847218e+03,	 3.8351812374425782e+02,	 4.4213796665656713e+02,	 3.0556638592126378e+03,	 4.2199556953215978e+02,	 3.9142899236073960e+00 
1.0920860000000000e-01,	 2.9362860000000001e-02,	 2.4195624895594063e-02,	 1.6058089812247920e+03,	 3.8545772674638977e+02,	 4.4277145319908516e+02,	 3.0820976429171496e+03,	 4.2229777477943298e+02,	 3.9105668328798906e+00 
1.1325330000000000e-01,	 3.0446669999999999e-02,	 2.4356889680464660e-02,	 1.6050027742276066e+03,	 3.8726786307011480e+02,	 4.4335709695135751e+02,	 3.1067437355145212e+03,	 4.2257696433176136e+02,	 3.9071305936970395e+00 
1.1729810000000000e-01,	 3.1530480000000000e-02,	 2.4506983200775607e-02,	 1.6042506390257631e+03,	 3.8895597833865952e+02,	 4.4389915027041155e+02,	 3.1297100482285300e+03,	 4.2283520907151757e+02,	 3.9039539677883583e+00 
1.2134290000000000e-01,	 3.2614290000000004e-02,	 2.4646955817245846e-02,	 1.6035473678223611e+03,	 3.9053063373396981e+02,	 4.4440342074707996e+02,	 3.1511611770973682e+03,	 4.2307531179656922e+02,	 3.9010019704016097e+00 
1.2538759999999999e-01,	 3.3698100000000002e-02,	 2.4777691599398854e-02,	 1.6028892363620371e+03,	 3.9199715175707308e+02,	 4.4487451470352681e+02,	 3.1712341370496870e+03,	 4.2329949484912146e+02,	 3.8982469296332800e+00 
1.2943240000000000e-01,	 3.4781900000000004e-02,	 2.4900041676058422e-02,	 1.6022724312121541e+03,	 3.9336165381155774e+02,	 4.4531663210418873e+02,	 3.1900605568068049e+03,	 4.2350978066255351e+02,	 3.8956635364242254e+00 
1.3347709999999999e-01,	 3.5865710000000002e-02,	 2.5014918739294338e-02,	 1.6016931148875099e+03,	 3.9463253829486086e+02,	 4.4573376148419374e+02,	 3.2077799183869629e+03,	 4.2370808565473504e+02,	 3.8932289333221295e+00 
1.3752190000000000e-01,	 3.6949520000000000e-02,	 2.5122843589970377e-02,	 1.6011486891486784e+03,	 3.9581590845957146e+02,	 4.4612793036922523e+02,	 3.2244685516531222e+03,	 4.2389538988378115e+02,	 3.8909306273549391e+00 
1.4156669999999999e-01,	 3.8033330000000004e-02,	 2.5224513034426167e-02,	 1.6006355719356045e+03,	 3.9692166038919828e+02,	 4.4650174314028726e+02,	 3.2402303607141907e+03,	 4.2407294470647560e+02,	 3.8887536911259604e+00 
1.4561140000000000e-01,	 3.9117140000000002e-02,	 2.5320323427166593e-02,	 1.6001515695095311e+03,	 3.9795719936733963e+02,	 4.4685619329349601e+02,	 3.2551197325386734e+03,	 4.2424123397227402e+02,	 3.8866921597031090e+00 
1.4965619999999999e-01,	 4.0200950000000006e-02,	 2.5410530269007789e-02,	 1.5996950500856447e+03,	 3.9892836678112178e+02,	 4.4719155429995328e+02,	 3.2691681439915264e+03,	 4.2440039847034177e+02,	 3.8847437111141838e+00 
1.5370100000000000e-01,	 4.1284760000000004e-02,	 2.5495593217801989e-02,	 1.5992633731349374e+03,	 3.9984329289613271e+02,	 4.4750923860354101e+02,	 3.2824420257944839e+03,	 4.2455111845520941e+02,	 3.8829001708357183e+00 
1.5774569999999999e-01,	 4.2368570000000001e-02,	 2.5575731479757276e-02,	 1.5988551939330569e+03,	 4.0070715637707576e+02,	 4.4780950966893954e+02,	 3.2949688490933945e+03,	 4.2469352784984824e+02,	 3.8811597292396693e+00 
1.6179050000000000e-01,	 4.3452380000000006e-02,	 2.5651112214345274e-02,	 1.5984693072449991e+03,	 4.0152409590996990e+02,	 4.4809244389216911e+02,	 3.3067682460598462e+03,	 4.2482767122659584e+02,	 3.8795211739945135e+00 
1.6583519999999999e-01,	 4.4536190000000003e-02,	 2.5722048156964446e-02,	 1.5981043495751401e+03,	 4.0229861503497898e+02,	 4.4835874487541980e+02,	 3.3178834733355434e+03,	 4.2495388985014773e+02,	 3.8779804813089354e+00 
1.6988000000000000e-01,	 4.5620000000000001e-02,	 2.5788668260180076e-02,	 1.5977594341408362e+03,	 4.0303251158288720e+02,	 4.4860877236200247e+02,	 3.3283318028442718e+03,	 4.2507236121456572e+02,	 3.8765347047110921e+00 
1.7392479999999999e-01,	 4.6703810000000005e-02,	 2.5851421145991458e-02,	 1.5974325156014220e+03,	 4.0372969952720331e+02,	 4.4884443252384455e+02,	 3.3381834744247467e+03,	 4.2518399464168562e+02,	 3.8751728392315639e+00 
1.7796950000000000e-01,	 4.7787620000000003e-02,	 2.5910579733760479e-02,	 1.5971226062292235e+03,	 4.0439134154194153e+02,	 4.4906689385127817e+02,	 3.3474808929867913e+03,	 4.2528934882660388e+02,	 3.8738879543999070e+00 
1.8201429999999999e-01,	 4.8871430000000000e-02,	 2.5966401203264225e-02,	 1.5968286773351008e+03,	 4.0501819856432166e+02,	 4.4927729756683425e+02,	 3.3562644613129401e+03,	 4.2538896870666571e+02,	 3.8726729524144567e+00 
1.8605900000000000e-01,	 4.9955240000000005e-02,	 2.6019270143106114e-02,	 1.5965494061675658e+03,	 4.0561251742878846e+02,	 4.4947727240895227e+02,	 3.3645949161311351e+03,	 4.2548362920755250e+02,	 3.8715188617173899e+00 
1.9010379999999999e-01,	 5.1039050000000002e-02,	 2.6069332849338551e-02,	 1.5962839975357251e+03,	 4.0617505472081245e+02,	 4.4966757095564685e+02,	 3.3724958420598400e+03,	 4.2557368976562782e+02,	 3.8704208631303993e+00 
1.9414860000000000e-01,	 5.2122860000000000e-02,	 2.6116991667720323e-02,	 1.5960305666740242e+03,	 4.0670978920604108e+02,	 4.4984992279623486e+02,	 3.3800314266241485e+03,	 4.2565997159315884e+02,	 3.8693693485123277e+00 
1.9819329999999999e-01,	 5.3206670000000005e-02,	 2.6162392465001075e-02,	 1.5957884949888289e+03,	 4.0721834238396070e+02,	 4.5002477941653331e+02,	 3.3872232480632060e+03,	 4.2574269055006175e+02,	 3.8683617599439377e+00 
2.0223810000000000e-01,	 5.4290480000000002e-02,	 2.6205563984649009e-02,	 1.5955574506056091e+03,	 4.0770171516237832e+02,	 4.5019206301990062e+02,	 3.3940738081653344e+03,	 4.2582181192004032e+02,	 3.8673981221229523e+00 
2.0628289999999999e-01,	 5.5374290000000000e-02,	 2.6246787977730085e-02,	 1.5953358841183817e+03,	 4.0816413039238421e+02,	 4.5035281903369008e+02,	 3.4006269015287762e+03,	 4.2589783203777580e+02,	 3.8664727524603832e+00 
2.1032760000000000e-01,	 5.6458100000000004e-02,	 2.6286088658418048e-02,	 1.5951236597909660e+03,	 4.0860683520044370e+02,	 4.5050680754397717e+02,	 3.4068833497333089e+03,	 4.2597063913997312e+02,	 3.8655869936543676e+00 
2.1437239999999999e-01,	 5.7541900000000000e-02,	 2.6323480938035673e-02,	 1.5949203615125698e+03,	 4.0903103381180591e+02,	 4.5065389398532727e+02,	 3.4128435817903924e+03,	 4.2604017126599484e+02,	 3.8647410794839012e+00 
2.1841710000000000e-01,	 5.8625710000000004e-02,	 2.6359169425874018e-02,	 1.5947252237610510e+03,	 4.0943934369439387e+02,	 4.5079464990573172e+02,	 3.4185380028199602e+03,	 4.2610670014262831e+02,	 3.8639322546975134e+00 
2.2246189999999999e-01,	 5.9709520000000002e-02,	 2.6393058366380028e-02,	 1.5945384284782297e+03,	 4.0983098600707046e+02,	 4.5092863883070754e+02,	 3.4239504743439920e+03,	 4.2617002092168224e+02,	 3.8631622672737280e+00 
2.2650670000000001e-01,	 6.0793330000000000e-02,	 2.6425433608833145e-02,	 1.5943587846770038e+03,	 4.1020842556751745e+02,	 4.5105700149483016e+02,	 3.4291263561394921e+03,	 4.2623067400736528e+02,	 3.8624248871555928e+00 
2.3055139999999999e-01,	 6.1877140000000004e-02,	 2.6456358449284574e-02,	 1.5941861799547410e+03,	 4.1057158333453089e+02,	 4.5117998549084962e+02,	 3.4340754237231631e+03,	 4.2628877750502204e+02,	 3.8617186878714924e+00 
2.3459620000000000e-01,	 6.2960950000000002e-02,	 2.6485826061610290e-02,	 1.5940206711493374e+03,	 4.1091946939437366e+02,	 4.5129761633456923e+02,	 3.4387966877350764e+03,	 4.2634434450953768e+02,	 3.8610430486432059e+00 
2.3864099999999999e-01,	 6.4044760000000006e-02,	 2.6514139425313114e-02,	 1.5938609211991916e+03,	 4.1125446374454225e+02,	 4.5141132358860273e+02,	 3.4433401159457540e+03,	 4.2639805118746511e+02,	 3.8603901552977211e+00 
2.4268570000000000e-01,	 6.5128569999999997e-02,	 2.6541366422628568e-02,	 1.5937067707069796e+03,	 4.1157654644697379e+02,	 4.5152143439017021e+02,	 3.4477168150250263e+03,	 4.2645005272792133e+02,	 3.8597581908521366e+00 
2.4673049999999999e-01,	 6.6212380000000001e-02,	 2.6566810658789523e-02,	 1.5935518753124736e+03,	 4.1191569753034651e+02,	 4.5162512059726225e+02,	 3.4518144986094117e+03,	 4.2649901435735552e+02,	 3.8591623859879749e+00 
2.5077519999999998e-01,	 6.7296190000000006e-02,	 2.6582153909586993e-02,	 1.5934260058328539e+03,	 4.1227189434700171e+02,	 4.5168996223630847e+02,	 3.4543039178537601e+03,	 4.2652963034982514e+02,	 3.8588087644067821e+00 
-7.9385259999999999e-02,	 6.1388000000000007e-03,	 1.1557363065988677e-02,	 1.7360104967303323e+03,	 5.0866289312887802e-01,	 2.9999590338962560e+02,	 9.9747959028956166e+02,	 3.4760550737769455e+02,	 4.9941975440708273e+00 
-7.3850860000000004e-02,	 6.1388000000000007e-03,	 1.1557567130286448e-02,	 1.7360069342701531e+03,	 3.7488999669283585e-01,	 2.9999676754019669e+02,	 9.9750007576794565e+02,	 3.4760600802333340e+02,	 4.9941800045996132e+00 
-6.8316450000000001e-02,	 6.1388000000000007e-03,	 1.1558478843889376e-02,	 1.7359984310332227e+03,	 1.9934549787160327e-01,	 3.0000687786645256e+02,	 9.9761238297442321e+02,	 3.4761186538734557e+02,	 4.9940713057773749e+00 
-6.2782050000000006e-02,	 6.1388000000000007e-03,	 1.1560009322551204e-02,	 1.7359877169991983e+03,	 6.0273690715557687e-02,	 3.0002564529674339e+02,	 9.9780689416639927e+02,	 3.4762273793712677e+02,	 4.9938842560970063e+00 
-5.7247640000000002e-02,	 6.1388000000000007e-03,	 1.1561903068903635e-02,	 1.7359753239236368e+03,	 -4.4636917126019804e-02,	 3.0004628134168337e+02,	 9.9803899498683336e+02,	 3.4763469264034620e+02,	 4.9936768718693543e+00 
-5.1713240000000001e-02,	 6.1388000000000007e-03,	 1.1564002675846190e-02,	 1.7359619541582333e+03,	 -1.1712385998213919e-01,	 3.0006811294034196e+02,	 9.9829286715051035e+02,	 3.4764733949437078e+02,	 4.9934567617695391e+00 
-4.6178839999999999e-02,	 6.1388000000000007e-03,	 1.1566193789589549e-02,	 1.7359482654254468e+03,	 -1.6779440346514191e-01,	 3.0009080980458879e+02,	 9.9855754501475303e+02,	 3.4766048710141087e+02,	 4.9932285604503246e+00 
-4.0644430000000002e-02,	 6.1388000000000007e-03,	 1.1568375657090920e-02,	 1.7359348103560062e+03,	 -2.0181247752556350e-01,	 3.0011340046405940e+02,	 9.9882109970198837e+02,	 3.4767357269353096e+02,	 4.9930019375304697e+00 
-3.5110030000000000e-02,	 6.1388000000000007e-03,	 1.1570468211520232e-02,	 1.7359219977267321e+03,	 -2.1706325069048066e-01,	 3.0013503782261751e+02,	 9.9907379752242468e+02,	 3.4768610562634001e+02,	 4.9927851104966310e+00 
-2.9575620000000000e-02,	 6.1388000000000007e-03,	 1.1572418970489955e-02,	 1.7359101173117010e+03,	 -2.1973465675320386e-01,	 3.0015521270485397e+02,	 9.9930940788168402e+02,	 3.4769779104703122e+02,	 4.9925831452409195e+00 
-2.4041219999999999e-02,	 6.1388000000000007e-03,	 1.1574193297639802e-02,	 1.7358993601846596e+03,	 -2.1313001975981816e-01,	 3.0017356107387542e+02,	 9.9952372254230590e+02,	 3.4770841819860823e+02,	 4.9923996153494121e+00 
-1.8506809999999999e-02,	 6.1388000000000007e-03,	 1.1575769822162754e-02,	 1.7358898359917589e+03,	 -1.9992240280209950e-01,	 3.0018986423043066e+02,	 9.9971416194413416e+02,	 3.4771786051556057e+02,	 4.9922366510897325e+00 
-1.2972410000000000e-02,	 6.1388000000000007e-03,	 1.1577139143510903e-02,	 1.7358815876041183e+03,	 -1.8232126432028128e-01,	 3.0020402445686403e+02,	 9.9987958316130175e+02,	 3.4772606150127541e+02,	 4.9920951845952954e+00 
-7.4380039999999998e-03,	 6.1388000000000007e-03,	 1.1573476493380903e-02,	 1.7359173680163562e+03,	 6.1990674419425207e-01,	 3.0017275833650166e+02,	 9.9945914798386957e+02,	 3.4770795326970500e+02,	 4.9924583616185298e+00 
-1.9036000000000001e-03,	 6.1388000000000007e-03,	 1.1608773428012566e-02,	 1.7350037974860029e+03,	 7.5005569142360162e+00,	 3.0124652734290908e+02,	 1.0060934502499534e+03,	 3.4832930333848560e+02,	 4.9809763161697553e+00 
2.1502270000000002e-03,	 7.2009330000000005e-03,	 1.1806184938473518e-02,	 1.7303923679895704e+03,	 2.5008018131712078e+01,	 3.0792466914278953e+02,	 1.0458851648797563e+03,	 3.5216908446341040e+02,	 4.9140402881511740e+00 
6.2040530000000002e-03,	 8.2630669999999989e-03,	 1.2145173035077480e-02,	 1.7230163798914095e+03,	 4.7926285363896866e+01,	 3.1856185748180582e+02,	 1.1130826649462301e+03,	 3.5820024129624022e+02,	 4.8120648599371565e+00 
1.0257880000000000e-02,	 9.3251999999999988e-03,	 1.2554232398414139e-02,	 1.7156737465467627e+03,	 6.9623382729627480e+01,	 3.2865869999714317e+02,	 1.1870396738223906e+03,	 3.6383255236459610e+02,	 4.7194398630088346e+00 
1.4311710000000000e-02,	 1.0387330000000000e-02,	 1.2995577246368970e-02,	 1.7089946367502239e+03,	 8.8854476378071553e+01,	 3.3738816131389217e+02,	 1.2614073348004667e+03,	 3.6863274168473652e+02,	 4.6422977571157995e+00 
1.8365530000000001e-02,	 1.1449470000000000e-02,	 1.3453326624293899e-02,	 1.7028695289096925e+03,	 1.0613878668849003e+02,	 3.4517546664723523e+02,	 1.3359787317160383e+03,	 3.7286270584308335e+02,	 4.5758776023019854e+00 
2.2419359999999999e-02,	 1.2511599999999999e-02,	 1.3920426360176066e-02,	 1.6970919429327523e+03,	 1.2219336410136597e+02,	 3.5247323005380775e+02,	 1.4115901300846990e+03,	 3.7678365594038115e+02,	 4.5158150819492526e+00 
2.6473190000000001e-02,	 1.3573729999999999e-02,	 1.4393551222455291e-02,	 1.6915027107264291e+03,	 1.3756290705249737e+02,	 3.5955815216744497e+02,	 1.4889051598432820e+03,	 3.8055160373072732e+02,	 4.4595455284605139e+00 
3.0527010000000000e-02,	 1.4635869999999999e-02,	 1.4871038907270592e-02,	 1.6860087693421278e+03,	 1.5258015336432214e+02,	 3.6654956267436012e+02,	 1.5682090400085053e+03,	 3.8423359961876974e+02,	 4.4059103107038915e+00 
3.4580840000000002e-02,	 1.5698000000000000e-02,	 1.5352177868180493e-02,	 1.6805731980600162e+03,	 1.6739683318279964e+02,	 3.7345716146418550e+02,	 1.6494559537183970e+03,	 3.8783712836443596e+02,	 4.3546361210649511e+00 
3.8634670000000003e-02,	 1.6760129999999998e-02,	 1.5837027941513482e-02,	 1.6752026583055244e+03,	 1.8201734918705631e+02,	 3.8021951394911088e+02,	 1.7323595029547826e+03,	 3.9133274362124155e+02,	 4.3059573261165749e+00 
4.2688490000000003e-02,	 1.7822269999999998e-02,	 1.6325671340090012e-02,	 1.6699381690944174e+03,	 1.9635197561652325e+02,	 3.8673770208987577e+02,	 1.8164251194265883e+03,	 3.9467284180073705e+02,	 4.2603441057039175e+00 
4.6742319999999997e-02,	 1.8884399999999999e-02,	 1.6817006513534072e-02,	 1.6648476346407560e+03,	 2.1024899542680816e+02,	 3.9289240636605132e+02,	 1.9008693361353464e+03,	 3.9780093915750427e+02,	 4.2183686273448693e+00 
5.0796149999999998e-02,	 1.9946530000000001e-02,	 1.7308986259888283e-02,	 1.6599993649425910e+03,	 2.2354716177230867e+02,	 3.9858055627090482e+02,	 1.9848042425962999e+03,	 4.0067019836602719e+02,	 4.1804555331509219e+00 
5.4849969999999998e-02,	 2.1008670000000000e-02,	 1.7799090510048004e-02,	 1.6554431028310437e+03,	 2.3611845751932879e+02,	 4.0374160561412197e+02,	 2.0674320985801305e+03,	 4.0325590858665498e+02,	 4.1467397232877268e+00 
5.8903799999999999e-02,	 2.2070799999999998e-02,	 1.8284530670157725e-02,	 1.6512051442631355e+03,	 2.4788177194827435e+02,	 4.0836716032886579e+02,	 2.1481498076417129e+03,	 4.0555932508542242e+02,	 4.1170492110106656e+00 
6.2957630000000001e-02,	 2.3132929999999999e-02,	 1.8762299239340224e-02,	 1.6472911079935088e+03,	 2.5880563247027692e+02,	 4.1248064649840478e+02,	 2.2264839667757064e+03,	 4.0759680845408650e+02,	 4.0910468300009395e+00 
6.7011450000000000e-02,	 2.4195069999999999e-02,	 1.9229357755489042e-02,	 1.6436913670530237e+03,	 2.6889911799873636e+02,	 4.1612466951970765e+02,	 2.3020681705321676e+03,	 4.0939328806703094e+02,	 4.0683162516980254e+00 
7.1065279999999995e-02,	 2.5257200000000000e-02,	 1.9682742254596493e-02,	 1.6403872229508409e+03,	 2.7819844255634541e+02,	 4.1934992465009725e+02,	 2.3746090149250231e+03,	 4.1097676684943400e+02,	 4.0484290213921303e+00 
7.5119110000000003e-02,	 2.6319329999999998e-02,	 2.0119622758628455e-02,	 1.6373561764460717e+03,	 2.8675394047916586e+02,	 4.2220715038709238e+02,	 2.4438545526855301e+03,	 4.1237447784025170e+02,	 4.0309877594162833e+00 
7.9172930000000002e-02,	 2.7381469999999998e-02,	 2.0537417665120801e-02,	 1.6345749282022027e+03,	 2.9462159113010034e+02,	 4.2474295765532213e+02,	 2.5095852879340955e+03,	 4.1361099971538670e+02,	 4.0156440029774982e+00 
8.3226759999999997e-02,	 2.8443599999999999e-02,	 2.0934116059118935e-02,	 1.6320187171641405e+03,	 3.0185963953232203e+02,	 4.2700040664771848e+02,	 2.5716558776572811e+03,	 4.1470868523918665e+02,	 4.0020866042322352e+00 
8.7280590000000005e-02,	 2.9505730000000001e-02,	 2.1308677686939306e-02,	 1.6296615960566819e+03,	 3.0852862225930045e+02,	 4.2902068532072445e+02,	 2.6300540280362188e+03,	 4.1568858880389735e+02,	 3.9900299241422776e+00 
9.1334410000000005e-02,	 3.0567870000000000e-02,	 2.1660791068578659e-02,	 1.6274811628115019e+03,	 3.1468327563645568e+02,	 4.3083845782144363e+02,	 2.6848418791443646e+03,	 4.1656829996839713e+02,	 3.9792393167901103e+00 
9.5388239999999999e-02,	 3.1630000000000005e-02,	 2.1990777871398935e-02,	 1.6254596413777845e+03,	 3.2036977976933792e+02,	 4.3248121741161475e+02,	 2.7361366291264230e+03,	 4.1736171856805487e+02,	 3.9695314487917734e+00 
9.9442069999999994e-02,	 3.2692130000000000e-02,	 2.2299482040104374e-02,	 1.6235834214700708e+03,	 3.2562587116891552e+02,	 4.3397050052334214e+02,	 2.7841005884018191e+03,	 4.1807970994803526e+02,	 3.9607644581045758e+00 
1.0349590000000000e-01,	 3.3754270000000003e-02,	 2.2587951741933534e-02,	 1.6218398717105299e+03,	 3.3048854886188491e+02,	 4.3532454382345787e+02,	 2.8289152853860355e+03,	 4.1873143298280485e+02,	 3.9528196955792749e+00 
1.0754970000000000e-01,	 3.4816400000000004e-02,	 2.2857284781223775e-02,	 1.6202129411120650e+03,	 3.3500514395950069e+02,	 4.3656218388134164e+02,	 2.8707851432932771e+03,	 4.1932624320321298e+02,	 3.9455778494927896e+00 
1.1160349999999999e-01,	 3.5878530000000006e-02,	 2.3108911575736989e-02,	 1.6186923146370532e+03,	 3.3920618697707647e+02,	 4.3769733899055484e+02,	 2.9099353110377824e+03,	 4.1987105826154362e+02,	 3.9389515620867126e+00 
1.1565739999999999e-01,	 3.6940670000000002e-02,	 2.3344285483827068e-02,	 1.6172711039831913e+03,	 3.4311217191865489e+02,	 4.3874068959699753e+02,	 2.9465813565617009e+03,	 4.2037118921231234e+02,	 3.9328741987102664e+00 
1.1971120000000000e-01,	 3.8002800000000003e-02,	 2.3564823941659072e-02,	 1.6159426888983260e+03,	 3.4674294280149809e+02,	 4.3970191178940865e+02,	 2.9809348937635236e+03,	 4.2083142580752883e+02,	 3.9272862183116040e+00 
1.2376500000000000e-01,	 3.9064930000000005e-02,	 2.3771743977344759e-02,	 1.6147010434277436e+03,	 3.5011845396171145e+02,	 4.4058928758457751e+02,	 3.0131788840214635e+03,	 4.2125585812239319e+02,	 3.9221376679367812e+00 
1.2781890000000001e-01,	 4.0127070000000001e-02,	 2.3965991711335125e-02,	 1.6135403201489366e+03,	 3.5325830783183466e+02,	 4.4140966957336536e+02,	 3.0434571034184532e+03,	 4.2164786719365378e+02,	 3.9173868018954496e+00 
1.3187270000000001e-01,	 4.1189200000000002e-02,	 2.4148422654904758e-02,	 1.6124545078480226e+03,	 3.5618323945827791e+02,	 4.4216928672172378e+02,	 3.0719014497852490e+03,	 4.2201051587885934e+02,	 3.9129961888076457e+00 
1.3592650000000001e-01,	 4.2251330000000004e-02,	 2.4319631081500852e-02,	 1.6114380232141075e+03,	 3.5891259984461453e+02,	 4.4287316345725003e+02,	 3.0986054787596372e+03,	 4.2234627559064330e+02,	 3.9089351756832724e+00 
1.3998030000000000e-01,	 4.3313470000000000e-02,	 2.4480201115765501e-02,	 1.6104849277515543e+03,	 3.6146563564025604e+02,	 4.4352618368783953e+02,	 3.1236630656491729e+03,	 4.2265753747362277e+02,	 3.9051738264103548e+00 
1.4403420000000000e-01,	 4.4375600000000001e-02,	 2.4630656845187865e-02,	 1.6095901191538235e+03,	 3.6385921884626759e+02,	 4.4413254411877278e+02,	 3.1471578689314333e+03,	 4.2294635387552927e+02,	 3.9016867722305948e+00 
1.4808800000000000e-01,	 4.5437730000000003e-02,	 2.4771455654013782e-02,	 1.6087493500611470e+03,	 3.6610656461926203e+02,	 4.4469569106840618e+02,	 3.1691616123335098e+03,	 4.2321441067346404e+02,	 3.8984526852540760e+00 
1.5214179999999999e-01,	 4.6499870000000006e-02,	 2.4903154951044015e-02,	 1.6079582327002261e+03,	 3.6822069563256247e+02,	 4.4521923939915371e+02,	 3.1897616454972608e+03,	 4.2346346640475076e+02,	 3.8954496237547893e+00 
1.5619559999999999e-01,	 4.7562000000000000e-02,	 2.5026224590424896e-02,	 1.6072130367974119e+03,	 3.7021368746430198e+02,	 4.4570610848819445e+02,	 3.2090306222461991e+03,	 4.2369494218127511e+02,	 3.8926601885724450e+00 
1.6024949999999999e-01,	 4.8624130000000002e-02,	 2.5141082835059420e-02,	 1.6065104977170909e+03,	 3.7209482078117765e+02,	 4.4615883996906746e+02,	 3.2270330903990780e+03,	 4.2391007424788882e+02,	 3.8900686171953942e+00 
1.6430330000000001e-01,	 4.9686270000000005e-02,	 2.5248290300223360e-02,	 1.6058476138754979e+03,	 3.7387166133291248e+02,	 4.4658036801084660e+02,	 3.2438557967896545e+03,	 4.2411028074512666e+02,	 3.8876574513228239e+00 