TITLE = "Final State"
VARIABLES = "X", "Y", "rho", "u", "v", "T", "p", "c", "M"
ZONE I=20, J=11, DATAPACKING=POINT, STRANDID=40000, SOLUTIONTIME=0.001451
0.0000000000000000e+00,	 2.7099999999999999e-02,	 9.7664599214320325e-01,	 -1.3206168362550128e+01,	 1.3870609069138876e+01,	 3.0898874622180693e+02,	 8.6817998978655029e+04,	 3.5277704463833231e+02,	 5.4289067204419755e-02 
2.6315790000000002e-03,	 2.7099999999999999e-02,	 9.7700382784304851e-01,	 -3.3845228910444547e+01,	 1.2706452961673286e+01,	 3.0817660642946959e+02,	 8.6621534150527063e+04,	 3.5231312356092633e+02,	 1.0261272990867071e-01 
5.2631580000000004e-03,	 2.7099999999999999e-02,	 9.7563526779390686e-01,	 -6.5363007550168817e+01,	 1.0329582326125177e+01,	 3.0621772200627845e+02,	 8.5950369865420333e+04,	 3.5119162233053635e+02,	 1.8842757858346681e-01 
7.8947370000000006e-03,	 2.7099999999999999e-02,	 9.7029574096753501e-01,	 -9.3901094426674433e+01,	 7.9250305801615903e+00,	 3.0362295785052788e+02,	 8.4755652042173228e+04,	 3.4970052955508265e+02,	 2.6947322059202811e-01 
1.0526320000000000e-02,	 2.7099999999999999e-02,	 9.6203725662694706e-01,	 -1.1913236110818714e+02,	 5.7081901651774558e+00,	 3.0063483337419120e+02,	 8.3207242147562312e+04,	 3.4797547485085636e+02,	 3.4275126958498292e-01 
1.3157890000000000e-02,	 2.7099999999999999e-02,	 9.5217987855738473e-01,	 -1.4070455292441414e+02,	 3.8782936801418542e+00,	 2.9761800618958245e+02,	 8.1528253719507440e+04,	 3.4622513082039399e+02,	 4.0655047740927774e-01 
1.5789470000000000e-02,	 2.7099999999999999e-02,	 9.4272947815130559e-01,	 -1.5819524720928709e+02,	 2.4815623391259090e+00,	 2.9483826588548004e+02,	 7.9965171478514763e+04,	 3.4460447326908798e+02,	 4.5911972146100333e-01 
1.8421050000000001e-02,	 2.7099999999999999e-02,	 9.3591666363530568e-01,	 -1.7116644786668803e+02,	 1.4867629554814370e+00,	 2.9250468976224693e+02,	 7.8758956031591078e+04,	 3.4323803210707820e+02,	 4.9870028607905326e-01 
2.1052629999999999e-02,	 2.7099999999999999e-02,	 9.3361593432323997e-01,	 -1.7929795215826204e+02,	 8.4946877784429864e-01,	 2.9090165612008030e+02,	 7.8134778715715525e+04,	 3.4229620440331132e+02,	 5.2381522823091420e-01 
2.3684210000000001e-02,	 2.7099999999999999e-02,	 9.3698082626097956e-01,	 -1.8253215825952560e+02,	 4.7136563406408261e-01,	 2.9015688174589422e+02,	 7.8215624402933390e+04,	 3.4185774553386318e+02,	 5.3394363375847353e-01 
2.6315789999999999e-02,	 2.7099999999999999e-02,	 9.4667736004977121e-01,	 -1.8106232551111617e+02,	 2.8298325028744903e-01,	 2.9027666207311074e+02,	 7.9057676975051480e+04,	 3.4192829979283005e+02,	 5.2953366761008513e-01 
2.8947370000000000e-02,	 2.7099999999999999e-02,	 9.6165748955867958e-01,	 -1.7541007847782168e+02,	 8.5212144804488646e-02,	 2.9117103722226409e+02,	 8.0556117984140452e+04,	 3.4245465450162357e+02,	 5.1221408986431427e-01 
3.1578950000000001e-02,	 2.7099999999999999e-02,	 9.8116616727691286e-01,	 -1.6611540005510676e+02,	 -2.1838380571289950e-01,	 2.9267855171441136e+02,	 8.2615854502643910e+04,	 3.4334002563287106e+02,	 4.8382224967249571e-01 
3.4210530000000003e-02,	 2.7099999999999999e-02,	 1.0043437252660858e+00,	 -1.5369780036847885e+02,	 -3.6503780222029381e-01,	 2.9458702670111859e+02,	 8.5118884828383874e+04,	 3.4445761886019034e+02,	 4.4620361240784134e-01 
3.6842109999999997e-02,	 2.7099999999999999e-02,	 1.0285908389500262e+00,	 -1.3890837872930905e+02,	 -4.8941236938487642e-01,	 2.9668504833602037e+02,	 8.7794690009796599e+04,	 3.4568204037008826e+02,	 4.0184106974436362e-01 
3.9473679999999997e-02,	 2.7099999999999999e-02,	 1.0519611123442862e+00,	 -1.2256761072622999e+02,	 -5.4039591853048041e-01,	 2.9875775303737748e+02,	 9.0416732331256775e+04,	 3.4688744277726505e+02,	 3.5333882665690286e-01 
4.2105259999999999e-02,	 2.7099999999999999e-02,	 1.0731454414882411e+00,	 -1.0531109940776847e+02,	 -4.6552291608987106e-01,	 3.0065745089513291e+02,	 9.2824045813945791e+04,	 3.4798856414340509e+02,	 3.0263100333021892e-01 
4.4736840000000000e-02,	 2.7099999999999999e-02,	 1.0907835223363338e+00,	 -8.7782739591721366e+01,	 -4.1558308585628717e-01,	 3.0227250932336187e+02,	 9.4856513427666519e+04,	 3.4892196712598525e+02,	 2.5158554516020176e-01 
4.7368420000000001e-02,	 2.7099999999999999e-02,	 1.1056192190300531e+00,	 -7.0366464640809212e+01,	 -1.0756884180432846e-01,	 3.0357250558373687e+02,	 9.6560154524465965e+04,	 3.4967147391724347e+02,	 2.0123616625751448e-01 
5.0000000000000003e-02,	 2.7099999999999999e-02,	 1.1138754038518150e+00,	 -5.9339698467684563e+01,	 -8.8436715399198784e-01,	 3.0444388812496658e+02,	 9.7560453717219221e+04,	 3.5017296741906904e+02,	 1.6947706902369086e-01 
0.0000000000000000e+00,	 2.9800000000000000e-02,	 9.6821691383402730e-01,	 -1.2282365017028306e+01,	 3.1986040919208897e+01,	 3.0844015482071541e+02,	 8.5915894293550082e+04,	 3.5246373803349337e+02,	 9.7210419694025357e-02 
2.8600470000000001e-03,	 2.9720560000000000e-02,	 9.6826157422319781e-01,	 -3.1442208259552309e+01,	 2.9710517981935258e+01,	 3.0769212757687268e+02,	 8.5711484955974869e+04,	 3.5203608209986754e+02,	 1.2288183900803577e-01 
5.6599950000000001e-03,	 2.9577670000000000e-02,	 9.6625622949331258e-01,	 -6.1515939447762960e+01,	 2.4892087928667713e+01,	 3.0586621045308851e+02,	 8.5026391227993954e+04,	 3.5098999559407116e+02,	 1.8906902282061497e-01 
8.4330269999999992e-03,	 2.9411039999999999e-02,	 9.6046190290331424e-01,	 -8.9462370688423022e+01,	 1.9739632531785066e+01,	 3.0339004432421666e+02,	 8.3832304719847787e+04,	 3.4956637367565713e+02,	 2.6207966870863886e-01 
1.1199580000000001e-02,	 2.9241489999999998e-02,	 9.5208135284689743e-01,	 -1.1456595610180358e+02,	 1.4847323374719412e+01,	 3.0055995310822794e+02,	 8.2325639138372149e+04,	 3.4793213636191132e+02,	 3.3203035036863876e-01 
1.3967330000000000e-02,	 2.9076609999999999e-02,	 9.4261947850490013e-01,	 -1.3608312432121761e+02,	 1.0633913924621060e+01,	 2.9764503038524322e+02,	 8.0716994603962856e+04,	 3.4624084936412743e+02,	 3.9422839346240368e-01 
1.6718509999999999e-02,	 2.8920049999999999e-02,	 9.3425910660889544e-01,	 -1.5335007789274016e+02,	 7.1775354895012082e+00,	 2.9493209580066309e+02,	 7.9271908516659299e+04,	 3.4465930271309691e+02,	 4.4541945253289988e-01 
1.9445960000000002e-02,	 2.8771900000000000e-02,	 9.2918569109568683e-01,	 -1.6587160323808300e+02,	 4.4358751705993313e+00,	 2.9277782088365780e+02,	 7.8265546989116454e+04,	 3.4339824682703477e+02,	 4.8320254423423670e-01 
2.2145450000000001e-02,	 2.8631739999999999e-02,	 9.2907057616211741e-01,	 -1.7341581149958833e+02,	 2.3150240310609806e+00,	 2.9138747586114516e+02,	 7.7884228988399685e+04,	 3.4258191072013818e+02,	 5.0624757949928234e-01 
2.4815750000000001e-02,	 2.8498110000000000e-02,	 9.3480178021284266e-01,	 -1.7601588619842883e+02,	 6.8264565933376331e-01,	 2.9085798852949836e+02,	 7.8222278942586621e+04,	 3.4227051219569302e+02,	 5.1426343690233478e-01 
2.7456299999999999e-02,	 2.8371089999999998e-02,	 9.4642138477341486e-01,	 -1.7396454296859284e+02,	 -5.8705827992348025e-01,	 2.9116978390353808e+02,	 7.9279478810442350e+04,	 3.4245391746868023e+02,	 5.0799691471176334e-01 
3.0066639999999999e-02,	 2.8250319999999999e-02,	 9.6317286920825773e-01,	 -1.6781143831004150e+02,	 -1.6803879281825631e+00,	 2.9218982942494040e+02,	 8.0965364089631476e+04,	 3.4305324679428674e+02,	 4.8919476200891382e-01 
3.2648110000000001e-02,	 2.8135850000000000e-02,	 9.8417030262159355e-01,	 -1.5807531267784225e+02,	 -2.6960717686005449e+00,	 2.9375484305457860e+02,	 8.3173548195463212e+04,	 3.4397074282738606e+02,	 4.5962718017343185e-01 
3.5198699999999999e-02,	 2.8026479999999999e-02,	 1.0079705169351509e+00,	 -1.4529824150859838e+02,	 -3.4479961644180683e+00,	 2.9566668011091741e+02,	 8.5739343049240168e+04,	 3.4508825545639274e+02,	 4.2116515049253467e-01 
3.7721770000000002e-02,	 2.7921769999999999e-02,	 1.0322151403335766e+00,	 -1.3025428830132162e+02,	 -3.8745787338408526e+00,	 2.9770112935146830e+02,	 8.8405776806982540e+04,	 3.4627347688447799e+02,	 3.7632654934166604e-01 
4.0213409999999998e-02,	 2.7819520000000000e-02,	 1.0550351093485688e+00,	 -1.1378599320544205e+02,	 -3.9253928800499289e+00,	 2.9966000187046080e+02,	 9.0954800924502662e+04,	 3.4741084818569499e+02,	 3.2772057301022989e-01 
4.2680009999999997e-02,	 2.7718480000000000e-02,	 1.0754124942972931e+00,	 -9.6513138515261730e+01,	 -3.7401745656056242e+00,	 3.0141396993584061e+02,	 9.3254198219146085e+04,	 3.4842609625383767e+02,	 2.7720536399212747e-01 
4.5117150000000002e-02,	 2.7614609999999998e-02,	 1.0922140930431143e+00,	 -7.9122624250797557e+01,	 -3.3784707536415581e+00,	 3.0285678344808559e+02,	 9.5164510710489136e+04,	 3.4925902665110226e+02,	 2.2675067590891224e-01 
4.7540350000000002e-02,	 2.7510270000000000e-02,	 1.1062845299102806e+00,	 -6.2250143378293259e+01,	 -2.7241631729180278e+00,	 3.0394115446674897e+02,	 9.6735590161580374e+04,	 3.4988372450780940e+02,	 1.7808693949917404e-01 
5.0000000000000003e-02,	 2.7423569999999998e-02,	 1.1137739412480172e+00,	 -5.1848640471102428e+01,	 -3.2833938872316653e+00,	 3.0461618219683328e+02,	 9.7606774366231082e+04,	 3.5027204017951817e+02,	 1.4832042938804682e-01 
0.0000000000000000e+00,	 3.2500000000000001e-02,	 9.5185314282321465e-01,	 -1.0280338294008422e+01,	 5.4807773241344336e+01,	 3.0737265347604625e+02,	 8.4171508771679408e+04,	 3.5185327661168947e+02,	 1.5848533541649945e-01 
3.1912580000000002e-03,	 3.2280500000000004e-02,	 9.5127420266199003e-01,	 -2.6332504735107914e+01,	 5.1220101488621282e+01,	 3.0675625032167363e+02,	 8.3951619279937440e+04,	 3.5150029740148494e+02,	 1.6384774411276995e-01 
6.2423920000000003e-03,	 3.1937560000000004e-02,	 9.4793916199243644e-01,	 -5.3119224792676057e+01,	 4.3338132289031499e+01,	 3.0523066902052165e+02,	 8.3241245859079208e+04,	 3.5062515522782581e+02,	 1.9552339588261092e-01 
9.2098330000000006e-03,	 3.1558980000000000e-02,	 9.4118660026020851e-01,	 -7.9535316494332974e+01,	 3.4454225477728485e+01,	 3.0311324685706734e+02,	 8.2074942953911828e+04,	 3.4940687410040573e+02,	 2.4806991616081056e-01 
1.2128460000000001e-02,	 3.1188790000000001e-02,	 9.3279851815064585e-01,	 -1.0414243909751404e+02,	 2.5791599926062617e+01,	 3.0059900226868945e+02,	 8.0668748575434540e+04,	 3.4795473753751349e+02,	 3.0834082031142751e-01 
1.5012210000000000e-02,	 3.0840540000000000e-02,	 9.2449212318028284e-01,	 -1.2541809149115974e+02,	 1.8207929786065932e+01,	 2.9795722240962260e+02,	 7.9247773578398395e+04,	 3.4642238322387453e+02,	 3.6583344487706076e-01 
1.7846810000000001e-02,	 3.0517659999999999e-02,	 9.1855749646451434e-01,	 -1.4221422483513015e+02,	 1.1902304054607979e+01,	 2.9556072551883284e+02,	 7.8105750049491064e+04,	 3.4502641730534049e+02,	 4.1362462990456605e-01 
2.0627699999999999e-02,	 3.0218889999999998e-02,	 9.1694118674188907e-01,	 -1.5393712610190755e+02,	 6.8453928202750927e+00,	 2.9375528953899072e+02,	 7.7492043502993314e+04,	 3.4397100423161510e+02,	 4.4797163741987733e-01 
2.3351630000000002e-02,	 2.9941550000000001e-02,	 9.2077522124392341e-01,	 -1.6052263707288242e+02,	 2.8544494807622813e+00,	 2.9269106280044002e+02,	 7.7534148674237207e+04,	 3.4334736390666706e+02,	 4.6759646694279028e-01 
2.6018070000000001e-02,	 2.9682710000000001e-02,	 9.3047111873551358e-01,	 -1.6215694417566593e+02,	 -3.1488451352291946e-01,	 2.9243107433027274e+02,	 7.8280998154265879e+04,	 3.4319483757570822e+02,	 4.7249326665323854e-01 
2.8628100000000000e-02,	 2.9441180000000001e-02,	 9.4551773910451309e-01,	 -1.5925893783986257e+02,	 -2.8736740373843990e+00,	 2.9292166048859326e+02,	 7.9680326684651329e+04,	 3.4348259099412212e+02,	 4.6373489150653840e-01 
3.1182060000000001e-02,	 2.9215249999999998e-02,	 9.6490724905033232e-01,	 -1.5241462810258207e+02,	 -4.9920868195796668e+00,	 2.9401403854689954e+02,	 8.1617553795173968e+04,	 3.4412246119070176e+02,	 4.4314561565563765e-01 
3.3683780000000003e-02,	 2.9003820000000000e-02,	 9.8758793847905280e-01,	 -1.4213695821730153e+02,	 -6.7814037035295724e+00,	 2.9555486653178031e+02,	 8.3973804444648704e+04,	 3.4502299750839933e+02,	 4.1243232727890095e-01 
3.6131520000000000e-02,	 2.8804330000000000e-02,	 1.0121470730976647e+00,	 -1.2898954833566111e+02,	 -8.1368960177728020e+00,	 2.9736030995271409e+02,	 8.6587771382449529e+04,	 3.4607520670107027e+02,	 3.7346199942674191e-01 
3.8532259999999999e-02,	 2.8615180000000000e-02,	 1.0363133944445755e+00,	 -1.1377914997544583e+02,	 -8.6914653269745994e+00,	 2.9921985674286049e+02,	 8.9209572794486012e+04,	 3.4715561328282149e+02,	 3.2870167879875861e-01 
4.0881500000000001e-02,	 2.8432510000000001e-02,	 1.0583529679006178e+00,	 -9.7366224255105266e+01,	 -8.5393227822251045e+00,	 3.0096542946377491e+02,	 9.1638312363331992e+04,	 3.4816674962980704e+02,	 2.8072746669079335e-01 
4.3190970000000002e-02,	 2.8253879999999999e-02,	 1.0776630882776934e+00,	 -8.0289762494205860e+01,	 -8.1243385144561167e+00,	 3.0248759694408835e+02,	 9.3782221717258668e+04,	 3.4904608600476263e+02,	 2.3120086599998640e-01 
4.5454649999999999e-02,	 2.8072790000000000e-02,	 1.0936085088418293e+00,	 -6.3233890932143012e+01,	 -7.2747612980449379e+00,	 3.0366541845105917e+02,	 9.5540421988787362e+04,	 3.4972498089352064e+02,	 1.8200295195649485e-01 
4.7698989999999997e-02,	 2.7893339999999999e-02,	 1.1069398957831673e+00,	 -4.7294008095558837e+01,	 -6.1254167665101589e+00,	 3.0440766742927747e+02,	 9.6941461986035327e+04,	 3.5015213618175676e+02,	 1.3619518129824856e-01 
5.0000000000000003e-02,	 2.7747149999999998e-02,	 1.1136407616439024e+00,	 -3.7939822413938600e+01,	 -6.1464407478990060e+00,	 3.0479995679301675e+02,	 9.7653982043360884e+04,	 3.5037768360996313e+02,	 1.0969441454083508e-01 
0.0000000000000000e+00,	 3.5200000000000002e-02,	 9.3708578389954655e-01,	 -8.1369027872722643e+00,	 6.9058137657023110e+01,	 3.0641808900147561e+02,	 8.2608300335892098e+04,	 3.5130650089241340e+02,	 1.9793501667969196e-01 
3.5584540000000000e-03,	 3.4790920000000003e-02,	 9.3567085096815061e-01,	 -2.0751473681616233e+01,	 6.4846420251524393e+01,	 3.0590431425030283e+02,	 8.2345266522474732e+04,	 3.5101185749751380e+02,	 1.9397020509431953e-01 
6.8880879999999997e-03,	 3.4212460000000000e-02,	 9.3047453823840509e-01,	 -4.3550742848049943e+01,	 5.5284170062971519e+01,	 3.0464722470597417e+02,	 8.1551444325149423e+04,	 3.5028988730426374e+02,	 2.0091245314808276e-01 
1.0065609999999999e-02,	 3.3599200000000003e-02,	 9.2219579810519869e-01,	 -6.7694991814290972e+01,	 4.3986249396988100e+01,	 3.0298629851916667e+02,	 8.0385194340148373e+04,	 3.4933369803889371e+02,	 2.3109831301291650e-01 
1.3137850000000000e-02,	 3.3018620000000005e-02,	 9.1358278247274638e-01,	 -9.1278546474365442e+01,	 3.2582158125077626e+01,	 3.0093707222897177e+02,	 7.9095820422581572e+04,	 3.4815034695050218e+02,	 2.7838375212453015e-01 
1.6129190000000002e-02,	 3.2484160000000005e-02,	 9.0677002865309442e-01,	 -1.1201519640737965e+02,	 2.2436274521339008e+01,	 2.9870522195599654e+02,	 7.7923761686312049e+04,	 3.4685694453347156e+02,	 3.2935784874946461e-01 
1.9030880000000000e-02,	 3.1997200000000003e-02,	 9.0355900487167662e-01,	 -1.2826863929174925e+02,	 1.3877616694692144e+01,	 2.9674393512762742e+02,	 7.7137988100742150e+04,	 3.4571634458663920e+02,	 3.7318796014666705e-01 
2.1846859999999999e-02,	 3.1552380000000005e-02,	 9.0539011382832990e-01,	 -1.3949001944032523e+02,	 6.9931544422719822e+00,	 2.9527377009081545e+02,	 7.6911371295309000e+04,	 3.4485888617294398e+02,	 4.0499233592729733e-01 
2.4575600000000000e-02,	 3.1144680000000001e-02,	 9.1323714532803468e-01,	 -1.4558151772426950e+02,	 1.5667828467286078e+00,	 2.9443980004026542e+02,	 7.7358852568630668e+04,	 3.4437153278322864e+02,	 4.2276998725160880e-01 
2.7219730000000001e-02,	 3.0768669999999998e-02,	 9.2680400968301946e-01,	 -1.4679488476224316e+02,	 -2.8023466048592587e+00,	 2.9429138614573498e+02,	 7.8468507468202326e+04,	 3.4428473072306798e+02,	 4.2645408851998512e-01 
2.9782869999999999e-02,	 3.0421680000000000e-02,	 9.4505672266337193e-01,	 -1.4360865545429380e+02,	 -6.3643517342053970e+00,	 2.9482752594417354e+02,	 8.0159655365046769e+04,	 3.4459819683561636e+02,	 4.1715137550360226e-01 
3.2266879999999998e-02,	 3.0099979999999998e-02,	 9.6689240007226451e-01,	 -1.3661717970326197e+02,	 -9.2634666060185413e+00,	 2.9585578757596136e+02,	 8.2297786317360238e+04,	 3.4519859648922829e+02,	 3.9667275684000891e-01 
3.4678929999999997e-02,	 2.9801209999999998e-02,	 9.9111337985819548e-01,	 -1.2637002591738661e+02,	 -1.1610649011852955e+01,	 2.9724781706658501e+02,	 8.4756292380418672e+04,	 3.4600973952175838e+02,	 3.6675929372662797e-01 
3.7017889999999998e-02,	 2.9521200000000001e-02,	 1.0163350628810128e+00,	 -1.1342391842656579e+02,	 -1.3298602968663930e+01,	 2.9884554270357353e+02,	 8.7380319605904544e+04,	 3.4693840529735434e+02,	 3.2916755724995478e-01 
3.9294849999999999e-02,	 2.9257149999999999e-02,	 1.0403757652570718e+00,	 -9.8581169419550520e+01,	 -1.3738491223637851e+01,	 3.0046545067170541e+02,	 8.9932094046892744e+04,	 3.4787743343280533e+02,	 2.8611766564124125e-01 
4.1505000000000000e-02,	 2.9003689999999999e-02,	 1.0617337353640843e+00,	 -8.2685955444806638e+01,	 -1.3412110919945242e+01,	 3.0197043804147802e+02,	 9.2238022440150875e+04,	 3.4874757870479908e+02,	 2.4019278376499675e-01 
4.3665009999999997e-02,	 2.8757319999999999e-02,	 1.0800480022952723e+00,	 -6.6148361344098404e+01,	 -1.2748673834221186e+01,	 3.0327013483947871e+02,	 9.4232918037698997e+04,	 3.4949728692244742e+02,	 1.9275021349082633e-01 
4.5767889999999999e-02,	 2.8509830000000000e-02,	 1.0950894830840756e+00,	 -4.9572199318965900e+01,	 -1.1499546110069446e+01,	 3.0426424258580795e+02,	 9.5858463237327524e+04,	 3.5006963754987231e+02,	 1.4536687773766588e-01 
4.7848500000000002e-02,	 2.8266549999999998e-02,	 1.1076196182407685e+00,	 -3.4380775435101633e+01,	 -9.6312696945058054e+00,	 3.0467295213883352e+02,	 9.7085523685386128e+04,	 3.5030467796796790e+02,	 1.0192364182082045e-01 
5.0000000000000003e-02,	 2.8070720000000000e-02,	 1.1140373610040495e+00,	 -2.5756834589432465e+01,	 -8.9544362030011122e+00,	 3.0485375304753188e+02,	 9.7706001187775124e+04,	 3.5040860253727806e+02,	 7.7820478346525099e-02 
0.0000000000000000e+00,	 3.7900000000000003e-02,	 9.2560743924925926e-01,	 -5.8371673437870033e+00,	 7.6359503392244392e+01,	 3.0583468220238177e+02,	 8.1441076868287710e+04,	 3.5097190535496890e+02,	 2.1820061153577064e-01 
3.9326580000000003e-03,	 3.7262450000000003e-02,	 9.2312508873673915e-01,	 -1.4809915850498168e+01,	 7.1984467049234922e+01,	 3.0539279367671850e+02,	 8.1105307781292679e+04,	 3.5071826093794982e+02,	 2.0954756263360474e-01 
7.5482359999999998e-03,	 3.6425820000000005e-02,	 9.1551765063248824e-01,	 -3.2870209557590343e+01,	 6.1767775711897755e+01,	 3.0439322882899626e+02,	 8.0173648285975738e+04,	 3.5014383191214631e+02,	 1.9983028523971508e-01 
1.0941859999999999e-02,	 3.5569320000000001e-02,	 9.0528788678528949e-01,	 -5.3898814442100630e+01,	 4.9157759332952750e+01,	 3.0313609528660595e+02,	 7.8950393500188031e+04,	 3.4942004285496546e+02,	 2.0877186698556843e-01 
1.4170940000000000e-02,	 3.4775700000000000e-02,	 8.9633123759412658e-01,	 -7.5770819063332596e+01,	 3.5977957610480154e+01,	 3.0158027052553149e+02,	 7.7768083420921175e+04,	 3.4852220240832332e+02,	 2.4066950254211000e-01 
1.7266650000000001e-02,	 3.4057840000000006e-02,	 8.9050348562852988e-01,	 -9.5677197549726557e+01,	 2.3719089211275495e+01,	 2.9989522239960559e+02,	 7.6830756305421164e+04,	 3.4754717290869650e+02,	 2.8362604794384588e-01 
2.0230370000000001e-02,	 3.3410730000000000e-02,	 8.8967585122842863e-01,	 -1.1161014862110028e+02,	 1.3444599497942111e+01,	 2.9835750529879942e+02,	 7.6365765082001264e+04,	 3.4665500119909848e+02,	 3.2429072843624995e-01 
2.3072700000000002e-02,	 3.2825080000000000e-02,	 8.9484113011602040e-01,	 -1.2267369322500119e+02,	 5.3635770949837154e+00,	 2.9717281319565672e+02,	 7.6504142312008014e+04,	 3.4596608283924257e+02,	 3.5492176059831582e-01 
2.5797339999999998e-02,	 3.2292240000000000e-02,	 9.0651334541043127e-01,	 -1.2865040968351028e+02,	 -1.2264119335440657e+00,	 2.9648490233659544e+02,	 7.7322648716175434e+04,	 3.4556542082643807e+02,	 3.7230650820412892e-01 
2.8410180000000000e-02,	 3.1804470000000001e-02,	 9.2385225424967277e-01,	 -1.2980891519121792e+02,	 -6.5752824609211009e+00,	 2.9632464359999278e+02,	 7.8759006849648998e+04,	 3.4547201410833588e+02,	 3.7622537832688058e-01 
3.0918270000000001e-02,	 3.1357050000000004e-02,	 9.4518031154448301e-01,	 -1.2671800913015431e+02,	 -1.0940666094609558e+01,	 2.9678432988023241e+02,	 8.0702236522843654e+04,	 3.4573987438680342e+02,	 3.6787609123223214e-01 
3.3325769999999998e-02,	 3.0944590000000001e-02,	 9.6920709826786555e-01,	 -1.1999057068140309e+02,	 -1.4439606921292613e+01,	 2.9766727218778237e+02,	 8.2999908049564518e+04,	 3.4625378570768316e+02,	 3.4903957841294880e-01 
3.5642729999999997e-02,	 3.0563099999999999e-02,	 9.9482427808419271e-01,	 -1.1020722959445115e+02,	 -1.7164556454455383e+01,	 2.9883307299982039e+02,	 8.5527341684170271e+04,	 3.4693116700257224e+02,	 3.2149286003778543e-01 
3.7870359999999999e-02,	 3.0207169999999998e-02,	 1.0206229806630702e+00,	 -9.7899494611745894e+01,	 -1.8924975970179830e+01,	 3.0016506089690654e+02,	 8.8136422724611548e+04,	 3.4770349504015002e+02,	 2.8677282586368730e-01 
4.0022080000000002e-02,	 2.9872540000000000e-02,	 1.0444256329213664e+00,	 -8.3842054577064687e+01,	 -1.9074925480078363e+01,	 3.0150865779977011e+02,	 9.0595629466889994e+04,	 3.4848082021396897e+02,	 2.4674112707467208e-01 
4.2095979999999998e-02,	 2.9552920000000000e-02,	 1.0650970894345959e+00,	 -6.8831016190573877e+01,	 -1.8629574346290930e+01,	 3.0275040836906345e+02,	 9.2769213144830355e+04,	 3.4919768458859983e+02,	 2.0420402306901650e-01 
4.4110410000000003e-02,	 2.9243539999999998e-02,	 1.0825523122571274e+00,	 -5.3128927317210369e+01,	 -1.7670333146707129e+01,	 3.0381977146436031e+02,	 9.4622596716749002e+04,	 3.4981385213707904e+02,	 1.6005766507518465e-01 
4.6063250000000000e-02,	 2.8937009999999999e-02,	 1.0965976742296006e+00,	 -3.7256417777494931e+01,	 -1.6089086546289504e+01,	 3.0469168329691416e+02,	 9.6125333161412113e+04,	 3.5031544609064696e+02,	 1.1584418680539028e-01 
4.7992020000000003e-02,	 2.8637969999999999e-02,	 1.1084856625329351e+00,	 -2.2787685521419618e+01,	 -1.3218607617249944e+01,	 3.0480449978920262e+02,	 9.7203385627507218e+04,	 3.5038029476280872e+02,	 7.5187085882258309e-02 
5.0000000000000003e-02,	 2.8394289999999999e-02,	 1.1148371078460464e+00,	 -1.4698017072773849e+01,	 -1.1847590750105496e+01,	 3.0481958009623582e+02,	 9.7765182185799713e+04,	 3.5038896224815380e+02,	 5.3878645802380831e-02 
0.0000000000000000e+00,	 4.0600000000000004e-02,	 9.1796002019490408e-01,	 -3.4266381691321186e+00,	 7.8177092042081796e+01,	 3.0569065891088451e+02,	 8.0730170993326916e+04,	 3.5088925599505080e+02,	 2.2301097121336902e-01 
4.2982220000000000e-03,	 3.9704460000000004e-02,	 9.1422477280163261e-01,	 -8.8780668076174756e+00,	 7.3861857995535402e+01,	 3.0526780345360658e+02,	 8.0290455996976292e+04,	 3.5064648314749127e+02,	 2.1216100054069140e-01 
8.1998209999999995e-03,	 3.8601150000000001e-02,	 9.0387032603090878e-01,	 -2.1575939849381573e+01,	 6.3639392260747400e+01,	 3.0439744940466119e+02,	 7.9154767090899288e+04,	 3.5014625936991081e+02,	 1.9191243513070402e-01 
1.1814210000000000e-02,	 3.7498880000000005e-02,	 8.9126061713799354e-01,	 -3.8695799852113623e+01,	 5.0457502456740770e+01,	 3.0346661239045909e+02,	 7.7811819474746851e+04,	 3.4961048180185634e+02,	 1.8187996113143740e-01 
1.5204300000000000e-02,	 3.6494730000000003e-02,	 8.8133610901309245e-01,	 -5.8278578716483025e+01,	 3.6015552790000200e+01,	 3.0240765087501154e+02,	 7.6676852258483879e+04,	 3.4899995732575269e+02,	 1.9630150466788693e-01 
1.8406329999999999e-02,	 3.5596930000000006e-02,	 8.7605702518125250e-01,	 -7.7214836857580210e+01,	 2.2689963322329248e+01,	 3.0123999920615648e+02,	 7.5923278229764255e+04,	 3.4832552909805429e+02,	 2.3104708056730683e-01 
2.1430700000000000e-02,	 3.4793830000000005e-02,	 8.7733630762636439e-01,	 -9.2894628010081533e+01,	 1.1458782585896030e+01,	 3.0010400009091438e+02,	 7.5747416352015469e+04,	 3.4766812760693364e+02,	 2.6921850772152933e-01 
2.4296580000000002e-02,	 3.4071240000000003e-02,	 8.8570021704398916e-01,	 -1.0386622702373353e+02,	 2.1715557551611102e+00,	 2.9918800489778766e+02,	 7.6236134273136820e+04,	 3.4713713549659695e+02,	 2.9927344134376660e-01 
2.7013380000000000e-02,	 3.3416850000000005e-02,	 9.0086140652351132e-01,	 -1.0986401205506523e+02,	 -5.4382735429747919e+00,	 2.9862140848797731e+02,	 7.7394279024508854e+04,	 3.4680827895809944e+02,	 3.1717387897869292e-01 
2.9590959999999999e-02,	 3.2820420000000003e-02,	 9.2156469703897503e-01,	 -1.1113452902747278e+02,	 -1.1641150280967464e+01,	 2.9843767698413649e+02,	 7.9124215642499519e+04,	 3.4670157292670979e+02,	 3.2230185742011364e-01 
3.2040300000000001e-02,	 3.2275340000000000e-02,	 9.4589043726615019e-01,	 -1.0833981270508667e+02,	 -1.6650136365294159e+01,	 2.9866554533993639e+02,	 8.1274797620518613e+04,	 3.4683390749589159e+02,	 3.1603536003709665e-01 
3.4368120000000002e-02,	 3.1774610000000002e-02,	 9.7206704966566648e-01,	 -1.0214405341333652e+02,	 -2.0563847459223858e+01,	 2.9936681955485301e+02,	 8.3720116297628920e+04,	 3.4724085612513710e+02,	 3.0006109449052626e-01 
3.6587900000000000e-02,	 3.1312699999999999e-02,	 9.9892901937964962e-01,	 -9.3144062073683273e+01,	 -2.3485726774650253e+01,	 3.0026890316991330e+02,	 8.6292872277888004e+04,	 3.4776363394995343e+02,	 2.7622018144229327e-01 
3.8703069999999999e-02,	 3.0882960000000001e-02,	 1.0251250130243443e+00,	 -8.1825559161265176e+01,	 -2.5058082539116597e+01,	 3.0130855974215632e+02,	 8.8862440699876868e+04,	 3.4836516531233127e+02,	 2.4565158465087686e-01 
4.0729880000000003e-02,	 3.0479790000000000e-02,	 1.0485322317140824e+00,	 -6.8923749164148887e+01,	 -2.4817216094776036e+01,	 3.0236775293815583e+02,	 9.1210995356739091e+04,	 3.4897693403661668e+02,	 2.0991519838060288e-01 
4.2669190000000003e-02,	 3.0095990000000000e-02,	 1.0684144148438781e+00,	 -5.5124046512809230e+01,	 -2.4246186723017086e+01,	 3.0334226151812663e+02,	 9.3240071209710120e+04,	 3.4953884488839350e+02,	 1.7228627213815928e-01 
4.4541350000000000e-02,	 2.9725660000000001e-02,	 1.0851224738495899e+00,	 -4.0554095998091242e+01,	 -2.3035914987662000e+01,	 3.0417551273668107e+02,	 9.4958302940585301e+04,	 3.5001858999537541e+02,	 1.3325001886931165e-01 
4.6349240000000000e-02,	 2.9362309999999999e-02,	 1.0981592579347494e+00,	 -2.5646949694597112e+01,	 -2.0921935881209947e+01,	 3.0492903338550730e+02,	 9.6337204917059993e+04,	 3.5045186467440311e+02,	 9.4444465583198703e-02 
4.8131090000000001e-02,	 2.9009279999999998e-02,	 1.1095813561873007e+00,	 -1.1921461171674585e+01,	 -1.7032589633466987e+01,	 3.0484116981220063e+02,	 9.7311173056386862e+04,	 3.5040137067714136e+02,	 5.9332388391893448e-02 
5.0000000000000003e-02,	 2.8717859999999998e-02,	 1.1160338599555875e+00,	 -4.2206794048534331e+00,	 -1.4963931881917919e+01,	 3.0473103551288239e+02,	 9.7841701364803259e+04,	 3.5033806771892898e+02,	 4.4379355690402141e-02 
0.0000000000000000e+00,	 4.3300000000000005e-02,	 9.1364423961753549e-01,	 -1.0738763856274804e+00,	 7.5887761721754515e+01,	 3.0591218781876358e+02,	 8.0408847587824246e+04,	 3.5101637475663443e+02,	 2.1621600851594333e-01 
4.6459479999999996e-03,	 4.2116040000000000e-02,	 9.0867997818422763e-01,	 -3.2559345659419070e+00,	 7.1645724716064450e+01,	 3.0546887701407445e+02,	 7.9856057407199871e+04,	 3.5076194591442993e+02,	 2.0446821624561662e-01 
8.8321249999999997e-03,	 4.0736820000000000e-02,	 8.9564466921714270e-01,	 -1.0309237938160880e+01,	 6.1689824197327127e+01,	 3.0464100101917910e+02,	 7.8497176662598780e+04,	 3.5028630922197095e+02,	 1.7855480019098482e-01 
1.2675370000000000e-02,	 3.9393160000000003e-02,	 8.8047773133878748e-01,	 -2.2938557051335778e+01,	 4.8671096589091178e+01,	 3.0390501075645352e+02,	 7.6981465525762731e+04,	 3.4986292036238427e+02,	 1.5379079631029952e-01 
1.6235579999999999e-02,	 3.8181880000000001e-02,	 8.6906037660443780e-01,	 -3.9719682530670930e+01,	 3.4011691119821165e+01,	 3.0322191817847897e+02,	 7.5812440550572297e+04,	 3.4946950267974393e+02,	 1.4963237782028344e-01 
1.9548210000000000e-02,	 3.7108130000000003e-02,	 8.6424413502942521e-01,	 -5.7322386375551275e+01,	 1.9976412433793239e+01,	 3.0249470333108968e+02,	 7.5211483169495754e+04,	 3.4905018607700566e+02,	 1.7391047748046495e-01 
2.2634129999999999e-02,	 3.6152780000000002e-02,	 8.6741406886250538e-01,	 -7.2439836554029284e+01,	 7.6774184278535849e+00,	 3.0175068507288893e+02,	 7.5301679744880777e+04,	 3.4862065855943121e+02,	 2.0895359481822395e-01 
2.5521660000000002e-02,	 3.5296310000000004e-02,	 8.7854002838038225e-01,	 -8.3250910035998487e+01,	 -2.6087100227500493e+00,	 3.0108818694161749e+02,	 7.6100096545472989e+04,	 3.4823774734343726e+02,	 2.3918077025580123e-01 
2.8227690000000000e-02,	 3.4522720000000000e-02,	 8.9693835654575982e-01,	 -8.9284256121785774e+01,	 -1.1123467926137755e+01,	 3.0062809998277919e+02,	 7.7575057477902839e+04,	 3.4797157798340538e+02,	 2.5856852021790128e-01 
3.0766169999999999e-02,	 3.3819500000000002e-02,	 9.2070967212724142e-01,	 -9.0758602133625828e+01,	 -1.8083911932773177e+01,	 3.0043537361359677e+02,	 7.9579958554301949e+04,	 3.4786002146145614e+02,	 2.6603431408890782e-01 
3.3152359999999999e-02,	 3.3178300000000001e-02,	 9.4773132294959828e-01,	 -8.8387386512514709e+01,	 -2.3594010289709935e+01,	 3.0039925038371950e+02,	 8.1905679296822564e+04,	 3.4783910813638892e+02,	 2.6300170712903687e-01 
3.5396680000000000e-02,	 3.2590780000000000e-02,	 9.7586041484782560e-01,	 -8.2916595710983273e+01,	 -2.7691024654898612e+01,	 3.0084455088653692e+02,	 8.4461694198818732e+04,	 3.4809682444261057e+02,	 2.5113206502901808e-01 