TITLE = "Final State"
VARIABLES = "X", "Y", "rho", "u", "v", "T", "p", "c", "M"
ZONE I=76, J=15, DATAPACKING=POINT, STRANDID=11000, SOLUTIONTIME=0.000394
1.3190160000000001e-01,	 2.3487609999999999e-02,	 1.8255084027244400e-01,	 9.7350292706185868e+01,	 3.2771584890374150e+01,	 1.9129480938534552e+03,	 1.0046550226526594e+05,	 8.7776968857257441e+02,	 1.1702196595859105e-01 
1.3318700000000000e-01,	 2.3509380000000000e-02,	 1.8320900183701333e-01,	 9.4420033420696384e+01,	 3.3844942998363322e+01,	 1.9039603105588428e+03,	 1.0035398829578739e+05,	 8.7570520698823987e+02,	 1.1453929425539196e-01 
1.3448019999999999e-01,	 2.3531290000000000e-02,	 1.8480250793916864e-01,	 9.3020741443137695e+01,	 3.6284054112578566e+01,	 1.8871149318437251e+03,	 1.0033123293669963e+05,	 8.7182267861926550e+02,	 1.1452654279591101e-01 
1.3578160000000000e-01,	 2.3553339999999999e-02,	 1.8665218553734508e-01,	 9.2242442310825510e+01,	 3.8691269914050842e+01,	 1.8698604840021198e+03,	 1.0040890262828593e+05,	 8.6782786038810389e+02,	 1.1526296076177725e-01 
1.3709120000000000e-01,	 2.3575530000000001e-02,	 1.8862298770150218e-01,	 9.1441562677183441e+01,	 4.0630854360062699e+01,	 1.8536006260549436e+03,	 1.0058673804739314e+05,	 8.6404641040863009e+02,	 1.1580640583790230e-01 
1.3840910000000001e-01,	 2.3597859999999998e-02,	 1.9060693277639029e-01,	 9.0505605850525484e+01,	 4.2523847387572971e+01,	 1.8391538070951065e+03,	 1.0085250289969506e+05,	 8.6067266865523084e+02,	 1.1618553144613715e-01 
1.3973550000000001e-01,	 2.3620329999999998e-02,	 1.9255150261402537e-01,	 8.9400146269556586e+01,	 4.4520406996795060e+01,	 1.8272181219775780e+03,	 1.0122021218588758e+05,	 8.5787533894869694e+02,	 1.1641805952415799e-01 
1.4107049999999999e-01,	 2.3642949999999999e-02,	 1.9442783336048630e-01,	 8.8295532874212824e+01,	 4.6604292333790383e+01,	 1.8184649326298181e+03,	 1.0171694420198360e+05,	 8.5581806953145042e+02,	 1.1666051674633042e-01 
1.4241419999999999e-01,	 2.3665710000000000e-02,	 1.9607313485450870e-01,	 8.7308491334657788e+01,	 4.8846903834922045e+01,	 1.8143173209181914e+03,	 1.0234373837000559e+05,	 8.5484152406547207e+02,	 1.1703216431453604e-01 
1.4376680000000000e-01,	 2.3688629999999999e-02,	 1.9797864645239827e-01,	 8.6672710618811109e+01,	 5.1230168398328196e+01,	 1.8112269766956110e+03,	 1.0316233564212118e+05,	 8.5411318387237588e+02,	 1.1787796611246162e-01 
1.4512829999999999e-01,	 2.3711699999999999e-02,	 2.0039834602756385e-01,	 8.6764848594334737e+01,	 5.3228599898498445e+01,	 1.8063808137965466e+03,	 1.0414379086473660e+05,	 8.5296977553541888e+02,	 1.1933725810491223e-01 
1.4649889999999999e-01,	 2.3734920000000000e-02,	 2.0306824651048930e-01,	 8.8092954345451346e+01,	 5.4398417384549731e+01,	 1.8019271892009720e+03,	 1.0527110813672676e+05,	 8.5191762985289608e+02,	 1.2153204378768637e-01 
1.4787880000000000e-01,	 2.3758300000000000e-02,	 2.0638629574685047e-01,	 9.1373777998556534e+01,	 5.4428980243263382e+01,	 1.7953485653615144e+03,	 1.0660058126658137e+05,	 8.5036108242015337e+02,	 1.2507203099787992e-01 
1.4926809999999999e-01,	 2.3781839999999999e-02,	 2.1077507264237011e-01,	 9.7560467087113125e+01,	 5.2832385706922516e+01,	 1.7827812853822256e+03,	 1.0810536603095033e+05,	 8.4737962988018262e+02,	 1.3092987680535309e-01 
1.5066679999999999e-01,	 2.3805529999999998e-02,	 2.1640619698276242e-01,	 1.0755851922700889e+02,	 4.9108553542689108e+01,	 1.7630088092953356e+03,	 1.0976253100788266e+05,	 8.4266746775135323e+02,	 1.4031525587554006e-01 
1.5207519999999999e-01,	 2.3829389999999999e-02,	 2.2307416062486995e-01,	 1.2189579000039362e+02,	 4.2839783042703843e+01,	 1.7373561690786630e+03,	 1.1149825375936441e+05,	 8.3651439132319331e+02,	 1.5445592922608486e-01 
1.5349340000000000e-01,	 2.3853420000000000e-02,	 2.3016825492497861e-01,	 1.4074290547556629e+02,	 3.3945291796925325e+01,	 1.7097950471396846e+03,	 1.1321902672305342e+05,	 8.2985270492599670e+02,	 1.7446303097229399e-01 
1.5492149999999999e-01,	 2.3877619999999999e-02,	 2.3679978564330367e-01,	 1.6395573352982268e+02,	 2.2685922354308495e+01,	 1.6853357130414972e+03,	 1.1481474515161621e+05,	 8.2389562834885851e+02,	 2.0089653187695078e-01 
1.5635959999999999e-01,	 2.3901980000000000e-02,	 2.4198556039340921e-01,	 1.9148669012546617e+02,	 9.5612640859115725e+00,	 1.6685717245586293e+03,	 1.1616205035715389e+05,	 8.1978775389092823e+02,	 2.3387181121533138e-01 
1.5780790000000000e-01,	 2.3926520000000000e-02,	 2.4492953570090509e-01,	 2.2426508007083805e+02,	 -4.9434835529272538e+00,	 1.6619169300563672e+03,	 1.1710634022443318e+05,	 8.1815133352678333e+02,	 2.7417856447595246e-01 
1.5926660000000001e-01,	 2.3951230000000000e-02,	 2.4493796002997953e-01,	 2.6211577464232380e+02,	 -2.0305429343527177e+01,	 1.6649346065073055e+03,	 1.1732301481587492e+05,	 8.1889378828845031e+02,	 3.2104420184258403e-01 
1.6073570000000001e-01,	 2.3976120000000000e-02,	 2.4339915960913738e-01,	 3.0366737938481032e+02,	 -3.5899738226881823e+01,	 1.6708680045963993e+03,	 1.1700142593641956e+05,	 8.2035165384598031e+02,	 3.7274510149344647e-01 
1.6221540000000001e-01,	 2.4001189999999999e-02,	 2.3965051152342381e-01,	 3.4943316239699129e+02,	 -5.0740620073163612e+01,	 1.6795659547656110e+03,	 1.1579914707275941e+05,	 8.2248411308652794e+02,	 4.2930668278233292e-01 
1.6370580000000001e-01,	 2.4026440000000000e-02,	 2.3396213957925752e-01,	 3.9925935196542525e+02,	 -6.3811649052311189e+01,	 1.6886491603896798e+03,	 1.1366191011954383e+05,	 8.2470513896652028e+02,	 4.9026800973102613e-01 
1.6520710000000000e-01,	 2.4051879999999998e-02,	 2.2663040863661257e-01,	 4.5372469460344718e+02,	 -7.4028970940407703e+01,	 1.6956744008031437e+03,	 1.1055810422432671e+05,	 8.2641885742651118e+02,	 5.5628480273556413e-01 
1.6671949999999999e-01,	 2.4077499999999998e-02,	 2.1785759838375787e-01,	 5.1321735136056748e+02,	 -8.0417062934295757e+01,	 1.6983651724821211e+03,	 1.0644707314000088e+05,	 8.2707429663889729e+02,	 6.2809291116084021e-01 
1.6824300000000000e-01,	 2.4103320000000001e-02,	 2.0771115439612881e-01,	 5.7769107182778248e+02,	 -8.2200142185645575e+01,	 1.6964887921492173e+03,	 1.0137730730955224e+05,	 8.2661728808483667e+02,	 7.0590095069129599e-01 
1.6977790000000001e-01,	 2.4129319999999999e-02,	 1.9657166511479679e-01,	 6.4648549017657342e+02,	 -7.8659835892116320e+01,	 1.6875388149837463e+03,	 9.5434329096683228e+04,	 8.2443395826165113e+02,	 7.8993992418886894e-01 
1.7132420000000001e-01,	 2.4155520000000000e-02,	 1.8487935107729800e-01,	 7.1861172882298683e+02,	 -6.9703721648059158e+01,	 1.6709645816211346e+03,	 8.8876223025487052e+04,	 8.2037536187586011e+02,	 8.8006588221793136e-01 
1.7288220000000001e-01,	 2.4181910000000001e-02,	 1.7321050197414384e-01,	 7.9353140844381505e+02,	 -5.2975425181991497e+01,	 1.6484208601338564e+03,	 8.2143321451234282e+04,	 8.1482254615845488e+02,	 9.7603796264450615e-01 
1.7445189999999999e-01,	 2.4208509999999999e-02,	 1.6256609032824021e-01,	 8.7134679434375096e+02,	 -2.7074265673505327e+01,	 1.6217347736156958e+03,	 7.5847230536636605e+04,	 8.0820010234048209e+02,	 1.0786528146793417e+00 
1.7603350000000001e-01,	 2.4235299999999998e-02,	 1.5236244395020876e-01,	 9.4940995216435908e+02,	 4.7008592386868351e+00,	 1.5917117802581006e+03,	 6.9770574376354431e+04,	 8.0068409531774489e+02,	 1.1857630186992536e+00 
1.7762720000000001e-01,	 2.4262309999999999e-02,	 1.4270590398608024e-01,	 1.0278397198953180e+03,	 3.7639398738377380e+01,	 1.5615670852441349e+03,	 6.4110996127326311e+04,	 7.9306596049347161e+02,	 1.2969017912089684e+00 
1.7923310000000001e-01,	 2.4289510000000000e-02,	 1.3376069167889632e-01,	 1.1034722773788717e+03,	 6.9642496097522596e+01,	 1.5341821657209780e+03,	 5.9038507949435188e+04,	 7.8608127560886749e+02,	 1.4065565115341216e+00 
1.8085140000000000e-01,	 2.4316930000000000e-02,	 1.2575229907004548e-01,	 1.1742256134738841e+03,	 9.8598056454740004e+01,	 1.5079425723779059e+03,	 5.4554511800616026e+04,	 7.7932998785453765e+02,	 1.5120140762807004e+00 
1.8248220000000001e-01,	 2.4344559999999998e-02,	 1.1898749891051731e-01,	 1.2398861884620355e+03,	 1.2378437682111939e+02,	 1.4788680127974458e+03,	 5.0624493228708059e+04,	 7.7178030971786848e+02,	 1.6145137105485727e+00 
1.8412570000000000e-01,	 2.4372410000000001e-02,	 1.1360966611553780e-01,	 1.3005228698941050e+03,	 1.4496238137303044e+02,	 1.4443246872898903e+03,	 4.7207397138731998e+04,	 7.6271344800147779e+02,	 1.7156863133800149e+00 
1.8578210000000001e-01,	 2.4400470000000000e-02,	 1.0949368650012888e-01,	 1.3568184961589593e+03,	 1.6236098998352742e+02,	 1.4044856249495276e+03,	 4.4242159190929757e+04,	 7.5212086323784888e+02,	 1.8168599450413863e+00 
1.8745139999999999e-01,	 2.4428749999999999e-02,	 1.0626469561472521e-01,	 1.4104281455046262e+03,	 1.7665170529942850e+02,	 1.3628828831546066e+03,	 4.1665584358365319e+04,	 7.4089771459727024e+02,	 1.9185477385651055e+00 
1.8913400000000000e-01,	 2.4457259999999998e-02,	 1.0345022969531978e-01,	 1.4636606625507281e+03,	 1.8867424601036743e+02,	 1.3244258427060527e+03,	 3.9417496981735909e+04,	 7.3036980407738986e+02,	 2.0205807362380441e+00 
1.9082979999999999e-01,	 2.4485989999999999e-02,	 1.0067375070492848e-01,	 1.5187453284261246e+03,	 1.9919875457432073e+02,	 1.2929479704711682e+03,	 3.7447879897642619e+04,	 7.2163819401165756e+02,	 2.1226053425400275e+00 
1.9253909999999999e-01,	 2.4514950000000001e-02,	 9.7770545917476109e-02,	 1.5771331737333103e+03,	 2.0877275471394884e+02,	 1.2702143976305319e+03,	 3.5728518527859655e+04,	 7.1526586933176168e+02,	 2.2241957329100175e+00 
1.9426209999999999e-01,	 2.4544139999999999e-02,	 9.4626022005378840e-02,	 1.6392986320768041e+03,	 2.1772983799211397e+02,	 1.2563390265395426e+03,	 3.4201674650135916e+04,	 7.1134848673060390e+02,	 2.3247322081198547e+00 
1.9599890000000000e-01,	 2.4573559999999998e-02,	 9.1388949557585031e-02,	 1.7048202355190169e+03,	 2.2556222481852535e+02,	 1.2487508581855277e+03,	 3.2832157514354469e+04,	 7.0919699447117432e+02,	 2.4248233019364416e+00 
1.9774960000000000e-01,	 2.4603230000000000e-02,	 8.8324199088518268e-02,	 1.7722489112013404e+03,	 2.3246231668059227e+02,	 1.2445461769665644e+03,	 3.1624281017029840e+04,	 7.0800201565115538e+02,	 2.5246110326579716e+00 
1.9951450000000001e-01,	 2.4633130000000000e-02,	 8.5534464704126761e-02,	 1.8399206836520304e+03,	 2.3800848829109293e+02,	 1.2412616907465085e+03,	 3.0544599227369283e+04,	 7.0706715313136704e+02,	 2.6238681319559394e+00 
2.0129369999999999e-01,	 2.4663270000000001e-02,	 8.3051055601058271e-02,	 1.9060448222638520e+03,	 2.4205331554238052e+02,	 1.2381480752719872e+03,	 2.9583372443707496e+04,	 7.0617978281359706e+02,	 2.7207700789161886e+00 
2.0308750000000000e-01,	 2.4693659999999999e-02,	 8.0939637829848934e-02,	 1.9691233335585616e+03,	 2.4434522962547902e+02,	 1.2328879862147096e+03,	 2.8708785133919595e+04,	 7.0467813603008108e+02,	 2.8157899532399786e+00 
2.0489579999999999e-01,	 2.4724299999999998e-02,	 7.9267136831036866e-02,	 2.0279981764145232e+03,	 2.4470027479165719e+02,	 1.2230666978196414e+03,	 2.7891588563866779e+04,	 7.0186576156391720e+02,	 2.9103965908300422e+00 
2.0671900000000001e-01,	 2.4755190000000000e-02,	 7.7979039762417435e-02,	 2.0818267328774668e+03,	 2.4310675273711522e+02,	 1.2094203600358292e+03,	 2.7132205384324068e+04,	 6.9793925303431979e+02,	 3.0030882190965418e+00 
2.0855720000000000e-01,	 2.4786329999999999e-02,	 7.6972196700794582e-02,	 2.1302070238320612e+03,	 2.3971072619661479e+02,	 1.1937885072326703e+03,	 2.6435724185242489e+04,	 6.9341412383365900e+02,	 3.0914453036618101e+00 
2.1041060000000000e-01,	 2.4817730000000000e-02,	 7.6162679316374798e-02,	 2.1731763899148614e+03,	 2.3478594439015347e+02,	 1.1770218922432855e+03,	 2.5790317682259676e+04,	 6.8852744627142772e+02,	 3.1746338152962679e+00 
2.1227940000000001e-01,	 2.4849389999999999e-02,	 7.5497565481796619e-02,	 2.2109696797344941e+03,	 2.2853586670235165e+02,	 1.1592364316810986e+03,	 2.5178792935575701e+04,	 6.8330562720052501e+02,	 3.2529361132914540e+00 
2.1416370000000001e-01,	 2.4881319999999998e-02,	 7.4954100171217966e-02,	 2.2439436673934429e+03,	 2.2120004887774476e+02,	 1.1407795270627389e+03,	 2.4599543666350502e+04,	 6.7784413990376891e+02,	 3.3264577161603310e+00 
2.1606370000000000e-01,	 2.4913510000000000e-02,	 7.4427682804124332e-02,	 2.2725981793703900e+03,	 2.1303465070506209e+02,	 1.1221427905465580e+03,	 2.4027719820825725e+04,	 6.7228442254990046e+02,	 3.3952316285663451e+00 
2.1797960000000000e-01,	 2.4945969999999998e-02,	 7.3813831374697325e-02,	 2.3013612663688732e+03,	 2.0405602510580263e+02,	 1.1023372449722128e+03,	 2.3408962565061629e+04,	 6.6632518296254966e+02,	 3.4673612618058924e+00 
2.1991160000000001e-01,	 2.4978700000000000e-02,	 7.5195857096468671e-02,	 2.3002621696407327e+03,	 2.0595581877733338e+02,	 1.1021757511952351e+03,	 2.3843757886582182e+04,	 6.6627637244089442e+02,	 3.4662252329186756e+00 
2.2185980000000000e-01,	 2.5011709999999999e-02,	 1.0634804558681799e-01,	 2.0562310069696628e+03,	 3.5835056926827440e+02,	 1.4231889375913988e+03,	 4.3543367194614671e+04,	 7.5711223807002534e+02,	 2.7568214993310010e+00 
2.2382450000000001e-01,	 2.5044999999999998e-02,	 2.1163155313705118e-01,	 1.4891394911109658e+03,	 6.5309118231288528e+02,	 2.0675154930465592e+03,	 1.2588069420863170e+05,	 9.1254307326389676e+02,	 1.7818972232442489e+00 
2.2580590000000000e-01,	 2.5078569999999998e-02,	 2.6223659760532098e-01,	 1.2671758288386043e+03,	 7.2762969992796866e+02,	 2.2277484056044113e+03,	 1.6806968282418646e+05,	 9.4724442372275109e+02,	 1.5426064555072487e+00 
2.2780410000000001e-01,	 2.5112420000000000e-02,	 2.5047418812058875e-01,	 1.2338618602540871e+03,	 6.9156660965301626e+02,	 2.1665661811385417e+03,	 1.5612227631528256e+05,	 9.3414644731647547e+02,	 1.5141670489308174e+00 
2.2981930000000000e-01,	 2.5146559999999998e-02,	 2.3587413117663014e-01,	 1.1509681260798297e+03,	 5.9767863326429506e+02,	 2.0854810584673687e+03,	 1.4151957010538146e+05,	 9.1649924475926980e+02,	 1.4150575094276079e+00 
2.3185169999999999e-01,	 2.5180999999999999e-02,	 2.4321508378012874e-01,	 9.8234212968981456e+02,	 4.5355428070456787e+02,	 1.9719073870566444e+03,	 1.3797708231065041e+05,	 8.9119397867291696e+02,	 1.2140930280443925e+00 
2.3390159999999999e-01,	 2.5215729999999999e-02,	 2.6359745452621242e-01,	 7.7970153403574807e+02,	 2.8163514395333965e+02,	 1.8074466127899282e+03,	 1.3706817418976163e+05,	 8.5322137261423597e+02,	 9.7162022142563809e-01 
2.3596900000000001e-01,	 2.5250749999999999e-02,	 3.0796045082614620e-01,	 6.1070178476242108e+02,	 1.2387826734208815e+02,	 1.5723168936685729e+03,	 1.3930444196903321e+05,	 7.9579100685277569e+02,	 7.8304381511671328e-01 
2.3805430000000000e-01,	 2.5286079999999999e-02,	 3.8926685890315565e-01,	 5.0215015063377263e+02,	 9.3193186502449823e+00,	 1.2828399766576163e+03,	 1.4366462823572886e+05,	 7.1881185183864227e+02,	 6.9870386767194370e-01 
2.4015760000000000e-01,	 2.5321719999999999e-02,	 5.1582640489664666e-01,	 4.5028387796666084e+02,	 -5.4275181801194343e+01,	 9.9849182281660831e+02,	 1.4817605215142589e+05,	 6.3416350109677296e+02,	 7.1518326754054462e-01 
2.4227910000000000e-01,	 2.5357660000000001e-02,	 6.7606476502025603e-01,	 4.3374200012011158e+02,	 -7.4271680307861388e+01,	 7.8119802417311575e+02,	 1.5194253774900167e+05,	 5.6093114542775777e+02,	 7.8450805596601270e-01 
2.4441900000000000e-01,	 2.5393920000000000e-02,	 8.4534947728429277e-01,	 4.3152461539411695e+02,	 -6.8889615848687470e+01,	 6.3754896343474820e+02,	 1.5505285591316404e+05,	 5.0674066680553881e+02,	 8.6235208467765390e-01 
2.4657750000000001e-01,	 2.5430490000000000e-02,	 9.9850550651763070e-01,	 4.3131541803961170e+02,	 -5.1800112708089401e+01,	 5.4929558515692713e+02,	 1.5779255565892826e+05,	 4.7036179690671258e+02,	 9.2357591410268092e-01 
2.4875480000000000e-01,	 2.5467370000000000e-02,	 1.1207498168914762e+00,	 4.3101818388195204e+02,	 -2.9714520349468721e+01,	 4.9709761620770166e+02,	 1.6028035459558279e+05,	 4.4745547543190906e+02,	 9.6555133941075755e-01 
2.5095109999999998e-01,	 2.5504590000000001e-02,	 1.2130668522189350e+00,	 4.3032956591460322e+02,	 -6.4761491764191375e+00,	 4.6603100166472092e+02,	 1.6264079223585740e+05,	 4.3324782449566220e+02,	 9.9337669921536942e-01 
2.5316670000000002e-01,	 2.5542119999999998e-02,	 1.2865179538126412e+00,	 4.2816925019005225e+02,	 1.5287119043236741e+01,	 4.4567801839407787e+02,	 1.6495557700721823e+05,	 4.2368159053755369e+02,	 1.0112359712657277e+00 
2.5540180000000001e-01,	 2.5579990000000000e-02,	 1.3540982961948269e+00,	 4.2484373225670998e+02,	 3.3537355572505604e+01,	 4.2947916147947774e+02,	 1.6731012574806699e+05,	 4.1591064385167391e+02,	 1.0246561604077875e+00 
2.5765650000000001e-01,	 2.5618189999999999e-02,	 1.4228670082973112e+00,	 4.2035869704311835e+02,	 4.6767943386766802e+01,	 4.1436259359558113e+02,	 1.6961911379361563e+05,	 4.0852558254291785e+02,	 1.0353141873076019e+00 
2.5993110000000003e-01,	 2.5656729999999999e-02,	 1.4641415069335884e+00,	 4.1750553313687715e+02,	 5.2876281184012441e+01,	 4.0488816888185221e+02,	 1.7054856777076685e+05,	 4.0382809462676335e+02,	 1.0421279720538830e+00 
1.3189750000000000e-01,	 2.3921470000000000e-02,	 1.8192549350833637e-01,	 7.7729393307877615e+01,	 3.3635740277699000e+01,	 1.9203353404435961e+03,	 1.0050798669601421e+05,	 8.7946290050520531e+02,	 9.6302952080697418e-02 
1.3318279999999999e-01,	 2.3943869999999999e-02,	 1.8245888241443783e-01,	 7.3223080448582081e+01,	 3.4176123308833731e+01,	 1.9131413110907788e+03,	 1.0042503634141434e+05,	 8.7781401699747448e+02,	 9.2053789698701788e-02 
1.3447600000000001e-01,	 2.3966419999999999e-02,	 1.8372964447868889e-01,	 6.9524041480706160e+01,	 3.6126073010070755e+01,	 1.8997475619325323e+03,	 1.0041649720657624e+05,	 8.7473586723615631e+02,	 8.9569625280068288e-02 
1.3577739999999999e-01,	 2.3989110000000001e-02,	 1.8520528059199862e-01,	 6.7060588108759376e+01,	 3.8351968467639892e+01,	 1.8859834100826927e+03,	 1.0048961233388484e+05,	 8.7156126522159138e+02,	 8.8637263513666575e-02 
1.3708699999999999e-01,	 2.4011939999999999e-02,	 1.8686034771716409e-01,	 6.4983107796670438e+01,	 4.0253479993841410e+01,	 1.8723877123760967e+03,	 1.0065674274874489e+05,	 8.6841412301347907e+02,	 8.8023073052708040e-02 
1.3840490000000000e-01,	 2.4034910000000000e-02,	 1.8867399159470119e-01,	 6.3273795818260304e+01,	 4.2146817089425170e+01,	 1.8593699042886039e+03,	 1.0092709479063474e+05,	 8.6539002543689935e+02,	 8.7851525574394240e-02 
1.3973130000000000e-01,	 2.4058030000000001e-02,	 1.9059714971024916e-01,	 6.1779399998825298e+01,	 4.4165197538203351e+01,	 1.8472725183154666e+03,	 1.0129250429006957e+05,	 8.6257024198009492e+02,	 8.8042071871297256e-02 
1.4106630000000001e-01,	 2.4081309999999998e-02,	 1.9264971224850697e-01,	 6.0580317190985241e+01,	 4.6270245174018442e+01,	 1.8363172921626899e+03,	 1.0177615180784685e+05,	 8.6000870762647128e+02,	 8.8637855804199195e-02 
1.4241000000000001e-01,	 2.4104729999999998e-02,	 1.9501331939801295e-01,	 5.9823594017435354e+01,	 4.8487564912751779e+01,	 1.8254501114035213e+03,	 1.0241514413342776e+05,	 8.5746019974711464e+02,	 8.9806949876570827e-02 
1.4376249999999999e-01,	 2.4128310000000000e-02,	 1.9758142322058614e-01,	 5.9795438607897708e+01,	 5.0697488654882761e+01,	 1.8154165578253130e+03,	 1.0319349916047307e+05,	 8.5510044543929791e+02,	 9.1678943467682975e-02 
1.4512400000000000e-01,	 2.4152040000000000e-02,	 2.0043625771340928e-01,	 6.0865464648040771e+01,	 5.2434360494942723e+01,	 1.8060050048595303e+03,	 1.0414182223759631e+05,	 8.5288104276756803e+02,	 9.4194361618712127e-02 
1.4649460000000000e-01,	 2.4175940000000000e-02,	 2.0405950353320382e-01,	 6.3691742376927429e+01,	 5.3222578955731137e+01,	 1.7934046799181058e+03,	 1.0528465100772155e+05,	 8.4990060019257328e+02,	 9.7660470507080099e-02 
1.4787449999999999e-01,	 2.4199990000000001e-02,	 2.0864676888663219e-01,	 6.8860007326046826e+01,	 5.2629922007296500e+01,	 1.7758213835316437e+03,	 1.0659599365378656e+05,	 8.4572394546240332e+02,	 1.0247970540203076e-01 
1.4926380000000000e-01,	 2.4224209999999999e-02,	 2.1426600701672965e-01,	 7.7138410644708060e+01,	 5.0175497923424857e+01,	 1.7532643715636664e+03,	 1.0807633811176736e+05,	 8.4033546055501222e+02,	 1.0950540465308736e-01 
1.5066250000000000e-01,	 2.4248599999999999e-02,	 2.2080632241914444e-01,	 8.9186330638642673e+01,	 4.5387769508907866e+01,	 1.7267702296094842e+03,	 1.0969226257805525e+05,	 8.3396200130822228e+02,	 1.1999495233946308e-01 
1.5207090000000001e-01,	 2.4273150000000000e-02,	 2.2783766598166902e-01,	 1.0530619324316206e+02,	 3.7977225695333502e+01,	 1.6991651456821976e+03,	 1.1137585510525297e+05,	 8.2726906022356366e+02,	 1.3531862901494540e-01 
1.5348909999999999e-01,	 2.4297869999999999e-02,	 2.3469555498272138e-01,	 1.2556634228173955e+02,	 2.7943873051276849e+01,	 1.6741683866762360e+03,	 1.1304046587603739e+05,	 8.2116145396915249e+02,	 1.5665387248830842e-01 
1.5491710000000000e-01,	 2.4322759999999999e-02,	 2.4065553424336428e-01,	 1.4986149723159306e+02,	 1.5582492787241733e+01,	 1.6550159641238683e+03,	 1.1458505516325957e+05,	 8.1645091524898362e+02,	 1.8454195440972684e-01 
1.5635520000000000e-01,	 2.4347830000000001e-02,	 2.4498661174779457e-01,	 1.7819240046364789e+02,	 1.3504151356785630e+00,	 1.6440415620765316e+03,	 1.1587375508891715e+05,	 8.1373947204516514e+02,	 2.1898595743715352e-01 
1.5780350000000001e-01,	 2.4373079999999998e-02,	 2.4724175147113803e-01,	 2.1063545251450137e+02,	 -1.4286027047081497e+01,	 1.6416592430810156e+03,	 1.1677093702321226e+05,	 8.1314967862414903e+02,	 2.5963161046582467e-01 
1.5926219999999999e-01,	 2.4398509999999998e-02,	 2.4695761435566549e-01,	 2.4688914695182436e+02,	 -3.0884779261527346e+01,	 1.6467110992178905e+03,	 1.1699566529539877e+05,	 8.1439986490870331e+02,	 3.0551751755609063e-01 
1.6073119999999999e-01,	 2.4424120000000001e-02,	 2.4485731490736251e-01,	 2.8668103205289333e+02,	 -4.7430501442927145e+01,	 1.6558560389593613e+03,	 1.1664485739174028e+05,	 8.1665810142370242e+02,	 3.5581372265435496e-01 
1.6221089999999999e-01,	 2.4449909999999998e-02,	 2.4053414839404075e-01,	 3.3040266571964048e+02,	 -6.3201986378216930e+01,	 1.6681697230785378e+03,	 1.1543750018799599e+05,	 8.1968899405412583e+02,	 4.1039131115522848e-01 
1.6370140000000000e-01,	 2.4475890000000000e-02,	 2.3429846144944233e-01,	 3.7825502975534846e+02,	 -7.7190997404431513e+01,	 1.6810590624218205e+03,	 1.1331368063676855e+05,	 8.2284961957742348e+02,	 4.6916340119668648e-01 
1.6520270000000001e-01,	 2.4502070000000001e-02,	 2.2650035460358667e-01,	 4.3087881420826687e+02,	 -8.8334462227954504e+01,	 1.6916016231992282e+03,	 1.1022926636200001e+05,	 8.2542578832581933e+02,	 5.3286479774688533e-01 
1.6671500000000000e-01,	 2.4528430000000000e-02,	 2.1740102824238011e-01,	 4.8873849840719026e+02,	 -9.5527449272690816e+01,	 1.6971219595135767e+03,	 1.0614623252629343e+05,	 8.2677152967671645e+02,	 6.0232693359713974e-01 
1.6823859999999999e-01,	 2.4554989999999999e-02,	 2.0703526480277226e-01,	 5.5199183346319580e+02,	 -9.7694770134067284e+01,	 1.6972683753382967e+03,	 1.0109386084079988e+05,	 8.2680719294296466e+02,	 6.7799418681616253e-01 
1.6977339999999999e-01,	 2.4581739999999998e-02,	 1.9581135293448698e-01,	 6.2013287218689925e+02,	 -9.4126459112127279e+01,	 1.6889373166639789e+03,	 9.5143984918605027e+04,	 8.2477550107269531e+02,	 7.6049259008261538e-01 
1.7131969999999999e-01,	 2.4608700000000001e-02,	 1.8412020862958534e-01,	 6.9190860582328003e+02,	 -8.4749654132337412e+01,	 1.6725177275711417e+03,	 8.8593554284611411e+04,	 8.2075653893423259e+02,	 8.4931353651297381e-01 
1.7287770000000000e-01,	 2.4635859999999999e-02,	 1.7236254037004642e-01,	 7.6680128664787264e+02,	 -6.8480035562815502e+01,	 1.6495452782298664e+03,	 8.1796941433002634e+04,	 8.1510040148410121e+02,	 9.4448862375221676e-01 
1.7444740000000000e-01,	 2.4663220000000000e-02,	 1.6143927596535892e-01,	 8.4519975603278851e+02,	 -4.3158393177820102e+01,	 1.6222246423958700e+03,	 7.5344253251050977e+04,	 8.0832215747288376e+02,	 1.0469847056758197e+00 
1.7602899999999999e-01,	 2.4690790000000001e-02,	 1.5130029575305376e-01,	 9.2510676706069489e+02,	 -1.0467034625899402e+01,	 1.5920004170220284e+03,	 6.9296753957657013e+04,	 8.0075668898480865e+02,	 1.1553646595002358e+00 
1.7762269999999999e-01,	 2.4718569999999999e-02,	 1.4174196726778029e-01,	 1.0037792382567799e+03,	 2.4061932260970082e+01,	 1.5615722359513502e+03,	 6.3678155102487632e+04,	 7.9306726842549551e+02,	 1.2660560272494714e+00 
1.7922859999999999e-01,	 2.4746560000000001e-02,	 1.3300466032930441e-01,	 1.0791950519854904e+03,	 5.7752791684678002e+01,	 1.5332326057613818e+03,	 5.8668480775651791e+04,	 7.8583797111251408e+02,	 1.3752698372609313e+00 
1.8084680000000000e-01,	 2.4774769999999998e-02,	 1.2514894331863705e-01,	 1.1498161003303289e+03,	 8.8130850889882382e+01,	 1.5070707488604526e+03,	 5.4261371298219739e+04,	 7.7910466878166653e+02,	 1.4801460155990791e+00 
1.8247769999999999e-01,	 2.4803200000000001e-02,	 1.1834062000356632e-01,	 1.2155747103075669e+03,	 1.1442045083517354e+02,	 1.4810318464174666e+03,	 5.0422941224222901e+04,	 7.7234472579116311e+02,	 1.5808329067732958e+00 
1.8412110000000001e-01,	 2.4831849999999999e-02,	 1.1275572442998591e-01,	 1.2765279634389926e+03,	 1.3636973710888969e+02,	 1.4519478996799180e+03,	 4.7099854970702370e+04,	 7.6472361744852026e+02,	 1.6787651983094294e+00 
1.8577750000000001e-01,	 2.4860719999999999e-02,	 1.0840778464633211e-01,	 1.3329302824715119e+03,	 1.5414702111045105e+02,	 1.4180927327308184e+03,	 4.4227769590382253e+04,	 7.5575547536746535e+02,	 1.7754603259938402e+00 
1.8744680000000000e-01,	 2.4889820000000000e-02,	 1.0508821943498767e-01,	 1.3857352073299214e+03,	 1.6828276954281532e+02,	 1.3805245197377083e+03,	 4.1737659884057284e+04,	 7.4567751709575555e+02,	 1.8720101545938594e+00 
1.8912930000000000e-01,	 2.4919150000000001e-02,	 1.0242955735063858e-01,	 1.4366886347384500e+03,	 1.7956471062722673e+02,	 1.3427203151072681e+03,	 3.9567698807726338e+04,	 7.3539685198992879e+02,	 1.9688235072513658e+00 
1.9082510000000000e-01,	 2.4948709999999999e-02,	 1.0003229015253710e-01,	 1.4879163245438569e+03,	 1.8883335116971529e+02,	 1.3087869510527489e+03,	 3.7665098325422921e+04,	 7.2604487593444730e+02,	 2.0657827774837862e+00 
1.9253439999999999e-01,	 2.4978509999999999e-02,	 9.7581547881018915e-02,	 1.5412784252595297e+03,	 1.9684870766845364e+02,	 1.2817370811225162e+03,	 3.5982935393916196e+04,	 7.1850279347493779e+02,	 2.1625498664223630e+00 
1.9425740000000000e-01,	 2.5008539999999999e-02,	 9.4974857508483543e-02,	 1.5978714203025027e+03,	 2.0415519020660153e+02,	 1.2628051149043295e+03,	 3.4504435005500512e+04,	 7.1317671101251415e+02,	 2.2587119633205557e+00 
1.9599420000000001e-01,	 2.5038820000000000e-02,	 9.2238507107340634e-02,	 1.6580166432189760e+03,	 2.1066000872669269e+02,	 1.2510080154185371e+03,	 3.3197264215596064e+04,	 7.0983765325744696e+02,	 2.3545465725567167e+00 
1.9774490000000000e-01,	 2.5069330000000001e-02,	 8.9436724690413472e-02,	 1.7210824698780098e+03,	 2.1652919141381960e+02,	 1.2446948885570509e+03,	 3.2026444711333970e+04,	 7.0804431418644333e+02,	 2.4499169279454867e+00 
1.9950979999999999e-01,	 2.5100100000000000e-02,	 8.6739923662733961e-02,	 1.7858217494156202e+03,	 2.2158161316730974e+02,	 1.2412309415643310e+03,	 3.0974304699741519e+04,	 7.0705839515892796e+02,	 2.5450740474947473e+00 
2.0128900000000000e-01,	 2.5131109999999998e-02,	 8.4279199093605039e-02,	 1.8507204089384693e+03,	 2.2559241407686264e+02,	 1.2381051763524367e+03,	 3.0019805676177337e+04,	 7.0616754897311080e+02,	 2.6401934481807503e+00 
2.0308270000000000e-01,	 2.5162379999999998e-02,	 8.2102941351169773e-02,	 1.9141756107249435e+03,	 2.2829975111916730e+02,	 1.2341604785890881e+03,	 2.9151458519551081e+04,	 7.0504169959312912e+02,	 2.7342240269041955e+00 
2.0489109999999999e-01,	 2.5193899999999998e-02,	 8.0254956950635281e-02,	 1.9748224608741275e+03,	 2.2937379622217622e+02,	 1.2282787567175462e+03,	 2.8359511406625650e+04,	 7.0335966074691260e+02,	 2.8265746854465479e+00 
2.0671429999999999e-01,	 2.5225680000000000e-02,	 7.8744632570656697e-02,	 2.0315887095424077e+03,	 2.2879461561562121e+02,	 1.2195395525466424e+03,	 2.7627830851836930e+04,	 7.0085299182283666e+02,	 2.9170616409232553e+00 
2.0855240000000000e-01,	 2.5257720000000001e-02,	 7.7529195838029266e-02,	 2.0837307992066580e+03,	 2.2672798412860922e+02,	 1.2079379468507582e+03,	 2.6942620968432162e+04,	 6.9751138212059163e+02,	 3.0050111633797552e+00 
2.1040580000000000e-01,	 2.5290029999999998e-02,	 7.6552344547862153e-02,	 2.1309005296652213e+03,	 2.2329992665066010e+02,	 1.1937610232312391e+03,	 2.6290922721629093e+04,	 6.9340614172277958e+02,	 3.0899185996095420e+00 
2.1227460000000001e-01,	 2.5322600000000001e-02,	 7.5743088241713677e-02,	 2.1730392656475792e+03,	 2.1868695404019957e+02,	 1.1777276071553074e+03,	 2.5663613224279154e+04,	 6.8873382785065121e+02,	 3.1710588264778443e+00 
2.1415880000000001e-01,	 2.5355449999999998e-02,	 7.5044863043503579e-02,	 2.2103214230671238e+03,	 2.1307921888725505e+02,	 1.1604137704351356e+03,	 2.5053233186773017e+04,	 6.8365252711508992e+02,	 3.2480949101828562e+00 
2.1605880000000000e-01,	 2.5388569999999999e-02,	 7.4413377759027288e-02,	 2.2430754896197896e+03,	 2.0672288587539913e+02,	 1.1422443145159320e+03,	 2.4453439919347071e+04,	 6.7827918411974770e+02,	 3.3210236133753046e+00 
2.1797469999999999e-01,	 2.5421960000000000e-02,	 7.3728222343261207e-02,	 2.2750464059966253e+03,	 1.9970303772158235e+02,	 1.1212824499956532e+03,	 2.3783662038679544e+04,	 6.7202665479493089e+02,	 3.3983689681770377e+00 
2.1990670000000001e-01,	 2.5455639999999998e-02,	 7.4092496616342318e-02,	 2.2863139634694539e+03,	 1.9664364247408932e+02,	 1.1138742297461665e+03,	 2.3743258608636752e+04,	 6.6980296355657003e+02,	 3.4260149189306182e+00 