TITLE = "Final State"
VARIABLES = "X", "Y", "rho", "u", "v", "T", "p", "c", "M"
ZONE I=30, J=50, DATAPACKING=POINT, STRANDID=400, SOLUTIONTIME=0.000014
-5.0000000000000003e-02,	 1.0000000000000000e-04,	 1.7266660808427103e+00,	 7.8403443239207638e+02,	 8.0408132171923397e-01,	 2.8461854600572651e+03,	 1.4138439925261058e+06,	 1.0706822044274209e+03,	 7.3227596523998251e-01 
-4.8275859999999997e-02,	 1.0000000000000000e-04,	 1.4811130003809136e+00,	 9.5009122137840495e+02,	 2.2075237777936657e-02,	 2.6792249460826592e+03,	 1.1416350915821851e+06,	 1.0388039101721074e+03,	 9.1460112185893949e-01 
-4.6551719999999998e-02,	 1.0000000000000000e-04,	 1.3503868803251220e+00,	 1.0325089778032777e+03,	 1.2279967591442306e-01,	 2.6118917860064703e+03,	 1.0147132397549371e+06,	 1.0256674574724643e+03,	 1.0066703175414737e+00 
-4.4827590000000000e-02,	 1.0000000000000000e-04,	 1.3694272462798907e+00,	 1.0151004098614292e+03,	 1.7771372347383266e-01,	 2.6320494360314851e+03,	 1.0369622440298843e+06,	 1.0296177184086457e+03,	 9.8590030772442883e-01 
-4.3103450000000001e-02,	 1.0000000000000000e-04,	 1.3914348551292073e+00,	 1.0069174672341837e+03,	 4.0740543058824902e-01,	 2.6118310332065234e+03,	 1.0455333573325734e+06,	 1.0256555288518873e+03,	 9.8173072862072563e-01 
-4.1379310000000002e-02,	 1.0000000000000000e-04,	 1.4660912998297291e+00,	 9.9757377454409198e+02,	 1.0651747434684307e+00,	 2.4882830688868125e+03,	 1.0495200469684596e+06,	 1.0011032673755617e+03,	 9.9647496490294740e-01 
-3.9655169999999997e-02,	 1.0000000000000000e-04,	 1.6776269672291921e+00,	 9.7847956818753369e+02,	 1.8646803281067565e+00,	 2.1795567211447938e+03,	 1.0519461579134061e+06,	 9.3694279183459378e+02,	 1.0443341402123851e+00 
-3.7931029999999998e-02,	 1.0000000000000000e-04,	 2.1091832327143014e+00,	 9.5307244085066270e+02,	 2.1150909448272399e+00,	 1.7314865856727138e+03,	 1.0506628559825527e+06,	 8.3510013178726285e+02,	 1.1412700723074869e+00 
-3.6206900000000000e-02,	 1.0000000000000000e-04,	 2.7391476550749596e+00,	 9.3044144565573333e+02,	 1.2627561015658129e+00,	 1.3224179282609996e+03,	 1.0421113107549895e+06,	 7.2981595036626641e+02,	 1.2748999279451105e+00 
-3.4482760000000001e-02,	 1.0000000000000000e-04,	 3.3566787630602182e+00,	 9.0845243141107403e+02,	 2.2172121473335971e-01,	 1.0444415015991376e+03,	 1.0086113217574203e+06,	 6.4859119236658194e+02,	 1.4006549412943385e+00 
-3.2758620000000002e-02,	 1.0000000000000000e-04,	 3.5345055480592409e+00,	 8.6124607832573417e+02,	 -1.5749463716206387e+00,	 8.6557134636480873e+02,	 8.8015969357719086e+05,	 5.9044632274099502e+02,	 1.4586381271129290e+00 
-3.1034480000000000e-02,	 1.0000000000000000e-04,	 2.8071476856828159e+00,	 6.9352662667894708e+02,	 -3.0526482746700383e+00,	 6.6744205707426249e+02,	 5.3902482627428253e+05,	 5.1848449206322516e+02,	 1.3376163715180518e+00 
-2.9310340000000001e-02,	 1.0000000000000000e-04,	 1.5024112624636992e+00,	 3.1204595819372321e+02,	 -3.3141801805938300e+00,	 3.6759894217377507e+02,	 1.5888870337267863e+05,	 3.8478320973260088e+02,	 8.1101136806316054e-01 
-2.7586210000000000e-02,	 1.0000000000000000e-04,	 1.1566064568894014e+00,	 1.9112242464827125e+02,	 3.3290128526437757e-01,	 2.9525310109939505e+02,	 9.8244900632963152e+04,	 3.4484681600142369e+02,	 5.5422496513550390e-01 
-2.5862070000000001e-02,	 1.0000000000000000e-04,	 1.1734432385645031e+00,	 2.0001082169788822e+02,	 -5.6589203105565766e-03,	 2.9994436742827213e+02,	 1.0125879041101015e+05,	 3.4757564871425524e+02,	 5.7544543905137857e-01 
-2.4137929999999998e-02,	 1.0000000000000000e-04,	 1.1740542373677354e+00,	 2.0001786760466422e+02,	 -9.9277451370025278e-04,	 3.0000411956374489e+02,	 1.0133169707401673e+05,	 3.4761026738905935e+02,	 5.7540839949718747e-01 
-2.2413789999999999e-02,	 1.0000000000000000e-04,	 1.1739905111557718e+00,	 1.9999837667321128e+02,	 3.2504057854929259e-04,	 3.0000002313851382e+02,	 1.0132481334985764e+05,	 3.4760789414776366e+02,	 5.7535625640440347e-01 
-2.0689659999999999e-02,	 1.0000000000000000e-04,	 1.1739904738600329e+00,	 1.9999910052754305e+02,	 -2.5390525303375111e-05,	 3.0000002190083086e+02,	 1.0132480971290910e+05,	 3.4760789343071644e+02,	 5.7535833997799457e-01 
-1.8965520000000000e-02,	 1.0000000000000000e-04,	 1.1739923440558238e+00,	 1.9999978420800790e+02,	 1.2046206722344971e-05,	 2.9999999463110282e+02,	 1.0132496191548364e+05,	 3.4760787763209606e+02,	 5.7536033294298816e-01 
-1.7241380000000001e-02,	 1.0000000000000000e-04,	 1.1739926243744823e+00,	 1.9999993614775155e+02,	 4.1107292304359761e-06,	 2.9999999572172237e+02,	 1.0132498647759044e+05,	 3.4760787826394267e+02,	 5.7536076899813338e-01 
-1.5517240000000000e-02,	 1.0000000000000000e-04,	 1.1739927091027176e+00,	 2.0000000251781537e+02,	 8.6176559806388988e-07,	 2.9999999628580520e+02,	 1.0132499398083618e+05,	 3.4760787859074202e+02,	 5.7536095939093035e-01 
-1.3793100000000001e-02,	 1.0000000000000000e-04,	 1.1739927332433318e+00,	 2.0000007983920932e+02,	 -1.0175537933482786e-06,	 2.9999998786332384e+02,	 1.0132499321967196e+05,	 3.4760787371120716e+02,	 5.7536118990609952e-01 
-1.2068970000000000e-02,	 1.0000000000000000e-04,	 1.1739926472589155e+00,	 2.0000026597296574e+02,	 -3.1260266611541044e-06,	 2.9999995690433627e+02,	 1.0132497534212987e+05,	 3.4760785577522626e+02,	 5.7536175506428133e-01 
-1.0344829999999999e-02,	 1.0000000000000000e-04,	 1.1739922667661693e+00,	 2.0000076510706629e+02,	 -2.9311295901023112e-06,	 2.9999985718043206e+02,	 1.0132490882082174e+05,	 3.4760779800052558e+02,	 5.7536328660487623e-01 
-8.6206900000000003e-03,	 1.0000000000000000e-04,	 1.1739914478989562e+00,	 2.0000192288149748e+02,	 1.8387315242417970e-05,	 2.9999954395110171e+02,	 1.0132473235295359e+05,	 3.4760761653212887e+02,	 5.7536691766652470e-01 
-6.8965520000000002e-03,	 1.0000000000000000e-04,	 1.1739841184252773e+00,	 2.0000424851371267e+02,	 5.3090343869122882e-05,	 2.9999875782682193e+02,	 1.0132383424997794e+05,	 3.4760716109315950e+02,	 5.7537436192264790e-01 
-5.1724140000000002e-03,	 1.0000000000000000e-04,	 1.1739765954400676e+00,	 2.0000769355628944e+02,	 1.9580315385933845e-04,	 2.9999704656747110e+02,	 1.0132260698876515e+05,	 3.4760616967763258e+02,	 5.7538591372492309e-01 
-3.4482760000000001e-03,	 1.0000000000000000e-04,	 1.1739663484067431e+00,	 2.0001683881469185e+02,	 5.9867063902809643e-04,	 2.9999654054713039e+02,	 1.0132155169171157e+05,	 3.4760587651496883e+02,	 5.7541270826868351e-01 
-1.7241380000000001e-03,	 1.0000000000000000e-04,	 1.1742083584495979e+00,	 1.9997366498025332e+02,	 4.7960335127676646e-04,	 3.0001407209969091e+02,	 1.0134836122959833e+05,	 3.4761603326819807e+02,	 5.7527169590172988e-01 
0.0000000000000000e+00,	 1.0000000000000000e-04,	 1.1743876500020871e+00,	 1.9995270095280833e+02,	 1.6995374137951809e-03,	 3.0002100745841403e+02,	 1.0136617946103387e+05,	 3.4762005112632585e+02,	 5.7520473951995332e-01 
-5.0000000000000003e-02,	 4.0612240000000000e-04,	 1.7162646811621387e+00,	 7.8208394363076911e+02,	 7.6603908339066162e-01,	 2.8530744102015224e+03,	 1.4087285011358440e+06,	 1.0719771689778283e+03,	 7.2957180565526658e-01 
-4.8274079999999997e-02,	 4.0247640000000000e-04,	 1.4813111338452913e+00,	 9.4781466140252599e+02,	 -8.5746326654616400e-02,	 2.6815211962140875e+03,	 1.1427663898799424e+06,	 1.0392489722303126e+03,	 9.1201886228192508e-01 
-4.6548369999999999e-02,	 3.9874269999999997e-04,	 1.3500929166394477e+00,	 1.0320973770048224e+03,	 -3.8201827241016728e-02,	 2.6118606539496486e+03,	 1.0144802562672942e+06,	 1.0256613448086687e+03,	 1.0062750077652107e+00 
-4.4822200000000000e-02,	 3.9495010000000001e-04,	 1.3693501914459645e+00,	 1.0147896018095371e+03,	 1.8991454458183044e-01,	 2.6315613067652703e+03,	 1.0367115963008580e+06,	 1.0295222396082540e+03,	 9.8568984771676116e-01 
-4.3095000000000001e-02,	 3.9112169999999999e-04,	 1.3900300557190790e+00,	 1.0062714027153254e+03,	 4.4656935493514111e-01,	 2.6128837984399834e+03,	 1.0448987852178232e+06,	 1.0258622163601535e+03,	 9.8090317174982278e-01 
-4.1366370000000000e-02,	 3.8725680000000000e-04,	 1.4565799782549700e+00,	 9.9866002053503507e+02,	 1.1305143394948787e+00,	 2.4997927909098171e+03,	 1.0475343783764929e+06,	 1.0034159316301576e+03,	 9.9526091717636134e-01 
-3.9636970000000001e-02,	 3.8335239999999997e-04,	 1.6441298551982961e+00,	 9.8642561689481090e+02,	 1.9725699269921670e+00,	 2.2165734329341540e+03,	 1.0484510928498738e+06,	 9.4486562305857558e+02,	 1.0439871714121483e+00 
-3.7906660000000002e-02,	 3.7940279999999999e-04,	 2.0296830220040181e+00,	 9.6980954396793175e+02,	 2.2592292281588189e+00,	 1.7947040326165804e+03,	 1.0479751751943332e+06,	 8.5020842828576326e+02,	 1.1406757957274416e+00 
-3.6176479999999997e-02,	 3.7541359999999999e-04,	 2.6072326917505624e+00,	 9.5306646995060692e+02,	 1.3189093333081905e+00,	 1.3886408621186033e+03,	 1.0415968819953196e+06,	 7.4786628830441123e+02,	 1.2743820619366073e+00 
-3.4446430000000000e-02,	 3.7138809999999998e-04,	 3.2048249505182667e+00,	 9.3149929623131425e+02,	 6.6532020335952125e-02,	 1.0937022187980797e+03,	 1.0084011765448477e+06,	 6.6371026290524799e+02,	 1.4034727962920013e+00 
-3.2716540000000002e-02,	 3.6732049999999998e-04,	 3.4154643827062681e+00,	 8.7916844688195556e+02,	 -2.4726047271532354e+00,	 8.9393580488653072e+02,	 8.7838726502996858e+05,	 6.0004269479008553e+02,	 1.4651822804101422e+00 
-3.0986900000000001e-02,	 3.6320839999999998e-04,	 2.7381487412388390e+00,	 6.9761597345884604e+02,	 -5.3596696969756907e+00,	 6.7419279451400121e+02,	 5.3109361503378465e+05,	 5.2109996008560915e+02,	 1.3387768476787243e+00 
-2.9257410000000001e-02,	 3.5905399999999998e-04,	 1.4755383749347737e+00,	 3.0554994684833810e+02,	 -5.3775319649019169e+00,	 3.6353378816068533e+02,	 1.5432107087009985e+05,	 3.8264970034618722e+02,	 7.9863453151783859e-01 
-2.7528250000000001e-02,	 3.5485610000000000e-04,	 1.1539855242893751e+00,	 1.9079098544589118e+02,	 3.1933421938705697e-01,	 2.9531026607768274e+02,	 9.8041250822960836e+04,	 3.4488019788053839e+02,	 5.5321022737519254e-01 
-2.5799249999999999e-02,	 3.5061439999999999e-04,	 1.1731379171020202e+00,	 1.9987540765076102e+02,	 -1.3763254138059056e-02,	 2.9997815789725615e+02,	 1.0124384802515940e+05,	 3.4759522636713547e+02,	 5.7502345533799892e-01 
-2.4070510000000000e-02,	 3.4629929999999999e-04,	 1.1740505373692742e+00,	 2.0001764352545325e+02,	 -1.6208424930975098e-03,	 3.0000487833848263e+02,	 1.0133163401884120e+05,	 3.4761070697922742e+02,	 5.7540702721787329e-01 
-2.2341810000000000e-02,	 3.4231069999999999e-04,	 1.1739891030944762e+00,	 1.9999810520313025e+02,	 1.7669758621068665e-04,	 2.9999994265220215e+02,	 1.0132466463868800e+05,	 3.4760784751830198e+02,	 5.7535555261789117e-01 
-2.0612800000000001e-02,	 3.3857570000000000e-04,	 1.1739908503847374e+00,	 1.9999922639002907e+02,	 -9.0895129721764000e-05,	 3.0000001468447454e+02,	 1.0132483977269572e+05,	 3.4760788924994603e+02,	 5.7535870897982155e-01 
-1.8883839999999999e-02,	 3.3487230000000000e-04,	 1.1739923440545654e+00,	 1.9999978197357029e+02,	 -1.2391627574517360e-05,	 2.9999999647327849e+02,	 1.0132496253756963e+05,	 3.4760787869935405e+02,	 5.7536032474842269e-01 
-1.7151079999999999e-02,	 3.3242240000000000e-04,	 1.1739926396978553e+00,	 1.9999994700433967e+02,	 -4.2634970770337308e-06,	 2.9999999590987227e+02,	 1.0132498786366814e+05,	 3.4760787837294663e+02,	 5.7536080004999446e-01 
-1.5432649999999999e-02,	 3.2597639999999998e-04,	 1.1739927133530828e+00,	 2.0000000511050456e+02,	 -2.8532271665472004e-06,	 2.9999999661173007e+02,	 1.0132499445775793e+05,	 3.4760787877956545e+02,	 5.7536096653705027e-01 
-1.3716080000000000e-02,	 3.1918369999999998e-04,	 1.1739927295026409e+00,	 2.0000008385534505e+02,	 -2.6492208733343910e-06,	 2.9999998646748764e+02,	 1.0132499242537665e+05,	 3.4760787290253438e+02,	 5.7536120279825476e-01 
-1.1999970000000000e-02,	 3.1226810000000002e-04,	 1.1739926380351280e+00,	 2.0000027583130654e+02,	 -5.0414902098108861e-06,	 2.9999995116248897e+02,	 1.0132497260673436e+05,	 3.4760785244870704e+02,	 5.7536178893087175e-01 
-1.0284470000000000e-02,	 3.0567670000000003e-04,	 1.1739922612823495e+00,	 2.0000078735141662e+02,	 -1.6142895833773114e-06,	 2.9999983959715826e+02,	 1.0132490240877611e+05,	 3.4760778781371545e+02,	 5.7536336745883820e-01 
-8.5693650000000007e-03,	 2.9903170000000003e-04,	 1.1739914146894017e+00,	 2.0000197614531817e+02,	 2.9400818841141248e-05,	 2.9999950013663880e+02,	 1.0132471468838895e+05,	 3.4760759114835429e+02,	 5.7536711291199094e-01 
-6.8551920000000004e-03,	 2.9217710000000000e-04,	 1.1739840546263498e+00,	 2.0000429753931758e+02,	 1.1292382474988949e-04,	 2.9999864108836596e+02,	 1.0132378931552016e+05,	 3.4760709346100077e+02,	 5.7537461490781872e-01 
-5.1415300000000001e-03,	 2.8519489999999999e-04,	 1.1739756098471761e+00,	 2.0000780092057857e+02,	 3.6077950910019406e-04,	 2.9999690379448907e+02,	 1.0132247370415396e+05,	 3.4760608696219276e+02,	 5.7538635951060813e-01 
-3.4276810000000001e-03,	 2.7878689999999998e-04,	 1.1739801281211639e+00,	 2.0001498690677954e+02,	 1.1902274290052847e-03,	 2.9999522420995964e+02,	 1.0132229638987676e+05,	 3.4760511389444474e+02,	 5.7540864307036144e-01 
-1.7143670000000001e-03,	 2.7222109999999999e-04,	 1.1742145848120551e+00,	 1.9998341648233051e+02,	 -1.5269274315509787e-03,	 3.0001225526944631e+02,	 1.0134828488951025e+05,	 3.4761498071710525e+02,	 5.7530149038918876e-01 
0.0000000000000000e+00,	 2.6326529999999999e-04,	 1.1743478537556022e+00,	 1.9993285545395491e+02,	 -3.3926242486683180e-03,	 3.0002286683247974e+02,	 1.0136337267851233e+05,	 3.4762112830874025e+02,	 5.7514586773094145e-01 
-5.0000000000000003e-02,	 7.1224490000000010e-04,	 1.7088400884659385e+00,	 7.8221282870163327e+02,	 8.6003242890458154e-01,	 2.8562516967534366e+03,	 1.4041963397883864e+06,	 1.0725738991057308e+03,	 7.2928616121526180e-01 
-4.8269279999999998e-02,	 7.0685670000000009e-04,	 1.4830547751383822e+00,	 9.4677367489539483e+02,	 -1.3375532527841791e-01,	 2.6823060437758995e+03,	 1.1444463995202889e+06,	 1.0394010486616082e+03,	 9.1088390334284075e-01 
-4.6538900000000001e-02,	 7.0132030000000006e-04,	 1.3500195855853525e+00,	 1.0320809875624041e+03,	 -1.7843335701341068e-01,	 2.6114958164257196e+03,	 1.0142834543153621e+06,	 1.0255897075999051e+03,	 1.0063293296908093e+00 
-4.4807710000000001e-02,	 6.9566000000000007e-04,	 1.3700246424311948e+00,	 1.0148883212157356e+03,	 1.3084851621034513e-01,	 2.6303470282982212e+03,	 1.0367436072847345e+06,	 1.0292846865388804e+03,	 9.8601324096594534e-01 
-4.3075090000000003e-02,	 6.8993330000000010e-04,	 1.3906897449119682e+00,	 1.0077938793958465e+03,	 3.6622521639945066e-01,	 2.6113306499345476e+03,	 1.0447732770924121e+06,	 1.0255572748977806e+03,	 9.8267933991119971e-01 
-4.1340189999999999e-02,	 6.8410690000000006e-04,	 1.4519862153286824e+00,	 1.0042390719297309e+03,	 9.3257159547249047e-01,	 2.5067217425975255e+03,	 1.0471250731684960e+06,	 1.0048056086800402e+03,	 9.9943660372097876e-01 
-3.9604420000000001e-02,	 6.7820780000000006e-04,	 1.6174222557520053e+00,	 1.0001749549559245e+03,	 1.7458826425524339e+00,	 2.2508494449393925e+03,	 1.0473692013730624e+06,	 9.5214306817395220e+02,	 1.0504476818378126e+00 
-3.7867510000000000e-02,	 6.7220700000000008e-04,	 1.9558119584044089e+00,	 9.9329124157241540e+02,	 2.1493164109415277e+00,	 1.8594325693606881e+03,	 1.0462548118008155e+06,	 8.6540460813808500e+02,	 1.1477793827417875e+00 
-3.6130770000000000e-02,	 6.6613170000000006e-04,	 2.4789034719426208e+00,	 9.8224995023011093e+02,	 1.4381205930146068e+00,	 1.4575283303843446e+03,	 1.0394570717572101e+06,	 7.6619178121378070e+02,	 1.2819910459700443e+00 
-3.4394260000000003e-02,	 6.5995300000000002e-04,	 3.0560808108870807e+00,	 9.5913123658291988e+02,	 1.7614995197811106e-01,	 1.1435040821866241e+03,	 1.0053852068170821e+06,	 6.7865311407040531e+02,	 1.4132864535251970e+00 
-3.2657970000000001e-02,	 6.5369340000000003e-04,	 3.2939522746429959e+00,	 8.9780078417272875e+02,	 -2.4558018823006154e+00,	 9.1973835249465174e+02,	 8.7158859073595179e+05,	 6.0864090250817844e+02,	 1.4750966279277473e+00 
-3.0922089999999999e-02,	 6.4732560000000001e-04,	 2.6508247044294095e+00,	 6.9557445361827331e+02,	 -5.7914135397133926e+00,	 6.7356341227490248e+02,	 5.1367618944667850e+05,	 5.2085667089506421e+02,	 1.3354894003989619e+00 
-2.9186440000000001e-02,	 6.4087490000000003e-04,	 1.4371635987555678e+00,	 2.9366331700682474e+02,	 -6.3711682715865106e+00,	 3.5496127817033266e+02,	 1.4676318417772732e+05,	 3.7811114305690563e+02,	 7.7684148448012957e-01 
-2.7451340000000001e-02,	 6.3430940000000003e-04,	 1.1548811910547219e+00,	 1.9140246734980863e+02,	 4.7328423245621676e-01,	 2.9582588363305251e+02,	 9.8288660439045736e+04,	 3.4518115038809503e+02,	 5.5450030305194753e-01 
-2.5716500000000000e-02,	 6.2765910000000006e-04,	 1.1732487270355900e+00,	 1.9985821066720234e+02,	 -2.5591587381106156e-02,	 2.9996394163667338e+02,	 1.0124861261670724e+05,	 3.4758698982935368e+02,	 5.7498760929978077e-01 
-2.3982050000000001e-02,	 6.2092190000000006e-04,	 1.1740586921129657e+00,	 2.0002207897842217e+02,	 -3.4097872889564526e-03,	 3.0000526150695703e+02,	 1.0133246727255014e+05,	 3.4761092896465397e+02,	 5.7541941964610777e-01 
-2.2247590000000001e-02,	 6.1470330000000007e-04,	 1.1739890935772130e+00,	 1.9999842721793297e+02,	 1.8271124379226421e-04,	 2.9999987391565497e+02,	 1.0132464060157571e+05,	 3.4760780769602007e+02,	 5.7535654490509391e-01 
-2.0512240000000001e-02,	 6.0918940000000003e-04,	 1.1739918589904175e+00,	 1.9999962328880528e+02,	 -1.0807049951020704e-04,	 2.9999999883978467e+02,	 1.0132492147192707e+05,	 3.4760788007038104e+02,	 5.7535986597409716e-01 
-1.8776689999999999e-02,	 6.0385800000000009e-04,	 1.1739924631099372e+00,	 1.9999984717904363e+02,	 -2.8302795672847082e-05,	 2.9999999882781793e+02,	 1.0132497360824933e+05,	 3.4760788006344814e+02,	 5.7536051007399514e-01 
-1.7033540000000000e-02,	 6.0126280000000003e-04,	 1.1739926910955854e+00,	 1.9999998120157281e+02,	 -1.0767980349443151e-05,	 2.9999999672299174e+02,	 1.0132499257433589e+05,	 3.4760787884402453e+02,	 5.7536089764902976e-01 
-1.5323790000000000e-02,	 5.8577970000000005e-04,	 1.1739927353368198e+00,	 2.0000002264602520e+02,	 -5.9172881590050975e-06,	 2.9999999560120466e+02,	 1.0132499601382595e+05,	 3.4760787819412116e+02,	 5.7536101795234784e-01 
-1.3618000000000000e-02,	 5.6865669999999998e-04,	 1.1739927248959980e+00,	 2.0000011162447055e+02,	 -5.6439279670999725e-06,	 2.9999998301236252e+02,	 1.0132499086081794e+05,	 3.4760787090081976e+02,	 5.7536128599785097e-01 
-1.1913000000000000e-02,	 5.5124700000000004e-04,	 1.1739926175931501e+00,	 2.0000034760436142e+02,	 -1.2503865818567527e-05,	 2.9999994145019372e+02,	 1.0132496756210053e+05,	 3.4760784682192258e+02,	 5.7536200472143184e-01 
-1.0209060000000001e-02,	 5.3426610000000007e-04,	 1.1739922269778518e+00,	 2.0000098397561439e+02,	 -1.7491018766836608e-05,	 2.9999981397915383e+02,	 1.0132489079554712e+05,	 3.4760777297201076e+02,	 5.7536395767455739e-01 
-8.5057280000000006e-03,	 5.1716290000000003e-04,	 1.1739913547313308e+00,	 2.0000250319464908e+02,	 1.7121346759006252e-05,	 2.9999943827703635e+02,	 1.0132468862047909e+05,	 3.4760755531018043e+02,	 5.7536868845149725e-01 
-6.8039939999999998e-03,	 4.9962810000000004e-04,	 1.1739841398085926e+00,	 2.0000554491960418e+02,	 1.2218443209944992e-04,	 2.9999847786483463e+02,	 1.0132374153905551e+05,	 3.4760699889779738e+02,	 5.7537835991169639e-01 
-5.1029780000000002e-03,	 4.8187229999999999e-04,	 1.1739747426676239e+00,	 2.0001090931130361e+02,	 4.4887783820184873e-04,	 2.9999666122863977e+02,	 1.0132231693501165e+05,	 3.4760594643177114e+02,	 5.7539553441173907e-01 
-3.4014549999999998e-03,	 4.6530569999999997e-04,	 1.1740082636810394e+00,	 2.0002129491012306e+02,	 1.2402482425477234e-03,	 2.9999306705486924e+02,	 1.0132399608714941e+05,	 3.4760386414206812e+02,	 5.7542885896175799e-01 
-1.7006840000000000e-03,	 4.4840640000000002e-04,	 1.1742422549921154e+00,	 2.0001699998674354e+02,	 -1.9478115361534431e-03,	 3.0000872084317831e+02,	 1.0134947913957336e+05,	 3.4761293309552315e+02,	 5.7540149100627247e-01 
0.0000000000000000e+00,	 4.2653059999999999e-04,	 1.1742909355592785e+00,	 1.9991390115562078e+02,	 -5.9837944629464439e-03,	 3.0002534325622128e+02,	 1.0135929643135531e+05,	 3.4762256295845191e+02,	 5.7508896874760018e-01 
-5.0000000000000003e-02,	 1.0183672999999999e-03,	 1.7083434141422980e+00,	 7.8283678408509741e+02,	 1.1325784845515812e+00,	 2.8552471427887431e+03,	 1.4032944928140207e+06,	 1.0723852684753920e+03,	 7.2999660325748850e-01 
-4.8262790000000000e-02,	 1.0122824999999999e-03,	 1.4826171646108333e+00,	 9.4713766527175733e+02,	 -1.4622261135292233e-01,	 2.6822089080699511e+03,	 1.1440672712470822e+06,	 1.0393822283131751e+03,	 9.1125059747853387e-01 
-4.6525930000000000e-02,	 1.0060274000000000e-03,	 1.3497075701711971e+00,	 1.0322300489621161e+03,	 -2.8232316870460528e-01,	 2.6114354407007604e+03,	 1.0140255899447905e+06,	 1.0255778521185348e+03,	 1.0064863290862422e+00 
-4.4788090000000003e-02,	 9.9959989999999998e-04,	 1.3703984993346028e+00,	 1.0148382494459847e+03,	 8.1542276802453295e-02,	 2.6300440169222384e+03,	 1.0369070537047936e+06,	 1.0292253989337735e+03,	 9.8602138440546538e-01 
-4.3048830000000003e-02,	 9.9309490000000001e-04,	 1.3919723609949903e+00,	 1.0078210745739638e+03,	 2.6604357849085741e-01,	 2.6092523482551123e+03,	 1.0449045792769293e+06,	 1.0251490842186440e+03,	 9.8309711748615380e-01 
-4.1306770000000000e-02,	 9.8643920000000005e-04,	 1.4557704898308730e+00,	 1.0044142102797952e+03,	 7.0034635511765675e-01,	 2.5004193248492261e+03,	 1.0472146175751860e+06,	 1.0035416690016507e+03,	 1.0008697052347584e+00 
-3.9564030000000000e-02,	 9.7969870000000001e-04,	 1.6253042475638244e+00,	 1.0008123499044946e+03,	 1.4515986926264024e+00,	 2.2401679909792274e+03,	 1.0474786872498355e+06,	 9.4988117391564333e+02,	 1.0536195790601390e+00 
-3.7820079999999999e-02,	 9.7281720000000002e-04,	 1.9680089276770565e+00,	 9.9465308110152307e+02,	 2.0408466929541258e+00,	 1.8483811852549343e+03,	 1.0465224297863530e+06,	 8.6282904506926457e+02,	 1.1527836023902616e+00 
-3.6076310000000000e-02,	 9.6584720000000000e-04,	 2.4940250571026139e+00,	 9.8349005671140071e+02,	 1.7874385225393732e+00,	 1.4485531457719960e+03,	 1.0393580486742960e+06,	 7.6382910611625027e+02,	 1.2875807862255886e+00 
-3.4332799999999997e-02,	 9.5871800000000001e-04,	 3.0701174680854959e+00,	 9.5865642227325600e+02,	 9.6942863082642050e-01,	 1.1361373293604461e+03,	 1.0034962630722168e+06,	 6.7646355137497619e+02,	 1.4171597427319063e+00 
-3.2589519999999997e-02,	 9.5149090000000002e-04,	 3.2821648717085501e+00,	 8.9365013051146764e+02,	 -1.8765834328922597e+00,	 9.1280717968928241e+02,	 8.6192480215168872e+05,	 6.0634319837777775e+02,	 1.4738387487925395e+00 
-3.0846740000000001e-02,	 9.4410950000000000e-04,	 2.5957539698744290e+00,	 6.8032410073712049e+02,	 -6.7729719223796101e+00,	 6.5980594333397789e+02,	 4.9273077417140419e+05,	 5.1551000465723484e+02,	 1.3197761594204545e+00 
-2.9104209999999998e-02,	 9.3662760000000009e-04,	 1.4007758584947780e+00,	 2.8131457071770899e+02,	 -7.4208934716468420e+00,	 3.4636001463268099e+02,	 1.3958100955038861e+05,	 3.7350193941055187e+02,	 7.5344302973642530e-01 
-2.7362379999999999e-02,	 9.2897630000000008e-04,	 1.1564093751360502e+00,	 1.9232443823057932e+02,	 7.6772070660892888e-01,	 2.9645400223308428e+02,	 9.8627689489400305e+04,	 3.4554741268264513e+02,	 5.5658344834691675e-01 
-2.5620810000000001e-02,	 9.2122800000000006e-04,	 1.1732270768961901e+00,	 1.9982594474978131e+02,	 -2.2559408383372878e-02,	 2.9994972931600785e+02,	 1.0124194717990099e+05,	 3.4757875537915999e+02,	 5.7490839969555829e-01 
-2.3879689999999999e-02,	 9.1342550000000000e-04,	 1.1740575960787500e+00,	 2.0002290331889185e+02,	 -4.3782138373120970e-03,	 3.0000553679453884e+02,	 1.0133246565785499e+05,	 3.4761108845010699e+02,	 5.7542152714014405e-01 
-2.2138470000000000e-02,	 9.0623760000000005e-04,	 1.1739891896544439e+00,	 1.9999867226477386e+02,	 1.7179299047936458e-04,	 2.9999986361145483e+02,	 1.0132464541357552e+05,	 3.4760780172631678e+02,	 5.7535725973812657e-01 
-2.0395630000000001e-02,	 9.0023820000000000e-04,	 1.1739924287163279e+00,	 1.9999985507973338e+02,	 -9.2020940093623027e-05,	 2.9999998904137624e+02,	 1.0132496733443503e+05,	 3.4760787439370768e+02,	 5.7536054218734611e-01 
-1.8652209999999999e-02,	 8.9462210000000001e-04,	 1.1739926461918173e+00,	 1.9999993929536890e+02,	 -3.2015757499534016e-05,	 2.9999999805763355e+02,	 1.0132498914955549e+05,	 3.4760787961724452e+02,	 5.7536077581323519e-01 
-1.6897949999999998e-02,	 8.9287019999999999e-04,	 1.1739927536264578e+00,	 2.0000001533077426e+02,	 -1.2236620598612118e-05,	 2.9999999776808073e+02,	 1.0132499832423090e+05,	 3.4760787944949311e+02,	 5.7536099482990666e-01 
-1.5199280000000001e-02,	 8.6649720000000000e-04,	 1.1739927493089195e+00,	 2.0000003834048039e+02,	 -6.5612534363974764e-06,	 2.9999999408673489e+02,	 1.0132499670821814e+05,	 3.4760787731671843e+02,	 5.7536106455450964e-01 
-1.3506550000000001e-02,	 8.3673750000000000e-04,	 1.1739927155839653e+00,	 2.0000013417485857e+02,	 -8.7579694879610154e-06,	 2.9999997945828466e+02,	 1.0132498885672506e+05,	 3.4760786884177725e+02,	 5.7536135427904833e-01 
-1.1814830000000000e-02,	 8.0649020000000005e-04,	 1.1739925809802814e+00,	 2.0000040344884818e+02,	 -2.1655517450585739e-05,	 2.9999993200058032e+02,	 1.0132496121051024e+05,	 3.4760784134732182e+02,	 5.7536217443671966e-01 
-1.0124550000000000e-02,	 7.7655800000000000e-04,	 1.1739921406406544e+00,	 2.0000112890153378e+02,	 -3.9846700915640962e-05,	 2.9999979032807772e+02,	 1.0132487535581180e+05,	 3.4760775926983888e+02,	 5.7536439727826116e-01 
-8.4348909999999999e-03,	 7.4647960000000008e-04,	 1.1739911919635211e+00,	 2.0000287308642274e+02,	 -2.6798342371932186e-05,	 2.9999938756861678e+02,	 1.0132465744559102e+05,	 3.4760752593240790e+02,	 5.7536980118582071e-01 
-6.7472430000000000e-03,	 7.1582860000000005e-04,	 1.1739839674311334e+00,	 2.0000638802390102e+02,	 7.6344241931217125e-05,	 2.9999835416685727e+02,	 1.0132368488289368e+05,	 3.4760692723362189e+02,	 5.7538090398726149e-01 
-5.0602939999999999e-03,	 6.8494830000000000e-04,	 1.1739743805210274e+00,	 2.0001324953759024e+02,	 4.2957414682505760e-04,	 2.9999645237754817e+02,	 1.0132221514084944e+05,	 3.4760582543393451e+02,	 5.7540246711448095e-01 
-3.3723709999999999e-03,	 6.5591580000000003e-04,	 1.1740203260503013e+00,	 2.0002478250484668e+02,	 1.3988502456950508e-03,	 2.9999209632033046e+02,	 1.0132470926910268e+05,	 3.4760330174348837e+02,	 5.7543982323086518e-01 
-1.6851870000000001e-03,	 6.2646750000000008e-04,	 1.1742694835934371e+00,	 2.0004032487115037e+02,	 -1.4701458074845419e-03,	 3.0000640452063539e+02,	 1.0135104673242255e+05,	 3.4761159115915365e+02,	 5.7547081272374578e-01 
0.0000000000000000e+00,	 5.8979590000000004e-04,	 1.1742520349952625e+00,	 1.9990247855188372e+02,	 -7.6127602095594268e-03,	 3.0002655856020544e+02,	 1.0135634927634269e+05,	 3.4762326701007191e+02,	 5.7505494501623156e-01 
-5.0000000000000003e-02,	 1.3244900000000000e-03,	 1.7075993905750235e+00,	 7.8338543882187901e+02,	 1.3118777296160207e+00,	 2.8548873888535127e+03,	 1.4025065906368843e+06,	 1.0723177074282773e+03,	 7.3055450996165905e-01 
-4.8255010000000001e-02,	 1.3184840000000000e-03,	 1.4820796103072991e+00,	 9.4759902084173427e+02,	 -1.5217307417612935e-01,	 2.6820561547907632e+03,	 1.1435873337492361e+06,	 1.0393526311957044e+03,	 9.1172043502711331e-01 
-4.6510320000000001e-02,	 1.3123130000000001e-03,	 1.3494474687589770e+00,	 1.0324173697244798e+03,	 -3.8715522477757547e-01,	 2.6113760141185467e+03,	 1.0138071066109851e+06,	 1.0255661828786353e+03,	 1.0066804654361501e+00 
-4.4764510000000000e-02,	 1.3059480000000001e-03,	 1.3707986041977207e+00,	 1.0146855185340343e+03,	 4.0848062532518700e-02,	 2.6298513626299991e+03,	 1.0371338145738344e+06,	 1.0291877021650505e+03,	 9.8590909823514095e-01 
-4.3017479999999997e-02,	 1.2995070000000001e-03,	 1.3934624128596034e+00,	 1.0076416028970912e+03,	 2.2399943399289074e-01,	 2.6069636059620493e+03,	 1.0451055748412447e+06,	 1.0246993736308502e+03,	 9.8335341440123791e-01 
-4.1267520000000002e-02,	 1.2928770000000000e-03,	 1.4606753376195547e+00,	 1.0039180318158055e+03,	 6.5455134508447410e-01,	 2.4924224629288365e+03,	 1.0473824456095132e+06,	 1.0019356161863190e+03,	 1.0019787988171356e+00 
-3.9517040000000003e-02,	 1.2861640000000000e-03,	 1.6377110657386742e+00,	 9.9963019464988213e+02,	 1.4885243939593433e+00,	 2.2236001322366119e+03,	 1.0476685624212725e+06,	 9.4636208446244518e+02,	 1.0562884115114963e+00 
-3.7765600000000003e-02,	 1.2792890000000001e-03,	 1.9917865780682966e+00,	 9.9254946487431425e+02,	 2.3104689457045020e+00,	 1.8265764653770736e+03,	 1.0466719766327145e+06,	 8.5772469746224260e+02,	 1.1571919952596297e+00 
-3.6014329999999997e-02,	 1.2723270000000000e-03,	 2.5275582577571600e+00,	 9.8052432997865662e+02,	 2.3366207639571899e+00,	 1.4286846009164199e+03,	 1.0388849997477126e+06,	 7.5857262917042601e+02,	 1.2925949030983688e+00 
-3.4263349999999998e-02,	 1.2651600000000000e-03,	 3.0995308819724294e+00,	 9.5494266231627830e+02,	 1.6058303630515902e+00,	 1.1221037661219084e+03,	 1.0005963751556098e+06,	 6.7227273253098667e+02,	 1.4204711366193234e+00 
-3.2512569999999998e-02,	 1.2578950000000000e-03,	 3.2706599975982771e+00,	 8.8803895819044612e+02,	 -2.1230910353792316e+00,	 9.0320419087390746e+02,	 8.4986761583369703e+05,	 6.0314531480507048e+02,	 1.4723508154547980e+00 
-3.0762319999999999e-02,	 1.2504480000000001e-03,	 2.5344459836273399e+00,	 6.6338099858795374e+02,	 -8.4053717353985959e+00,	 6.4428075024720874e+02,	 4.6977308709801856e+05,	 5.0940894233067235e+02,	 1.3023608175477086e+00 