TITLE = "Final State"
VARIABLES = "X", "Y", "rho", "u", "v", "T", "p", "c", "M"
ZONE I=102, J=25, DATAPACKING=POINT, STRANDID=8000, SOLUTIONTIME=0.000193
1.1565000000000001e+00,	 2.8413739999999998e-01,	 1.6477287621859536e-02,	 1.7483183465824150e+03,	 -2.5906102024797599e+02,	 4.2255647746581656e+02,	 2.0030898191545559e+03,	 4.1254503841341875e+02,	 4.2841567430022849e+00 
1.1579079999999999e+00,	 2.8412319999999996e-01,	 1.6311613491082289e-02,	 1.7497000971522386e+03,	 -2.5694558748812784e+02,	 4.2087874076122000e+02,	 1.9750761696109694e+03,	 4.1172523042897893e+02,	 4.2952574191392143e+00 
1.1593270000000000e+00,	 2.8410879999999999e-01,	 1.6106944066608557e-02,	 1.7515747738759801e+03,	 -2.5426685649161556e+02,	 4.1882823136646073e+02,	 1.9407921900713081e+03,	 4.1072104897481859e+02,	 4.3093331871523448e+00 
1.1607580000000000e+00,	 2.8409429999999997e-01,	 1.5908789660734349e-02,	 1.7534265807746028e+03,	 -2.5151329037512755e+02,	 4.1682835690930159e+02,	 1.9077626138046692e+03,	 4.0973929399591361e+02,	 4.3231718859687955e+00 
1.1621999999999999e+00,	 2.8407959999999999e-01,	 1.5716253029251517e-02,	 1.7552580711531737e+03,	 -2.4869640340652307e+02,	 4.1486945877151152e+02,	 1.8758167714508095e+03,	 4.0877536873242173e+02,	 4.3368292808440776e+00 
1.1636530000000000e+00,	 2.8406490000000001e-01,	 1.5529051547765804e-02,	 1.7570736952034226e+03,	 -2.4582580177151033e+02,	 4.1294495564276582e+02,	 1.8448753764404050e+03,	 4.0782614975691655e+02,	 4.3503504089383531e+00 
1.1651170000000000e+00,	 2.8404999999999997e-01,	 1.5345553817039595e-02,	 1.7588707773835622e+03,	 -2.4291296828338213e+02,	 4.1105395180430321e+02,	 1.8147271298070857e+03,	 4.0689129666851096e+02,	 4.3637344728530048e+00 
1.1665930000000000e+00,	 2.8403509999999998e-01,	 1.5166743118179202e-02,	 1.7606520114621899e+03,	 -2.3996149381531691e+02,	 4.0919320584463469e+02,	 1.7854622927531836e+03,	 4.0596930077720907e+02,	 4.3770036204945555e+00 
1.1680809999999999e+00,	 2.8401999999999999e-01,	 1.4991148033415688e-02,	 1.7624147871391654e+03,	 -2.3697680153124367e+02,	 4.0736309050952053e+02,	 1.7568978323396207e+03,	 4.0506043519889590e+02,	 4.3901486857864693e+00 
1.1695810000000000e+00,	 2.8400480000000000e-01,	 1.4819304424399075e-02,	 1.7641623763245454e+03,	 -2.3395831725224508e+02,	 4.0556215603220073e+02,	 1.7290803695313255e+03,	 4.0416406613010412e+02,	 4.4031826676854582e+00 
1.1710920000000000e+00,	 2.8398940000000000e-01,	 1.4650362870806791e-02,	 1.7658940151354864e+03,	 -2.3090863167110757e+02,	 4.0379063799856982e+02,	 1.7019020628870699e+03,	 4.0328039454274870e+02,	 4.4161007596388950e+00 
1.1726160000000001e+00,	 2.8397400000000000e-01,	 1.4483748293214955e-02,	 1.7676123795864714e+03,	 -2.2783813569268068e+02,	 4.0204736308558944e+02,	 1.6752827794119016e+03,	 4.0240891689731791e+02,	 4.4289167735228157e+00 
1.1741520000000001e+00,	 2.8395840000000000e-01,	 1.4318467085715178e-02,	 1.7693139128342123e+03,	 -2.2476286596642112e+02,	 4.0033309692333961e+02,	 1.6491036738884050e+03,	 4.0155009656580620e+02,	 4.4416202236365470e+00 
1.1756990000000000e+00,	 2.8394269999999999e-01,	 1.4156594690900894e-02,	 1.7710019345219980e+03,	 -2.2167185632537769e+02,	 3.9864631852829234e+02,	 1.6235904699168530e+03,	 4.0070325051765712e+02,	 4.4542215993265248e+00 
1.1772600000000000e+00,	 2.8392689999999998e-01,	 1.3997840104182075e-02,	 1.7726772330659460e+03,	 -2.1856176575923982e+02,	 3.9698700710851494e+02,	 1.5987010450495141e+03,	 3.9986844435928339e+02,	 4.4667194809235875e+00 
1.1788320000000001e+00,	 2.8391089999999997e-01,	 1.3841860107701593e-02,	 1.7743383047665545e+03,	 -2.1543216502339624e+02,	 3.9535649940529015e+02,	 1.5743934559628490e+03,	 3.9904642826248869e+02,	 4.4791000049919178e+00 
1.1804170000000000e+00,	 2.8389480000000000e-01,	 1.3689203057140442e-02,	 1.7759869292188566e+03,	 -2.1227784480113363e+02,	 3.9375292696136671e+02,	 1.5507146800027381e+03,	 3.9823633656361767e+02,	 4.4913741128698925e+00 
1.1820150000000000e+00,	 2.8387859999999998e-01,	 1.3539372807300002e-02,	 1.7776225075034749e+03,	 -2.0909980317108682e+02,	 3.9217532952582155e+02,	 1.5275968506054876e+03,	 3.9743775561082401e+02,	 4.5035438240874894e+00 
1.1836260000000001e+00,	 2.8386230000000001e-01,	 1.3392196391238505e-02,	 1.7792453158248127e+03,	 -2.0590040320986458e+02,	 3.9062303577811241e+02,	 1.5050107353482142e+03,	 3.9665041408879785e+02,	 4.5156121925120658e+00 
1.1852490000000000e+00,	 2.8384579999999998e-01,	 1.3247328650228049e-02,	 1.7808550019225172e+03,	 -2.0268316104046573e+02,	 3.8909561544336174e+02,	 1.4829092874960540e+03,	 3.9587416017339802e+02,	 4.5275796901148109e+00 
1.1868860000000001e+00,	 2.8382920000000000e-01,	 1.3105304743228408e-02,	 1.7824538670991676e+03,	 -1.9944746610326536e+02,	 3.8759071905866358e+02,	 1.4613371698591948e+03,	 3.9510786170166233e+02,	 4.5394635381156849e+00 
1.1885349999999999e+00,	 2.8381249999999997e-01,	 1.2965557054478376e-02,	 1.7840415815012827e+03,	 -1.9619560346057517e+02,	 3.8610785684865328e+02,	 1.4402230496472985e+03,	 3.9435132659343435e+02,	 4.5512645808410284e+00 
1.1901980000000001e+00,	 2.8379559999999998e-01,	 1.2827888771212638e-02,	 1.7856185985437139e+03,	 -1.9292966054435561e+02,	 3.8464638561547503e+02,	 1.4195372029668431e+03,	 3.9360428205788838e+02,	 4.5629865213065726e+00 
1.1918740000000001e+00,	 2.8377859999999999e-01,	 1.2692645449373700e-02,	 1.7871873887480797e+03,	 -1.8964910830327338e+02,	 3.8320345506781950e+02,	 1.3993021533153883e+03,	 3.9286532115888451e+02,	 4.5746507057802326e+00 
1.1935640000000001e+00,	 2.8376150000000000e-01,	 1.2559440484964768e-02,	 1.7887478570055705e+03,	 -1.8635733748848938e+02,	 3.8177845985999033e+02,	 1.3794680665009846e+03,	 3.9213417871353283e+02,	 4.5862600082202736e+00 
1.1952670000000001e+00,	 2.8374420000000000e-01,	 1.2427973813578675e-02,	 1.7903006518377267e+03,	 -1.8305711459614605e+02,	 3.8037009522217073e+02,	 1.3599928723253297e+03,	 3.9141022721604816e+02,	 4.5978232806979547e+00 
1.1969840000000000e+00,	 2.8372680000000000e-01,	 1.2298557298538321e-02,	 1.7918478673351692e+03,	 -1.7974929014137916e+02,	 3.7897616896351246e+02,	 1.3408988167164898e+03,	 3.9069237666067352e+02,	 4.6093581171202054e+00 
1.1987140000000001e+00,	 2.8370919999999999e-01,	 1.2170772357802711e-02,	 1.7933885796856584e+03,	 -1.7644005196869927e+02,	 3.7759587021343839e+02,	 1.3221335098083505e+03,	 3.8998024200552857e+02,	 4.6208676465919947e+00 
1.2004589999999999e+00,	 2.8369159999999999e-01,	 1.2045076636920645e-02,	 1.7949269579847826e+03,	 -1.7312619571373415e+02,	 3.7622489405632177e+02,	 1.3037281220985540e+03,	 3.8927162752607654e+02,	 4.6323871999180017e+00 
1.2022180000000000e+00,	 2.8367369999999997e-01,	 1.1920217892786574e-02,	 1.7964595784754483e+03,	 -1.6981516230840160e+02,	 3.7486522281130766e+02,	 1.2855509192064683e+03,	 3.8856757987170630e+02,	 4.6438970702949378e+00 
1.2039899999999999e+00,	 2.8365570000000001e-01,	 1.1797484881873634e-02,	 1.7979901552311271e+03,	 -1.6650575364476737e+02,	 3.7351412058299888e+02,	 1.2677289025291552e+03,	 3.8786670340155160e+02,	 4.6554227160732893e+00 
1.2057780000000000e+00,	 2.8363759999999999e-01,	 1.1676186357967269e-02,	 1.7995191704873796e+03,	 -1.6319825898411469e+02,	 3.7216990274539768e+02,	 1.2501790139503482e+03,	 3.8716813908086993e+02,	 4.6669755417001904e+00 
1.2075790000000000e+00,	 2.8361929999999996e-01,	 1.1554827491746964e-02,	 1.8010493858795826e+03,	 -1.5995435292621252e+02,	 3.7080673947428204e+02,	 1.2326535262571906e+03,	 3.8645843963324978e+02,	 4.6787394517383571e+00 
1.2093950000000000e+00,	 2.8360089999999999e-01,	 1.1436061666351286e-02,	 1.8025673258483298e+03,	 -1.5666937450264226e+02,	 3.6947011911140658e+02,	 1.2155861594198673e+03,	 3.8576129136613037e+02,	 4.6903693627088607e+00 
1.2112259999999999e+00,	 2.8358230000000001e-01,	 1.1324901936055820e-02,	 1.8040837480484593e+03,	 -1.5310696682472712e+02,	 3.6826702372408113e+02,	 1.1998507283588235e+03,	 3.8513270729688838e+02,	 4.7011560251542557e+00 
1.2130719999999999e+00,	 2.8356359999999997e-01,	 1.1219038951031428e-02,	 1.8055810203447859e+03,	 -1.4938983012146474e+02,	 3.6713816171588746e+02,	 1.1849911922499450e+03,	 3.8454197375629650e+02,	 4.7114507586724486e+00 
1.2149319999999999e+00,	 2.8354469999999998e-01,	 1.1126055558841028e-02,	 1.8070419490870881e+03,	 -1.4516440825511364e+02,	 3.6623692515806488e+02,	 1.1722852237041689e+03,	 3.8406970436985387e+02,	 4.7201413446274270e+00 
1.2168079999999999e+00,	 2.8352569999999999e-01,	 1.1057936595712813e-02,	 1.8084510743802593e+03,	 -1.3990393161011554e+02,	 3.6578969065497927e+02,	 1.1636851551154607e+03,	 3.8383512712883459e+02,	 4.7256085779603483e+00 
1.2186990000000000e+00,	 2.8350649999999999e-01,	 1.1027549122873643e-02,	 1.8097624638034783e+03,	 -1.3345616080129764e+02,	 3.6613945567816671e+02,	 1.1615969688321547e+03,	 3.8401859324094909e+02,	 4.7254911887406239e+00 
1.2206049999999999e+00,	 2.8348719999999999e-01,	 1.1066119084078525e-02,	 1.8108682470732381e+03,	 -1.2379157655844148e+02,	 3.6780746085342827e+02,	 1.1709701151466479e+03,	 3.8489232744584007e+02,	 4.7158501307576559e+00 
1.2225269999999999e+00,	 2.8346769999999999e-01,	 1.1214375709139836e-02,	 1.8117180835834529e+03,	 -1.0850859775676625e+02,	 3.7160788083197281e+02,	 1.1989193100095936e+03,	 3.8687569309274244e+02,	 4.6913379178935308e+00 
1.2244640000000000e+00,	 2.8344809999999998e-01,	 1.1510140214195198e-02,	 1.8121803959233989e+03,	 -8.6722417251146396e+01,	 3.7799804929796267e+02,	 1.2516995907469905e+03,	 3.9018787160115289e+02,	 4.6496941716385258e+00 
1.2264170000000001e+00,	 2.8342829999999997e-01,	 1.1968603680101683e-02,	 1.8119955113876072e+03,	 -5.9243774723889871e+01,	 3.8689970388562870e+02,	 1.3322073368091462e+03,	 3.9475549603175102e+02,	 4.5926244676430663e+00 
1.2283860000000000e+00,	 2.8340830000000000e-01,	 1.2561673925057377e-02,	 1.8114909280255001e+03,	 -2.8600860757622819e+01,	 3.9738369895023675e+02,	 1.4361093219853201e+03,	 4.0006818004323952e+02,	 4.5285198567434870e+00 
1.2303710000000001e+00,	 2.8338809999999998e-01,	 1.3227431710575794e-02,	 1.8109194667074541e+03,	 2.6713573842073650e+00,	 4.0812491635753878e+02,	 1.5530969797835703e+03,	 4.0543901806143748e+02,	 4.4665692159487573e+00 
1.2323720000000000e+00,	 2.8336780000000000e-01,	 1.3903782017513293e-02,	 1.8104581201441958e+03,	 3.1945832437904080e+01,	 4.1794548984071616e+02,	 1.6717931090999311e+03,	 4.1028799344378007e+02,	 4.4133388543852936e+00 
1.2343890000000000e+00,	 2.8334739999999997e-01,	 1.4533798780383182e-02,	 1.8102231499948830e+03,	 5.7565223000315349e+01,	 4.2617104940396780e+02,	 1.7819397857599333e+03,	 4.1430574789122494e+02,	 4.3715015227217764e+00 
1.2364230000000000e+00,	 2.8332679999999999e-01,	 1.5077736928397615e-02,	 1.8102365141707708e+03,	 7.8939969854922808e+01,	 4.3261240331002972e+02,	 1.8765712822441192e+03,	 4.1742501359500346e+02,	 4.3407961353749380e+00 
1.2384729999999999e+00,	 2.8330600000000000e-01,	 1.5514368012135130e-02,	 1.8107965792564241e+03,	 9.6207283126611429e+01,	 4.3732805526864263e+02,	 1.9519620298244688e+03,	 4.1969389901105347e+02,	 4.3206501690123611e+00 
1.2405409999999999e+00,	 2.8328500000000001e-01,	 1.5840550378719911e-02,	 1.8120138094054544e+03,	 1.0993432538888219e+02,	 4.4053798284101310e+02,	 2.0076294761969662e+03,	 4.2123133068426625e+02,	 4.3096167238166316e+00 
1.2426250000000001e+00,	 2.8326380000000001e-01,	 1.6063095101009825e-02,	 1.8136663818755574e+03,	 1.2072106297090676e+02,	 4.4247704898200692e+02,	 2.0447956712111541e+03,	 4.2215735592649236e+02,	 4.3056922428777238e+00 
1.2447260000000000e+00,	 2.8324250000000001e-01,	 1.6194825964081727e-02,	 1.8156757150404892e+03,	 1.2910771972281154e+02,	 4.4336222283149601e+02,	 2.0656888653799124e+03,	 4.2257940713985283e+02,	 4.3074985303631994e+00 
1.2468440000000001e+00,	 2.8322110000000000e-01,	 1.6248862886628926e-02,	 1.8179511683709534e+03,	 1.3553161188693241e+02,	 4.4338237590760355e+02,	 2.0726756137635316e+03,	 4.2258901122624104e+02,	 4.3138751490419933e+00 
1.2489790000000001e+00,	 2.8319939999999999e-01,	 1.6236130621748751e-02,	 1.8204524595772286e+03,	 1.4040614608648167e+02,	 4.4266540427692792e+02,	 2.0677025144538011e+03,	 4.2224719913207787e+02,	 4.3241470673648896e+00 
1.2511319999999999e+00,	 2.8317759999999997e-01,	 1.6176729664669050e-02,	 1.8231193008847340e+03,	 1.4404551487235349e+02,	 4.4140936617277367e+02,	 2.0542921636981409e+03,	 4.2164772228491802e+02,	 4.3372723313818469e+00 
1.2533030000000001e+00,	 2.8315550000000000e-01,	 1.6071807950047277e-02,	 1.8258808608618715e+03,	 1.4661557963509796e+02,	 4.3966252037292884e+02,	 2.0328911107205661e+03,	 4.2081257494879179e+02,	 4.3529067820715603e+00 
1.2554909999999999e+00,	 2.8313329999999998e-01,	 1.5936036556391035e-02,	 1.8287093655911203e+03,	 1.4831772100505393e+02,	 4.3753048001323327e+02,	 2.0059429060256061e+03,	 4.1979101901133902e+02,	 4.3705417413772345e+00 
1.2576970000000001e+00,	 2.8311100000000000e-01,	 1.5779567575770100e-02,	 1.8315404363630207e+03,	 1.4949897948880323e+02,	 4.3513784578195532e+02,	 1.9753856403877166e+03,	 4.1864163248424541e+02,	 4.3895101944713995e+00 
1.2599220000000000e+00,	 2.8308839999999996e-01,	 1.5611274194485807e-02,	 1.8343392517810616e+03,	 1.5031424154835747e+02,	 4.3255820771487919e+02,	 1.9427317873785264e+03,	 4.1739886627996322e+02,	 4.4094218222790138e+00 
1.2621640000000001e+00,	 2.8306559999999997e-01,	 1.5435249403598476e-02,	 1.8370613412212977e+03,	 1.5081154169649864e+02,	 4.2982747547921110e+02,	 1.9087003878798748e+03,	 4.1607926453500596e+02,	 4.4300244155069421e+00 
1.2644249999999999e+00,	 2.8304269999999998e-01,	 1.5255933519122720e-02,	 1.8396627076207888e+03,	 1.5104185294314883e+02,	 4.2698790120770883e+02,	 1.8740634659099142e+03,	 4.1470261246680093e+02,	 4.4510276367768515e+00 
1.2667050000000000e+00,	 2.8301959999999998e-01,	 1.5076281775200227e-02,	 1.8420968233489048e+03,	 1.5106604952521775e+02,	 4.2407505871317795e+02,	 1.8393607469995407e+03,	 4.1328567468167626e+02,	 4.4721625826979237e+00 
1.2690030000000001e+00,	 2.8299629999999998e-01,	 1.4899652064223612e-02,	 1.8443221623283077e+03,	 1.5089002195468552e+02,	 4.2111749505871740e+02,	 1.8051335941935654e+03,	 4.1184199473852942e+02,	 4.4931898510366599e+00 
1.2713200000000000e+00,	 2.8297279999999997e-01,	 1.4728333420371550e-02,	 1.8463011919933333e+03,	 1.5058052583760514e+02,	 4.1813726529882479e+02,	 1.7717499092391643e+03,	 4.1038211354542466e+02,	 4.5139187902210951e+00 
1.2736559999999999e+00,	 2.8294910000000001e-01,	 1.4564051172377862e-02,	 1.8480022614125514e+03,	 1.5011278342273221e+02,	 4.1514582778698241e+02,	 1.7394534513467984e+03,	 4.0891150075613700e+02,	 4.5342061711008652e+00 
1.2760110000000000e+00,	 2.8292519999999999e-01,	 1.4407720534741798e-02,	 1.8494023943326865e+03,	 1.4948454205693605e+02,	 4.1214278377077255e+02,	 1.7083345076870169e+03,	 4.0742984306781153e+02,	 4.5539959852577692e+00 
1.2783860000000000e+00,	 2.8290110000000002e-01,	 1.4259794342682586e-02,	 1.8504850674053655e+03,	 1.4866358980875208e+02,	 4.0911976183315267e+02,	 1.6783929917191922e+03,	 4.0593286645772008e+02,	 4.5732860203552477e+00 
1.2807800000000000e+00,	 2.8287679999999998e-01,	 1.4119777491967240e-02,	 1.8512566004296741e+03,	 1.4759308002363036e+02,	 4.0605850260487796e+02,	 1.6494775124735572e+03,	 4.0441130826784837e+02,	 4.5921831009494696e+00 
1.2831939999999999e+00,	 2.8285230000000000e-01,	 1.3986019502422068e-02,	 1.8517279292507276e+03,	 1.4622464361305265e+02,	 4.0292952872825003e+02,	 1.6212618478190066e+03,	 4.0285015446991758e+02,	 4.6108766922159630e+00 
1.2856280000000000e+00,	 2.8282760000000001e-01,	 1.3855963732910124e-02,	 1.8518787962421179e+03,	 1.4447748348517553e+02,	 3.9969028868020445e+02,	 1.5932732757138090e+03,	 4.0122758587158887e+02,	 4.6295572402162151e+00 
1.2880810000000000e+00,	 2.8280279999999997e-01,	 1.3727778452943006e-02,	 1.8520088649164802e+03,	 1.4224259467710868e+02,	 3.9630453849342376e+02,	 1.5651618189666631e+03,	 3.9952458543507919e+02,	 4.6491838940093517e+00 
1.2905549999999999e+00,	 2.8277769999999997e-01,	 1.3600241988484640e-02,	 1.8519061653833155e+03,	 1.3944878896763623e+02,	 3.9275293390848429e+02,	 1.5367244856980894e+03,	 3.9773032542397283e+02,	 4.6693673622685532e+00 
1.2930500000000000e+00,	 2.8275240000000001e-01,	 1.3469261403961078e-02,	 1.8513594389582599e+03,	 1.3602016670513615e+02,	 3.8896922663551720e+02,	 1.5072627366424313e+03,	 3.9580985961983237e+02,	 4.6900030375963713e+00 
1.2955639999999999e+00,	 2.8272690000000000e-01,	 1.3330131199218092e-02,	 1.8505452414129281e+03,	 1.3184659367959469e+02,	 3.8488699432999567e+02,	 1.4760382010229275e+03,	 3.9372736889596729e+02,	 4.7119817112537925e+00 
1.2981000000000000e+00,	 2.8270109999999998e-01,	 1.3176181889791243e-02,	 1.8494793897771751e+03,	 1.2667335885842292e+02,	 3.8042195799110965e+02,	 1.4420658601632210e+03,	 3.9143691034193347e+02,	 4.7359160072405970e+00 
1.3006570000000000e+00,	 2.8267520000000002e-01,	 1.2996296835626153e-02,	 1.8480774203238238e+03,	 1.2007734261247973e+02,	 3.7543575727432028e+02,	 1.4037352081037811e+03,	 3.8886316198256810e+02,	 4.7625346323922608e+00 
1.3032340000000000e+00,	 2.8264909999999999e-01,	 1.2784698858083194e-02,	 1.8462521936276712e+03,	 1.1184294098351120e+02,	 3.6984420569099018e+02,	 1.3603142866646551e+03,	 3.8595653261195019e+02,	 4.7923446460990808e+00 
1.3058330000000000e+00,	 2.8262270000000000e-01,	 1.2539435633321334e-02,	 1.8439200386360524e+03,	 1.0185219349980480e+02,	 3.6360195447896939e+02,	 1.3116988476054271e+03,	 3.8268557403865145e+02,	 4.8257133656822520e+00 
1.3084530000000001e+00,	 2.8259610000000002e-01,	 1.2258298477982340e-02,	 1.8410122265486461e+03,	 8.9949228732646986e+01,	 3.5667856919674080e+02,	 1.2578740134792542e+03,	 3.7902468412652013e+02,	 4.8630297428184255e+00 
1.3110949999999999e+00,	 2.8256929999999997e-01,	 1.1944115631528914e-02,	 1.8374997900476590e+03,	 7.6128246842694523e+01,	 3.4912128829395817e+02,	 1.1996657722270697e+03,	 3.7498781198000233e+02,	 4.9043623948429591e+00 
1.3137589999999999e+00,	 2.8254229999999997e-01,	 1.1611186959195212e-02,	 1.8334509088923646e+03,	 6.0790602616510981e+01,	 3.4113447458040343e+02,	 1.1395468009544807e+03,	 3.7067371611412295e+02,	 4.9489843779101319e+00 
1.3164450000000001e+00,	 2.8251500000000002e-01,	 1.1284176570601379e-02,	 1.8290517529253150e+03,	 4.4791447687546338e+01,	 3.3309365328302135e+02,	 1.0813497109049852e+03,	 3.6627912283480924e+02,	 4.9950980088274433e+00 
1.3191530000000000e+00,	 2.8248760000000001e-01,	 1.0993241760127982e-02,	 1.8245863010941548e+03,	 2.9334631604897631e+01,	 3.2548549713323041e+02,	 1.0294075723708820e+03,	 3.6207188888016702e+02,	 5.0399441503957707e+00 
1.3218829999999999e+00,	 2.8245989999999999e-01,	 1.0763891258827832e-02,	 1.8203500408609348e+03,	 1.5648343214080322e+01,	 3.1877446851677956e+02,	 9.8714913544912213e+02,	 3.5831975438209810e+02,	 5.0804268438310398e+00 
1.3246359999999999e+00,	 2.8243200000000002e-01,	 1.0610397396486266e-02,	 1.8165530419128049e+03,	 4.5427042034801852e+00,	 3.1323373201702248e+02,	 9.5615898937090822e+02,	 3.5519206006167599e+02,	 5.1142999131828253e+00 
1.3274120000000000e+00,	 2.8240379999999998e-01,	 1.0530490244408292e-02,	 1.8132638257893395e+03,	 -3.7904269022551809e+00,	 3.0889111263886906e+02,	 9.3580193881025150e+02,	 3.5272130537841701e+02,	 5.1407946156616529e+00 
1.3302099999999999e+00,	 2.8237540000000000e-01,	 1.0515241552912606e-02,	 1.8104388669290029e+03,	 -9.6805453678906588e+00,	 3.0559223559473702e+02,	 9.2446719924957256e+02,	 3.5083276348623087e+02,	 5.1604779725691614e+00 
1.3330320000000000e+00,	 2.8234680000000001e-01,	 1.0541459711832882e-02,	 1.8079766406572212e+03,	 -1.3738663528543405e+01,	 3.0311812517791719e+02,	 9.1926896182961309e+02,	 3.4940968577557760e+02,	 5.1745240987494334e+00 
1.3358770000000000e+00,	 2.8231790000000001e-01,	 1.0596687872746726e-02,	 1.8057829456281615e+03,	 -1.6416936351330065e+01,	 3.0126375943884790e+02,	 9.1843192403764124e+02,	 3.4833926587347298e+02,	 5.1841918116927355e+00 
1.3387460000000000e+00,	 2.8228880000000001e-01,	 1.0665305016357662e-02,	 1.8037718811064092e+03,	 -1.8145795706522026e+01,	 2.9985808853055295e+02,	 9.2006600821161544e+02,	 3.4752565510885108e+02,	 5.1905898884878710e+00 
1.3416390000000000e+00,	 2.8225950000000000e-01,	 1.0736977246742704e-02,	 1.8018790780648319e+03,	 -1.9333339343047665e+01,	 2.9878283016973512e+02,	 9.2292754323099928e+02,	 3.4690200099323096e+02,	 5.1945010085558403e+00 
1.3445549999999999e+00,	 2.8222989999999998e-01,	 1.0805413499934021e-02,	 1.8000620876255553e+03,	 -2.0118840857888948e+01,	 2.9795965498489852e+02,	 9.2625121622738027e+02,	 3.4642379734768343e+02,	 5.1964516569220871e+00 
1.3474960000000000e+00,	 2.8220010000000001e-01,	 1.0866607807237257e-02,	 1.7982839666361401e+03,	 -2.0607426031349405e+01,	 2.9732483730621789e+02,	 9.2951225571480916e+02,	 3.4605456411833148e+02,	 5.1968742059193840e+00 
1.3504609999999999e+00,	 2.8216999999999998e-01,	 1.0917396736027029e-02,	 1.7965060629527088e+03,	 -2.0857442264102335e+01,	 2.9682576991737540e+02,	 9.3228915704135568e+02,	 3.4576401139757542e+02,	 5.1961079729009336e+00 
1.3534500000000000e+00,	 2.8213969999999999e-01,	 1.0955980449230681e-02,	 1.7946861321434453e+03,	 -2.0890688841852178e+01,	 2.9641100208061744e+02,	 9.3427667328227358e+02,	 3.4552235123945252e+02,	 5.1944764457404204e+00 
1.3564650000000000e+00,	 2.8210910000000000e-01,	 1.0980318177228061e-02,	 1.7927713899814044e+03,	 -2.0720470015928427e+01,	 2.9603096434126832e+02,	 9.3515155907223414e+02,	 3.4530077773342731e+02,	 5.1922591635669955e+00 
1.3595040000000000e+00,	 2.8207830000000000e-01,	 1.0989014070570215e-02,	 1.7907030771521547e+03,	 -2.0334223053285811e+01,	 2.9563441297558722e+02,	 9.3463847083838084e+02,	 3.4506942460055757e+02,	 5.1897340007397252e+00 
1.3625689999999999e+00,	 2.8204720000000000e-01,	 1.0980053833984919e-02,	 1.7884173237706932e+03,	 -1.9716856667824235e+01,	 2.9517343210306558e+02,	 9.3242019656033040e+02,	 3.4480028735670129e+02,	 5.1871360691214718e+00 
1.3656590000000000e+00,	 2.8201579999999998e-01,	 1.0951710303230808e-02,	 1.7858475319353447e+03,	 -1.8851517139413723e+01,	 2.9460344734981391e+02,	 9.2821740841044550e+02,	 3.4446721897529744e+02,	 5.1846646928192710e+00 
1.3687739999999999e+00,	 2.8198419999999996e-01,	 1.0903490602828003e-02,	 1.7829417168130990e+03,	 -1.7731257861173450e+01,	 2.9388637225453380e+02,	 9.2188115877927271e+02,	 3.4404774093396827e+02,	 5.1825071659757000e+00 
1.3719159999999999e+00,	 2.8195239999999999e-01,	 1.0832721149231797e-02,	 1.7796866037322234e+03,	 -1.6457724398266073e+01,	 2.9297491624202462e+02,	 9.1305710462489310e+02,	 3.4351381366435385e+02,	 5.1810513232604709e+00 
1.3750830000000001e+00,	 2.8192020000000001e-01,	 1.0765839402189866e-02,	 1.7771185126650889e+03,	 -1.5580025370593750e+01,	 2.9216715368756610e+02,	 9.0491799403723769e+02,	 3.4303993500948707e+02,	 5.1806994613174631e+00 
1.1565000000000001e+00,	 2.8488340000000001e-01,	 1.6478627076528401e-02,	 1.7493749066389469e+03,	 -2.5191070436128012e+02,	 4.2217981519620878e+02,	 2.0014669745380040e+03,	 4.1236112832980922e+02,	 4.2860962007655647e+00 
1.1579079999999999e+00,	 2.8486970000000000e-01,	 1.6312816067680973e-02,	 1.7507456222766727e+03,	 -2.4984358020157876e+02,	 4.2049776282037396e+02,	 1.9734338187120575e+03,	 4.1153884213201650e+02,	 4.2972443870803465e+00 
1.1593279999999999e+00,	 2.8485590000000000e-01,	 1.6106578190483084e-02,	 1.7526125938097180e+03,	 -2.4727729415119393e+02,	 4.1841126460222176e+02,	 1.9388159816279285e+03,	 4.1051655025772192e+02,	 4.3115701242411504e+00 
1.1607580000000000e+00,	 2.8484199999999998e-01,	 1.5904147823721623e-02,	 1.7544638457625849e+03,	 -2.4468023955314806e+02,	 4.1635566568102411e+02,	 1.9050431627961405e+03,	 4.0950690204447858e+02,	 4.3257962576897508e+00 
1.1621999999999999e+00,	 2.8482799999999997e-01,	 1.5705320763252067e-02,	 1.7562986851927653e+03,	 -2.4203853185419840e+02,	 4.1433490629800679e+02,	 1.8720966706714869e+03,	 4.0851193367777086e+02,	 4.3398930797616107e+00 
1.1636530000000000e+00,	 2.8481390000000001e-01,	 1.5510652587810626e-02,	 1.7581177899626546e+03,	 -2.3935286404970049e+02,	 4.1234982641895090e+02,	 1.8400338987610162e+03,	 4.0753216775420657e+02,	 4.3538548864802920e+00 
1.1651180000000001e+00,	 2.8479959999999999e-01,	 1.5319633854388146e-02,	 1.7599185496354298e+03,	 -2.3662792745535063e+02,	 4.1040125247190588e+02,	 1.8087852197315422e+03,	 4.0656812353531018e+02,	 4.3676692039426639e+00 
1.1665939999999999e+00,	 2.8478529999999996e-01,	 1.5132890381384741e-02,	 1.7617012209529100e+03,	 -2.3386250395056874e+02,	 4.0848815383583741e+02,	 1.7784075365230067e+03,	 4.0561940142803661e+02,	 4.3813383407316238e+00 
1.1680820000000001e+00,	 2.8477079999999999e-01,	 1.4949853010608999e-02,	 1.7634654840105932e+03,	 -2.3106019835013967e+02,	 4.0661001447505805e+02,	 1.7488192731741219e+03,	 4.0468585239637997e+02,	 4.3948621547783580e+00 
1.1695810000000000e+00,	 2.8475620000000001e-01,	 1.4770838801689274e-02,	 1.7652136629148526e+03,	 -2.2821869673509201e+02,	 4.0476504317580645e+02,	 1.7200382089088512e+03,	 4.0376668828825984e+02,	 4.4082520921940960e+00 
1.1710929999999999e+00,	 2.8474149999999998e-01,	 1.4595320747901441e-02,	 1.7669452666594498e+03,	 -2.2533786728891977e+02,	 4.0295248350573627e+02,	 1.6919885422757784e+03,	 4.0286162943426751e+02,	 4.4215080602017238e+00 
1.1726160000000001e+00,	 2.8472670000000000e-01,	 1.4424602735642304e-02,	 1.7686606256768969e+03,	 -2.2241784060580193e+02,	 4.0117062425457300e+02,	 1.6648032803251572e+03,	 4.0196991380170903e+02,	 4.4346374673721556e+00 
1.1741520000000001e+00,	 2.8471180000000001e-01,	 1.4257553557197452e-02,	 1.7703601986907836e+03,	 -2.1947269090349667e+02,	 3.9941973429161652e+02,	 1.6383416330002890e+03,	 4.0109176538285044e+02,	 4.4476415782561398e+00 
1.1757000000000000e+00,	 2.8469679999999997e-01,	 1.4093356914647978e-02,	 1.7720449822920232e+03,	 -2.1650950165646120e+02,	 3.9770002707235426e+02,	 1.6125010592924400e+03,	 4.0022738088816982e+02,	 4.4605209433916828e+00 
1.1772600000000000e+00,	 2.8468159999999998e-01,	 1.3932704426419154e-02,	 1.7737174083697607e+03,	 -2.1352405541005760e+02,	 3.9600940646126435e+02,	 1.5873433002619922e+03,	 3.9937579271107415e+02,	 4.4732892250867105e+00 
1.1788330000000000e+00,	 2.8466629999999998e-01,	 1.3775169121967853e-02,	 1.7753771046948971e+03,	 -2.1051113921378146e+02,	 3.9434831157252864e+02,	 1.5628124513161158e+03,	 3.9853730476993513e+02,	 4.4859388369343014e+00 
1.1804180000000000e+00,	 2.8465089999999998e-01,	 1.3620764607721740e-02,	 1.7770231068782571e+03,	 -2.0746885719200102e+02,	 3.9271668091657943e+02,	 1.5389013253240973e+03,	 3.9771196878577581e+02,	 4.4984645478508130e+00 
1.1820160000000000e+00,	 2.8463539999999998e-01,	 1.3469345902633184e-02,	 1.7786551015413215e+03,	 -2.0439907023591593e+02,	 3.9111354700262876e+02,	 1.5155815244212927e+03,	 3.9689937590412694e+02,	 4.5108690804935714e+00 
1.1836260000000001e+00,	 2.8461969999999998e-01,	 1.3320920114329254e-02,	 1.7802739703927714e+03,	 -2.0130450265161033e+02,	 3.8953748133621571e+02,	 1.4928405152613432e+03,	 3.9609887827449853e+02,	 4.5231611952907693e+00 
1.1852499999999999e+00,	 2.8460389999999997e-01,	 1.3175087754913920e-02,	 1.7818797927375090e+03,	 -1.9818721688269179e+02,	 3.8798744673933106e+02,	 1.4706222362944077e+03,	 3.9531002099888286e+02,	 4.5353453638907117e+00 
1.1868860000000001e+00,	 2.8458800000000001e-01,	 1.3031894822918713e-02,	 1.7834732863480497e+03,	 -1.9504709916718917e+02,	 3.8646242114824577e+02,	 1.4489212239615372e+03,	 3.9453235219830526e+02,	 4.5474271078356479e+00 
1.1885360000000000e+00,	 2.8457199999999999e-01,	 1.2891359399744284e-02,	 1.7850558161704046e+03,	 -1.9188594722012320e+02,	 3.8496126715984809e+02,	 1.4277286975905301e+03,	 3.9376535645550467e+02,	 4.5594149598276941e+00 
1.1901980000000001e+00,	 2.8455579999999997e-01,	 1.2753173177931981e-02,	 1.7866277263327936e+03,	 -1.8870557894425107e+02,	 3.8348290718406969e+02,	 1.4070003506467417e+03,	 3.9300854408083410e+02,	 4.5713146919496541e+00 
1.1918750000000000e+00,	 2.8453950000000000e-01,	 1.2617259764727558e-02,	 1.7881898428763839e+03,	 -1.8550550069745100e+02,	 3.8202556070461094e+02,	 1.3867156079555596e+03,	 3.9226105990676592e+02,	 4.5831370465114674e+00 
1.1935640000000001e+00,	 2.8452309999999997e-01,	 1.2483721071888741e-02,	 1.7897434226208190e+03,	 -1.8228942860717456e+02,	 3.8058803646972319e+02,	 1.3668760260551387e+03,	 3.9152234462293876e+02,	 4.5948916873011569e+00 
1.1952670000000001e+00,	 2.8450650000000000e-01,	 1.2352155883209200e-02,	 1.7912888281442777e+03,	 -1.7905987070781242e+02,	 3.7916876356957988e+02,	 1.3474270249943916e+03,	 3.9079163842580789e+02,	 4.6065881400007322e+00 
1.1969840000000000e+00,	 2.8448989999999996e-01,	 1.2222724806821949e-02,	 1.7928279499162943e+03,	 -1.7581823443936204e+02,	 3.7776544425881025e+02,	 1.3283734901870375e+03,	 3.9006780003981379e+02,	 4.6182441934947285e+00 
1.1987150000000000e+00,	 2.8447299999999998e-01,	 1.2094970557410418e-02,	 1.7943598449128740e+03,	 -1.7256884225342813e+02,	 3.7637749916757957e+02,	 1.3096595231389260e+03,	 3.8935056809886919e+02,	 4.6298608973639181e+00 
1.2004589999999999e+00,	 2.8445609999999999e-01,	 1.1969295547084643e-02,	 1.7958879543180378e+03,	 -1.6931141776999087e+02,	 3.7500158753245836e+02,	 1.2913133309080977e+03,	 3.8863824805932092e+02,	 4.6414664963989738e+00 
1.2022180000000000e+00,	 2.8443900000000000e-01,	 1.1845166024866748e-02,	 1.7974116690691608e+03,	 -1.6605236820891972e+02,	 3.7363726082750981e+02,	 1.2732722360815819e+03,	 3.8793063413691601e+02,	 4.6530629907236944e+00 