TITLE = "Final State"
VARIABLES = "X", "Y", "rho", "u", "v", "T", "p", "c", "M"
ZONE I=77, J=21, DATAPACKING=POINT, STRANDID=24000, SOLUTIONTIME=0.000579
-5.0000000000000000e-01,	 3.0203999999999998e-01,	 1.1586407834508077e-02,	 1.7360000002483891e+03,	 -3.6044915437702951e-08,	 3.0000000003664161e+02,	 1.0000000082338746e+03,	 3.4760788076377588e+02,	 4.9941330341360235e+00 
-4.9550200000000000e-01,	 3.0203999999999998e-01,	 1.1586407799541648e-02,	 1.7360000001378169e+03,	 -9.8047180608292816e-08,	 3.0000000008361087e+02,	 1.0000000053725553e+03,	 3.4760788079098734e+02,	 4.9941330334269773e+00 
-4.9100400000000000e-01,	 3.0203999999999998e-01,	 1.1586407759851732e-02,	 1.7360000000093155e+03,	 -1.7068609395639564e-07,	 3.0000000011336408e+02,	 1.0000000020461742e+03,	 3.4760788080822476e+02,	 4.9941330328096516e+00 
-4.8650599999999999e-01,	 3.0203999999999998e-01,	 1.1586407755696637e-02,	 1.7359999999809852e+03,	 -1.8482532266084740e-07,	 3.0000000011497184e+02,	 1.0000000016929154e+03,	 3.4760788080915620e+02,	 4.9941330327147693e+00 
-4.8200799999999999e-01,	 3.0203999999999998e-01,	 1.1586407757158910e-02,	 1.7359999999730826e+03,	 -1.7557742811057875e-07,	 3.0000000011070483e+02,	 1.0000000018048979e+03,	 3.4760788080668414e+02,	 4.9941330327275510e+00 
-4.7750999999999999e-01,	 3.0203999999999998e-01,	 1.1586407756668818e-02,	 1.7359999999716483e+03,	 -1.6231799866434420e-07,	 3.0000000010539418e+02,	 1.0000000017448968e+03,	 3.4760788080360743e+02,	 4.9941330327676283e+00 
-4.7301199999999999e-01,	 3.0203999999999998e-01,	 1.1586407755730286e-02,	 1.7359999999719930e+03,	 -1.4876216042685285e-07,	 3.0000000009953925e+02,	 1.0000000016443776e+03,	 3.4760788080021541e+02,	 4.9941330328173539e+00 
-4.6851399999999999e-01,	 3.0203999999999998e-01,	 1.1586407754756653e-02,	 1.7359999999732031e+03,	 -1.3484959004698115e-07,	 3.0000000009315227e+02,	 1.0000000015390552e+03,	 3.4760788079651513e+02,	 4.9941330328739975e+00 
-4.6401599999999998e-01,	 3.0203999999999998e-01,	 1.1586407753782342e-02,	 1.7359999999751867e+03,	 -1.1787824051314152e-07,	 3.0000000008637460e+02,	 1.0000000014323722e+03,	 3.4760788079258850e+02,	 4.9941330329361184e+00 
-4.5951799999999998e-01,	 3.0203999999999998e-01,	 1.1586407752793742e-02,	 1.7359999999778211e+03,	 -1.0275462345376541e-07,	 3.0000000007928941e+02,	 1.0000000013234309e+03,	 3.4760788078848373e+02,	 4.9941330330026705e+00 
-4.5501999999999998e-01,	 3.0203999999999998e-01,	 1.1586407751767586e-02,	 1.7359999999807465e+03,	 -8.9874771609697775e-08,	 3.0000000007171082e+02,	 1.0000000012096033e+03,	 3.4760788078409308e+02,	 4.9941330330741680e+00 
-4.5052199999999998e-01,	 3.0203999999999998e-01,	 1.1586407750735730e-02,	 1.7359999999839119e+03,	 -7.4209196607191620e-08,	 3.0000000006387654e+02,	 1.0000000010944317e+03,	 3.4760788077955431e+02,	 4.9941330331484837e+00 
-4.4602399999999998e-01,	 3.0203999999999998e-01,	 1.1586407749706519e-02,	 1.7359999999872171e+03,	 -5.7986018194798056e-08,	 3.0000000005588515e+02,	 1.0000000009789645e+03,	 3.4760788077492452e+02,	 4.9941330332245082e+00 
-4.4152599999999997e-01,	 3.0203999999999998e-01,	 1.1586407748688569e-02,	 1.7359999999905965e+03,	 -4.1460678908507151e-08,	 3.0000000004782726e+02,	 1.0000000008642477e+03,	 3.4760788077025626e+02,	 4.9941330333013001e+00 
-4.3702800000000003e-01,	 3.0203999999999998e-01,	 1.1586407747680799e-02,	 1.7359999999939835e+03,	 -2.4908966360574717e-08,	 3.0000000003976265e+02,	 1.0000000007503869e+03,	 3.4760788076558401e+02,	 4.9941330333781702e+00 
-4.3253000000000003e-01,	 3.0203999999999998e-01,	 1.1586407746687323e-02,	 1.7359999999973215e+03,	 -8.5136742535449873e-09,	 3.0000000003176672e+02,	 1.0000000006379888e+03,	 3.4760788076095162e+02,	 4.9941330334543279e+00 
-4.2803200000000002e-01,	 3.0203999999999998e-01,	 1.1586407745720229e-02,	 1.7360000000005600e+03,	 7.7344337947844899e-09,	 3.0000000002397081e+02,	 1.0000000005285344e+03,	 3.4760788075643512e+02,	 4.9941330335285334e+00 
-4.2353400000000002e-01,	 3.0203999999999998e-01,	 1.1586407744780976e-02,	 1.7360000000036534e+03,	 2.3509324050938417e-08,	 3.0000000001640376e+02,	 1.0000000004222459e+03,	 3.4760788075205113e+02,	 4.9941330336004182e+00 
-4.1903600000000002e-01,	 3.0203999999999998e-01,	 1.1586407743873903e-02,	 1.7360000000065720e+03,	 3.8647249383673531e-08,	 3.0000000000912712e+02,	 1.0000000003197027e+03,	 3.4760788074783545e+02,	 4.9941330336693817e+00 
-4.1453800000000002e-01,	 3.0203999999999998e-01,	 1.1586407743003685e-02,	 1.7360000000092869e+03,	 5.2998557567004111e-08,	 3.0000000000219927e+02,	 1.0000000002215031e+03,	 3.4760788074382185e+02,	 4.9941330337348555e+00 
-4.1004000000000002e-01,	 3.0203999999999998e-01,	 1.1586407742174749e-02,	 1.7360000000117773e+03,	 6.6454016758894840e-08,	 2.9999999999566518e+02,	 1.0000000001281790e+03,	 3.4760788074003631e+02,	 4.9941330337964072e+00 
-4.0554200000000001e-01,	 3.0203999999999998e-01,	 1.1586407741391986e-02,	 1.7360000000140294e+03,	 7.8932842112731435e-08,	 2.9999999998957060e+02,	 1.0000000000403051e+03,	 3.4760788073650548e+02,	 4.9941330338536138e+00 
-4.0104400000000001e-01,	 3.0203999999999998e-01,	 1.1586407740658704e-02,	 1.7360000000160339e+03,	 9.0302889774105772e-08,	 2.9999999998394082e+02,	 9.9999999995825101e+02,	 3.4760788073324386e+02,	 4.9941330339062411e+00 
-3.9654600000000001e-01,	 3.0203999999999998e-01,	 1.1586407739977354e-02,	 1.7360000000177872e+03,	 1.0048360140120523e-07,	 2.9999999997879701e+02,	 9.9999999988229888e+02,	 3.4760788073026379e+02,	 4.9941330339540997e+00 
-3.9204800000000001e-01,	 3.0203999999999998e-01,	 1.1586407739350203e-02,	 1.7360000000192908e+03,	 1.0947152866289399e-07,	 2.9999999997415529e+02,	 9.9999999981269832e+02,	 3.4760788072757464e+02,	 4.9941330339970609e+00 
-3.8755000000000001e-01,	 3.0203999999999998e-01,	 1.1586407738778656e-02,	 1.7360000000210380e+03,	 1.1724127496854856e-07,	 2.9999999997001805e+02,	 9.9999999974957848e+02,	 3.4760788072517772e+02,	 4.9941330340365244e+00 
-3.8305200000000000e-01,	 3.0203999999999998e-01,	 1.1586407738264543e-02,	 1.7360000000234074e+03,	 1.2377501683053686e-07,	 2.9999999996638553e+02,	 9.9999999969309806e+02,	 3.4760788072307327e+02,	 4.9941330340735757e+00 
-3.7855400000000000e-01,	 3.0203999999999998e-01,	 1.1586407737802491e-02,	 1.7360000000258392e+03,	 1.2910784661830757e-07,	 2.9999999996325971e+02,	 9.9999999964279982e+02,	 3.4760788072126235e+02,	 4.9941330341065893e+00 
-3.7405600000000000e-01,	 3.0203999999999998e-01,	 1.1586407737390699e-02,	 1.7360000000278953e+03,	 1.3320925602844783e-07,	 2.9999999996063337e+02,	 9.9999999959850447e+02,	 3.4760788071974076e+02,	 4.9941330341343653e+00 
-3.6955800000000000e-01,	 3.0203999999999998e-01,	 1.1586407737033424e-02,	 1.7360000000296016e+03,	 1.3613600151420194e-07,	 2.9999999995849078e+02,	 9.9999999956052670e+02,	 3.4760788071849947e+02,	 4.9941330341571071e+00 
-3.6506000000000000e-01,	 3.0203999999999998e-01,	 1.1586407736733377e-02,	 1.7360000000309701e+03,	 1.3791561654776804e-07,	 2.9999999995682401e+02,	 9.9999999952907433e+02,	 3.4760788071753382e+02,	 4.9941330341749177e+00 
-3.6056199999999999e-01,	 3.0203999999999998e-01,	 1.1586407736493819e-02,	 1.7360000000320097e+03,	 1.3849720965974008e-07,	 2.9999999995563917e+02,	 9.9999999950444908e+02,	 3.4760788071684738e+02,	 4.9941330341877705e+00 
-3.5606399999999999e-01,	 3.0203999999999998e-01,	 1.1586407736336821e-02,	 1.7360000000327539e+03,	 1.3800030581636176e-07,	 2.9999999995490197e+02,	 9.9999999948844152e+02,	 3.4760788071642031e+02,	 4.9941330341960475e+00 
-3.5156599999999999e-01,	 3.0203999999999998e-01,	 1.1586407736304954e-02,	 1.7360000000332616e+03,	 1.3680624962632662e-07,	 2.9999999995454016e+02,	 9.9999999948448522e+02,	 3.4760788071621067e+02,	 4.9941330342005195e+00 
-3.4706799999999999e-01,	 3.0203999999999998e-01,	 1.1586407736390740e-02,	 1.7360000000336481e+03,	 1.3520973248449457e-07,	 2.9999999995451924e+02,	 9.9999999949181938e+02,	 3.4760788071619857e+02,	 4.9941330342018055e+00 
-3.4256999999999999e-01,	 3.0203999999999998e-01,	 1.1586407736473611e-02,	 1.7360000000338730e+03,	 1.3317015905957907e-07,	 2.9999999995476554e+02,	 9.9999999949979292e+02,	 3.4760788071634124e+02,	 4.9941330342004031e+00 
-3.3807199999999998e-01,	 3.0203999999999998e-01,	 1.1586407736573753e-02,	 1.7360000000339126e+03,	 1.3075984712778378e-07,	 2.9999999995525570e+02,	 9.9999999951006987e+02,	 3.4760788071662523e+02,	 4.9941330341964365e+00 
-3.3357399999999998e-01,	 3.0203999999999998e-01,	 1.1586407736683832e-02,	 1.7360000000337814e+03,	 1.2801328551331928e-07,	 2.9999999995595977e+02,	 9.9999999952191752e+02,	 3.4760788071703314e+02,	 4.9941330341901988e+00 
-3.2907599999999998e-01,	 3.0203999999999998e-01,	 1.1586407736803013e-02,	 1.7360000000335006e+03,	 1.2494214075572553e-07,	 2.9999999995684317e+02,	 9.9999999953514828e+02,	 3.4760788071754490e+02,	 4.9941330341820382e+00 
-3.2457799999999998e-01,	 3.0203999999999998e-01,	 1.1586407736929139e-02,	 1.7360000000330899e+03,	 1.2159733972473398e-07,	 2.9999999995787937e+02,	 9.9999999954948805e+02,	 3.4760788071814522e+02,	 4.9941330341722319e+00 
-3.2007999999999998e-01,	 3.0203999999999998e-01,	 1.1586407737060708e-02,	 1.7360000000325708e+03,	 1.1799287484266375e-07,	 2.9999999995904102e+02,	 9.9999999956471561e+02,	 3.4760788071881825e+02,	 4.9941330341610692e+00 
-3.1558199999999997e-01,	 3.0203999999999998e-01,	 1.1586407737196203e-02,	 1.7360000000319621e+03,	 1.1417331828088683e-07,	 2.9999999996030454e+02,	 9.9999999958062176e+02,	 3.4760788071955028e+02,	 4.9941330341488008e+00 
-3.1108400000000003e-01,	 3.0203999999999998e-01,	 1.1586407737334218e-02,	 1.7360000000312757e+03,	 1.1023714326515215e-07,	 2.9999999996165121e+02,	 9.9999999959702245e+02,	 3.4760788072033046e+02,	 4.9941330341356176e+00 
-3.0658600000000003e-01,	 3.0203999999999998e-01,	 1.1586407737473624e-02,	 1.7360000000305272e+03,	 1.0615925600592394e-07,	 2.9999999996306246e+02,	 9.9999999961375852e+02,	 3.4760788072114804e+02,	 4.9941330341217176e+00 
-3.0208800000000002e-01,	 3.0203999999999998e-01,	 1.1586407737613259e-02,	 1.7360000000297305e+03,	 1.0196212752143537e-07,	 2.9999999996451834e+02,	 9.9999999963066296e+02,	 3.4760788072199148e+02,	 4.9941330341073078e+00 
-2.9759000000000002e-01,	 3.0203999999999998e-01,	 1.1586407737752177e-02,	 1.7360000000288937e+03,	 9.7717626007078650e-08,	 2.9999999996600548e+02,	 9.9999999964760980e+02,	 3.4760788072285305e+02,	 4.9941330340925223e+00 
-2.9309200000000002e-01,	 3.0203999999999998e-01,	 1.1586407737889839e-02,	 1.7360000000280324e+03,	 9.3442920061563955e-08,	 2.9999999996751029e+02,	 9.9999999966450730e+02,	 3.4760788072372486e+02,	 4.9941330340775192e+00 
-2.8859400000000002e-01,	 3.0203999999999998e-01,	 1.1586407738025280e-02,	 1.7360000000271457e+03,	 8.9173484922094078e-08,	 2.9999999996902676e+02,	 9.9999999968125178e+02,	 3.4760788072460343e+02,	 4.9941330340623455e+00 
-2.8409600000000002e-01,	 3.0203999999999998e-01,	 1.1586407738157865e-02,	 1.7360000000262446e+03,	 8.4940838764851919e-08,	 2.9999999997054294e+02,	 9.9999999969774888e+02,	 3.4760788072548183e+02,	 4.9941330340471328e+00 
-2.7959800000000001e-01,	 3.0203999999999998e-01,	 1.1586407738287043e-02,	 1.7360000000253488e+03,	 8.0705414987938797e-08,	 2.9999999997203309e+02,	 9.9999999971386512e+02,	 3.4760788072634517e+02,	 4.9941330340321528e+00 
-2.7510000000000001e-01,	 3.0203999999999998e-01,	 1.1586407738412262e-02,	 1.7360000000244545e+03,	 7.6525682301100113e-08,	 2.9999999997350460e+02,	 9.9999999972957755e+02,	 3.4760788072719765e+02,	 4.9941330340173318e+00 
-2.7060200000000001e-01,	 3.0203999999999998e-01,	 1.1586407738533481e-02,	 1.7360000000235675e+03,	 7.2416868969841373e-08,	 2.9999999997495104e+02,	 9.9999999974486116e+02,	 3.4760788072803564e+02,	 4.9941330340027408e+00 
-2.6610400000000001e-01,	 3.0203999999999998e-01,	 1.1586407738650360e-02,	 1.7360000000226921e+03,	 6.8386625508773389e-08,	 2.9999999997636382e+02,	 9.9999999975965807e+02,	 3.4760788072885413e+02,	 4.9941330339884633e+00 
-2.6160600000000001e-01,	 3.0203999999999998e-01,	 1.1586407738762648e-02,	 1.7360000000218329e+03,	 6.4459350936974023e-08,	 2.9999999997773864e+02,	 9.9999999977393213e+02,	 3.4760788072965062e+02,	 4.9941330339745482e+00 
-2.5710800000000000e-01,	 3.0203999999999998e-01,	 1.1586407738870205e-02,	 1.7360000000209925e+03,	 6.0644947109499964e-08,	 2.9999999997907162e+02,	 9.9999999978765845e+02,	 3.4760788073042289e+02,	 4.9941330339610355e+00 
-2.5261000000000000e-01,	 3.0203999999999998e-01,	 1.1586407738972949e-02,	 1.7360000000201746e+03,	 5.6949831124674448e-08,	 2.9999999998036071e+02,	 9.9999999980082316e+02,	 3.4760788073116976e+02,	 4.9941330339479517e+00 
-2.4811200000000000e-01,	 3.0203999999999998e-01,	 1.1586407739070803e-02,	 1.7360000000193809e+03,	 5.3398879061031541e-08,	 2.9999999998160263e+02,	 9.9999999981340829e+02,	 3.4760788073188922e+02,	 4.9941330339353316e+00 
-2.4361400000000000e-01,	 3.0203999999999998e-01,	 1.1586407739163784e-02,	 1.7360000000186124e+03,	 4.9979913186055370e-08,	 2.9999999998279549e+02,	 9.9999999982540953e+02,	 3.4760788073258033e+02,	 4.9941330339231920e+00 
-2.3911600000000000e-01,	 3.0203999999999998e-01,	 1.1586407739251948e-02,	 1.7360000000178729e+03,	 4.6679947985441120e-08,	 2.9999999998393764e+02,	 9.9999999983682596e+02,	 3.4760788073324198e+02,	 4.9941330339115586e+00 
-2.3461799999999999e-01,	 3.0203999999999998e-01,	 1.1586407739335253e-02,	 1.7360000000171619e+03,	 4.3536080219082159e-08,	 2.9999999998502875e+02,	 9.9999999984765293e+02,	 3.4760788073387414e+02,	 4.9941330339004306e+00 
-2.3011999999999999e-01,	 3.0203999999999998e-01,	 1.1586407739413827e-02,	 1.7360000000164812e+03,	 4.0527964213193507e-08,	 2.9999999998606938e+02,	 9.9999999985790328e+02,	 3.4760788073447702e+02,	 4.9941330338898107e+00 
-2.2562199999999999e-01,	 3.0203999999999998e-01,	 1.1586407739487808e-02,	 1.7360000000158318e+03,	 3.7645887499088242e-08,	 2.9999999998705573e+02,	 9.9999999986757632e+02,	 3.4760788073504847e+02,	 4.9941330338797325e+00 
-2.2112399999999999e-01,	 3.0203999999999998e-01,	 1.1586407739557322e-02,	 1.7360000000152136e+03,	 3.4915102287680981e-08,	 2.9999999998799240e+02,	 9.9999999987669810e+02,	 3.4760788073559110e+02,	 4.9941330338701579e+00 
-2.1662600000000001e-01,	 3.0203999999999998e-01,	 1.1586407739622486e-02,	 1.7360000000146238e+03,	 3.2338542334281197e-08,	 2.9999999998887910e+02,	 9.9999999988527793e+02,	 3.4760788073610485e+02,	 4.9941330338610799e+00 
-2.1212800000000001e-01,	 3.0203999999999998e-01,	 1.1586407739683568e-02,	 1.7360000000140660e+03,	 2.9882021124491648e-08,	 2.9999999998971589e+02,	 9.9999999989333901e+02,	 3.4760788073658961e+02,	 4.9941330338525107e+00 
-2.0763000000000001e-01,	 3.0203999999999998e-01,	 1.1586407739740776e-02,	 1.7360000000135401e+03,	 2.7573745865857415e-08,	 2.9999999999050323e+02,	 9.9999999990090100e+02,	 3.4760788073704578e+02,	 4.9941330338444443e+00 
-2.0313200000000001e-01,	 3.0203999999999998e-01,	 1.1586407739794821e-02,	 1.7360000000130426e+03,	 2.5397654424284110e-08,	 2.9999999999124390e+02,	 9.9999999990803440e+02,	 3.4760788073747483e+02,	 4.9941330338368486e+00 
-1.9863400000000001e-01,	 3.0203999999999998e-01,	 1.1586407739848330e-02,	 1.7360000000125738e+03,	 2.3327130531864352e-08,	 2.9999999999193807e+02,	 9.9999999991496668e+02,	 3.4760788073787705e+02,	 4.9941330338297210e+00 
-1.9413600000000000e-01,	 3.0203999999999998e-01,	 1.1586407739911587e-02,	 1.7360000000121363e+03,	 2.1374445816128146e-08,	 2.9999999999258728e+02,	 9.9999999992259029e+02,	 3.4760788073825313e+02,	 4.9941330338230596e+00 
-1.8963800000000000e-01,	 3.0203999999999998e-01,	 1.1586407740027407e-02,	 1.7360000000116729e+03,	 1.9478487249225446e-08,	 2.9999999999319164e+02,	 9.9999999993460096e+02,	 3.4760788073860328e+02,	 4.9941330338166958e+00 
-1.8514000000000000e-01,	 3.0203999999999998e-01,	 1.1586407740375445e-02,	 1.7360000000105135e+03,	 1.7368259497898745e-08,	 2.9999999999375723e+02,	 9.9999999996652480e+02,	 3.4760788073893093e+02,	 4.9941330338086525e+00 
-1.8064200000000000e-01,	 3.0203999999999998e-01,	 1.1586407741707442e-02,	 1.7360000000091732e+03,	 1.4030894090665782e-08,	 2.9999999999426780e+02,	 1.0000000000831888e+03,	 3.4760788073922674e+02,	 4.9941330338005470e+00 
-1.7614400000000000e-01,	 3.0203999999999998e-01,	 1.1586407747145516e-02,	 1.7360000000186110e+03,	 5.2627022762538167e-09,	 2.9999999999502825e+02,	 1.0000000005550729e+03,	 3.4760788073966728e+02,	 4.9941330338213685e+00 
-1.7164599999999999e-01,	 3.0203999999999998e-01,	 1.1586407769585864e-02,	 1.7360000000774492e+03,	 -2.6226117984956073e-08,	 2.9999999999773752e+02,	 1.0000000025008860e+03,	 3.4760788074123690e+02,	 4.9941330339680832e+00 
-1.6714799999999999e-01,	 3.0203999999999998e-01,	 1.1586407861804586e-02,	 1.7360000003488558e+03,	 -1.5134810578230687e-07,	 3.0000000000587892e+02,	 1.0000000104872402e+03,	 3.4760788074595359e+02,	 4.9941330346811021e+00 
-1.6264999999999999e-01,	 3.0203999999999998e-01,	 1.1587703203961960e-02,	 1.7359937895169778e+03,	 2.6447804842240123e-02,	 3.0001304664177474e+02,	 1.0001553025627707e+03,	 3.4761543918620185e+02,	 4.9940065774482196e+00 
-1.5815199999999999e-01,	 3.0203999999999998e-01,	 1.1588998638301460e-02,	 1.7359875790154188e+03,	 5.2895914054913007e-02,	 3.0002609330213733e+02,	 1.0003106124005807e+03,	 3.4762299747627947e+02,	 4.9938801299811910e+00 
-5.0000000000000000e-01,	 3.0803999999999998e-01,	 1.1586407916939389e-02,	 1.7360000004699418e+03,	 -2.7206275668638230e-07,	 3.0000000001655508e+02,	 1.0000000152814034e+03,	 3.4760788075213878e+02,	 4.9941330349405790e+00 
-4.9550200000000000e-01,	 3.0802469999999998e-01,	 1.1586407761247102e-02,	 1.7360000000146158e+03,	 -3.1542530830489130e-07,	 3.0000000003934059e+02,	 1.0000000019198609e+03,	 3.4760788076533953e+02,	 4.9941330334410381e+00 
-4.9100400000000000e-01,	 3.0800929999999999e-01,	 1.1586407748729839e-02,	 1.7359999999746651e+03,	 -3.0616167692042796e-07,	 3.0000000004864938e+02,	 1.0000000008705499e+03,	 3.4760788077073255e+02,	 4.9941330332486258e+00 
-4.8650599999999999e-01,	 3.0799399999999999e-01,	 1.1586407744884730e-02,	 1.7359999999674462e+03,	 -2.7811249565476895e-07,	 3.0000000005237064e+02,	 1.0000000005510904e+03,	 3.4760788077288845e+02,	 4.9941330331968841e+00 
-4.8200799999999999e-01,	 3.0797869999999999e-01,	 1.1586407744185293e-02,	 1.7359999999668289e+03,	 -2.4465517657107141e-07,	 3.0000000005355463e+02,	 1.0000000004946700e+03,	 3.4760788077357438e+02,	 4.9941330331852534e+00 
-4.7750999999999999e-01,	 3.0796330000000000e-01,	 1.1586407744383773e-02,	 1.7359999999684148e+03,	 -2.1115608843674548e-07,	 3.0000000005326223e+02,	 1.0000000005108257e+03,	 3.4760788077340499e+02,	 4.9941330331922495e+00 
-4.7301199999999999e-01,	 3.0794800000000000e-01,	 1.1586407744494863e-02,	 1.7359999999706861e+03,	 -1.7914175202189422e-07,	 3.0000000005176446e+02,	 1.0000000005154210e+03,	 3.4760788077253727e+02,	 4.9941330332112495e+00 
-4.6851399999999999e-01,	 3.0793270000000000e-01,	 1.1586407744427275e-02,	 1.7359999999730339e+03,	 -1.4847569303707120e-07,	 3.0000000004922742e+02,	 1.0000000005011309e+03,	 3.4760788077106741e+02,	 4.9941330332391223e+00 
-4.6401599999999998e-01,	 3.0791730000000000e-01,	 1.1586407744259383e-02,	 1.7359999999759955e+03,	 -1.2049961014928359e-07,	 3.0000000004579385e+02,	 1.0000000004751953e+03,	 3.4760788076907818e+02,	 4.9941330332762215e+00 
-4.5951799999999998e-01,	 3.0790200000000001e-01,	 1.1586407744005892e-02,	 1.7359999999790209e+03,	 -9.2697491561760741e-08,	 3.0000000004162405e+02,	 1.0000000004394176e+03,	 3.4760788076666245e+02,	 4.9941330333196321e+00 
-4.5501999999999998e-01,	 3.0788670000000001e-01,	 1.1586407743656423e-02,	 1.7359999999822289e+03,	 -6.4750110071920664e-08,	 3.0000000003679338e+02,	 1.0000000003931533e+03,	 3.4760788076386382e+02,	 4.9941330333690690e+00 
-4.5052199999999998e-01,	 3.0787130000000001e-01,	 1.1586407743225049e-02,	 1.7359999999855447e+03,	 -3.9460410465121656e-08,	 3.0000000003148716e+02,	 1.0000000003382349e+03,	 3.4760788076078967e+02,	 4.9941330334227745e+00 
-4.4602399999999998e-01,	 3.0785599999999996e-01,	 1.1586407742735179e-02,	 1.7359999999889014e+03,	 -1.5780178729038108e-08,	 3.0000000002585762e+02,	 1.0000000002771901e+03,	 3.4760788075752822e+02,	 4.9941330334792893e+00 
-4.4152599999999997e-01,	 3.0784069999999997e-01,	 1.1586407742205720e-02,	 1.7359999999922477e+03,	 6.3537962939169681e-09,	 3.0000000002003873e+02,	 1.0000000002120973e+03,	 3.4760788075415701e+02,	 4.9941330335373504e+00 
-4.3702800000000003e-01,	 3.0782529999999997e-01,	 1.1586407741650376e-02,	 1.7359999999955453e+03,	 2.6900337476660777e-08,	 3.0000000001414492e+02,	 1.0000000001445205e+03,	 3.4760788075074248e+02,	 4.9941330335958938e+00 
-4.3253000000000003e-01,	 3.0780999999999997e-01,	 1.1586407741082634e-02,	 1.7359999999987508e+03,	 4.5774458716412119e-08,	 3.0000000000826890e+02,	 1.0000000000759331e+03,	 3.4760788074733824e+02,	 4.9941330336540251e+00 
-4.2803200000000002e-01,	 3.0779469999999998e-01,	 1.1586407740517654e-02,	 1.7360000000018267e+03,	 6.3049501652282618e-08,	 3.0000000000253101e+02,	 1.0000000000080445e+03,	 3.4760788074401398e+02,	 4.9941330337106340e+00 
-4.2353400000000002e-01,	 3.0777929999999998e-01,	 1.1586407739965178e-02,	 1.7360000000047494e+03,	 7.8677154260507471e-08,	 2.9999999999700486e+02,	 9.9999999994194081e+02,	 3.4760788074081245e+02,	 4.9941330337650385e+00 
-4.1903600000000002e-01,	 3.0776399999999998e-01,	 1.1586407739434144e-02,	 1.7360000000074951e+03,	 9.2649711583152164e-08,	 2.9999999999175265e+02,	 9.9999999987860110e+02,	 3.4760788073776962e+02,	 4.9941330338166541e+00 
-4.1453800000000002e-01,	 3.0774869999999999e-01,	 1.1586407738931888e-02,	 1.7360000000100454e+03,	 1.0498230825579798e-07,	 2.9999999998683074e+02,	 9.9999999981884594e+02,	 3.4760788073491813e+02,	 4.9941330338649585e+00 
-4.1004000000000002e-01,	 3.0773329999999999e-01,	 1.1586407738464161e-02,	 1.7360000000123846e+03,	 1.1567950033849406e-07,	 2.9999999998227901e+02,	 9.9999999976330491e+02,	 3.4760788073228110e+02,	 4.9941330339095744e+00 
-4.0554200000000001e-01,	 3.0771799999999999e-01,	 1.1586407738035267e-02,	 1.7360000000145014e+03,	 1.2477057174912351e-07,	 2.9999999997813188e+02,	 9.9999999971246416e+02,	 3.4760788072987845e+02,	 4.9941330339501837e+00 
-4.0104400000000001e-01,	 3.0770270000000000e-01,	 1.1586407737648255e-02,	 1.7360000000163905e+03,	 1.3234127750942606e-07,	 2.9999999997440813e+02,	 9.9999999966664939e+02,	 3.4760788072772112e+02,	 4.9941330339866123e+00 
-3.9654600000000001e-01,	 3.0768730000000000e-01,	 1.1586407737305010e-02,	 1.7360000000180494e+03,	 1.3845966236983764e-07,	 2.9999999997111905e+02,	 9.9999999962606103e+02,	 3.4760788072581562e+02,	 4.9941330340187617e+00 
-3.9204800000000001e-01,	 3.0767200000000000e-01,	 1.1586407737006022e-02,	 1.7360000000194786e+03,	 1.4318346500826822e-07,	 2.9999999996826784e+02,	 9.9999999959075183e+02,	 3.4760788072416375e+02,	 4.9941330340466061e+00 
-3.8755000000000001e-01,	 3.0765670000000001e-01,	 1.1586407736752147e-02,	 1.7360000000205905e+03,	 1.4658383400713722e-07,	 2.9999999996585041e+02,	 9.9999999956078238e+02,	 3.4760788072276324e+02,	 4.9941330340699261e+00 
-3.8305200000000000e-01,	 3.0764130000000001e-01,	 1.1586407736538133e-02,	 1.7360000000215259e+03,	 1.4876414571418585e-07,	 2.9999999996385418e+02,	 9.9999999953565703e+02,	 3.4760788072160670e+02,	 4.9941330340892334e+00 
-3.7855400000000000e-01,	 3.0762600000000001e-01,	 1.1586407736381137e-02,	 1.7360000000224109e+03,	 1.4980349198359887e-07,	 2.9999999996226381e+02,	 9.9999999951680581e+02,	 3.4760788072068533e+02,	 4.9941330341050163e+00 
-3.7405600000000000e-01,	 3.0761070000000001e-01,	 1.1586407736269779e-02,	 1.7360000000231039e+03,	 1.4976994327695601e-07,	 2.9999999996105896e+02,	 9.9999999950317874e+02,	 3.4760788071998735e+02,	 4.9941330341170378e+00 
-3.6955800000000000e-01,	 3.0759530000000002e-01,	 1.1586407736195287e-02,	 1.7360000000235798e+03,	 1.4873360558550643e-07,	 2.9999999996022700e+02,	 9.9999999949397613e+02,	 3.4760788071950532e+02,	 4.9941330341253325e+00 
-3.6506000000000000e-01,	 3.0757999999999996e-01,	 1.1586407736186712e-02,	 1.7360000000238269e+03,	 1.4676140031429618e-07,	 2.9999999995976350e+02,	 9.9999999949169103e+02,	 3.4760788071923679e+02,	 4.9941330341299013e+00 
-3.6056199999999999e-01,	 3.0756469999999997e-01,	 1.1586407736253237e-02,	 1.7360000000238642e+03,	 1.4406913129717449e-07,	 2.9999999995964595e+02,	 9.9999999949704090e+02,	 3.4760788071916869e+02,	 4.9941330341309875e+00 
-3.5606399999999999e-01,	 3.0754929999999997e-01,	 1.1586407736342300e-02,	 1.7360000000237198e+03,	 1.4082100171455471e-07,	 2.9999999995983717e+02,	 9.9999999950536505e+02,	 3.4760788071927948e+02,	 4.9941330341289802e+00 
-3.5156599999999999e-01,	 3.0753399999999997e-01,	 1.1586407736401570e-02,	 1.7360000000234445e+03,	 1.3716498296765633e-07,	 2.9999999996028646e+02,	 9.9999999951197822e+02,	 3.4760788071953976e+02,	 4.9941330341244488e+00 
-3.4706799999999999e-01,	 3.0751869999999998e-01,	 1.1586407736470010e-02,	 1.7360000000230903e+03,	 1.3326615691510677e-07,	 2.9999999996095517e+02,	 9.9999999952011422e+02,	 3.4760788071992721e+02,	 4.9941330341178629e+00 
-3.4256999999999999e-01,	 3.0750329999999998e-01,	 1.1586407736550319e-02,	 1.7360000000226346e+03,	 1.2917032740201682e-07,	 2.9999999996179844e+02,	 9.9999999952985638e+02,	 3.4760788072041572e+02,	 4.9941330341095336e+00 
-3.3807199999999998e-01,	 3.0748799999999998e-01,	 1.1586407736644285e-02,	 1.7360000000220866e+03,	 1.2489256582150540e-07,	 2.9999999996279331e+02,	 9.9999999954128270e+02,	 3.4760788072099211e+02,	 4.9941330340996757e+00 
-3.3357399999999998e-01,	 3.0747269999999999e-01,	 1.1586407736748863e-02,	 1.7360000000214607e+03,	 1.2048399653435713e-07,	 2.9999999996391648e+02,	 9.9999999955405258e+02,	 3.4760788072164280e+02,	 4.9941330340885264e+00 
-3.2907599999999998e-01,	 3.0745729999999999e-01,	 1.1586407736862342e-02,	 1.7360000000207701e+03,	 1.1596614655725299e-07,	 2.9999999996514475e+02,	 9.9999999956794079e+02,	 3.4760788072235442e+02,	 4.9941330340763166e+00 
-3.2457799999999998e-01,	 3.0744199999999999e-01,	 1.1586407736982895e-02,	 1.7360000000200275e+03,	 1.1138255911468651e-07,	 2.9999999996645681e+02,	 9.9999999958271906e+02,	 3.4760788072311453e+02,	 4.9941330340632595e+00 
-3.2007999999999998e-01,	 3.0742670000000000e-01,	 1.1586407737108879e-02,	 1.7360000000192447e+03,	 1.0677962770615245e-07,	 2.9999999996783373e+02,	 9.9999999959818228e+02,	 3.4760788072391227e+02,	 4.9941330340495460e+00 
-3.1558199999999997e-01,	 3.0741130000000000e-01,	 1.1586407737238898e-02,	 1.7360000000184320e+03,	 1.0217078243143385e-07,	 2.9999999996925720e+02,	 9.9999999961414892e+02,	 3.4760788072473696e+02,	 4.9941330340353600e+00 
-3.1108400000000003e-01,	 3.0739600000000000e-01,	 1.1586407737371711e-02,	 1.7360000000175978e+03,	 9.7555099336401164e-08,	 2.9999999997071370e+02,	 9.9999999963046673e+02,	 3.4760788072558080e+02,	 4.9941330340208365e+00 
-3.0658600000000003e-01,	 3.0738070000000001e-01,	 1.1586407737506070e-02,	 1.7360000000167504e+03,	 9.2972057065763613e-08,	 2.9999999997219038e+02,	 9.9999999964698509e+02,	 3.4760788072643629e+02,	 4.9941330340061079e+00 
-3.0208800000000002e-01,	 3.0736530000000001e-01,	 1.1586407737641000e-02,	 1.7360000000158982e+03,	 8.8451447421945197e-08,	 2.9999999997367314e+02,	 9.9999999966357325e+02,	 3.4760788072729531e+02,	 4.9941330339913144e+00 
-2.9759000000000002e-01,	 3.0735000000000001e-01,	 1.1586407737775632e-02,	 1.7360000000150485e+03,	 8.3995132352908185e-08,	 2.9999999997515158e+02,	 9.9999999968012116e+02,	 3.4760788072815183e+02,	 4.9941330339765644e+00 
-2.9309200000000002e-01,	 3.0733470000000002e-01,	 1.1586407737909189e-02,	 1.7360000000142068e+03,	 7.9633038706542860e-08,	 2.9999999997661672e+02,	 9.9999999969653209e+02,	 3.4760788072900067e+02,	 4.9941330339619467e+00 
-2.8859400000000002e-01,	 3.0731929999999996e-01,	 1.1586407738041055e-02,	 1.7360000000133746e+03,	 7.5379259702352060e-08,	 2.9999999997806287e+02,	 9.9999999971273371e+02,	 3.4760788072983848e+02,	 4.9941330339475156e+00 
-2.8409600000000002e-01,	 3.0730399999999997e-01,	 1.1586407738170311e-02,	 1.7360000000125576e+03,	 7.1223478620434338e-08,	 2.9999999997948584e+02,	 9.9999999972863282e+02,	 3.4760788073066288e+02,	 4.9941330339333216e+00 
-2.7959800000000001e-01,	 3.0728869999999997e-01,	 1.1586407738296303e-02,	 1.7360000000117634e+03,	 6.7163809300483364e-08,	 2.9999999998086980e+02,	 9.9999999974412003e+02,	 3.4760788073146466e+02,	 4.9941330339195176e+00 
-2.7510000000000001e-01,	 3.0727329999999997e-01,	 1.1586407738418902e-02,	 1.7360000000109933e+03,	 6.3232719843288460e-08,	 2.9999999998221409e+02,	 9.9999999975918240e+02,	 3.4760788073224347e+02,	 4.9941330339061132e+00 
-2.7060200000000001e-01,	 3.0725799999999998e-01,	 1.1586407738537753e-02,	 1.7360000000102491e+03,	 5.9437450850656802e-08,	 2.9999999998351626e+02,	 9.9999999977378070e+02,	 3.4760788073299790e+02,	 4.9941330338931333e+00 
-2.6610400000000001e-01,	 3.0724269999999998e-01,	 1.1586407738652552e-02,	 1.7360000000095310e+03,	 5.5791827241022387e-08,	 2.9999999998477296e+02,	 9.9999999978787775e+02,	 3.4760788073372595e+02,	 4.9941330338806074e+00 
-2.6160600000000001e-01,	 3.0722729999999998e-01,	 1.1586407738763091e-02,	 1.7360000000088426e+03,	 5.2281641354465732e-08,	 2.9999999998598139e+02,	 9.9999999980144628e+02,	 3.4760788073442603e+02,	 4.9941330338685681e+00 
-2.5710800000000000e-01,	 3.0721199999999999e-01,	 1.1586407738869185e-02,	 1.7360000000081845e+03,	 4.8910396306430421e-08,	 2.9999999998713918e+02,	 9.9999999981446217e+02,	 3.4760788073509678e+02,	 4.9941330338570387e+00 