TITLE = "Final State"
VARIABLES = "X", "Y", "rho", "u", "v", "T", "p", "c", "M"
ZONE I=76, J=50, DATAPACKING=POINT, STRANDID=5000, SOLUTIONTIME=0.000179
1.3187769999999999e-01,	 3.2831760000000001e-02,	 1.8662731783626143e+00,	 3.5701466890778789e+02,	 1.1364852836164549e+02,	 3.7394749539898919e+02,	 2.0077784141792942e+05,	 3.8809165196783613e+02,	 9.6540889964166354e-01 
1.3316269999999999e-01,	 3.2870940000000001e-02,	 1.7606777067737776e+00,	 3.3279636570161290e+02,	 9.5960367780472041e+01,	 3.6439242325528863e+02,	 1.8457766217997362e+05,	 3.8310132643391239e+02,	 9.0408206744327357e-01 
1.3445570000000001e-01,	 3.2910350000000005e-02,	 1.5438400017235114e+00,	 2.8422287516081269e+02,	 5.9586453391108947e+01,	 3.4099329916536487e+02,	 1.5145306677754814e+05,	 3.7059700819567365e+02,	 7.8360527439824579e-01 
1.3575670000000001e-01,	 3.2950020000000003e-02,	 1.3254200043280577e+00,	 2.3400814945144663e+02,	 2.5144124367101398e+01,	 3.1641382343981843e+02,	 1.2065321729423848e+05,	 3.5699054256952718e+02,	 6.5927555486998002e-01 
1.3706599999999999e-01,	 3.2989930000000001e-02,	 1.2018100529288160e+00,	 2.0472602383943894e+02,	 5.5526190444927428e+00,	 3.0294254835783056e+02,	 1.0474324980036356e+05,	 3.4930847584653475e+02,	 5.8630501051340722e-01 
1.3838360000000000e-01,	 3.3030100000000000e-02,	 1.1610198615556264e+00,	 1.9511336553494976e+02,	 -1.0555342277351774e+00,	 2.9868446322656894e+02,	 9.9765921675996069e+04,	 3.4684489179044203e+02,	 5.6254604082038318e-01 
1.3970969999999999e-01,	 3.3070520000000006e-02,	 1.1531670727919474e+00,	 1.9338828033694568e+02,	 -2.2736916977997819e+00,	 2.9787914730475336e+02,	 9.8823964549948316e+04,	 3.4637699292300709e+02,	 5.5835592396204836e-01 
1.4104439999999999e-01,	 3.3111210000000002e-02,	 1.1530227981936139e+00,	 1.9346994262929255e+02,	 -2.2127511966931199e+00,	 2.9786698471407612e+02,	 9.8807565984795699e+04,	 3.4636992145689885e+02,	 5.5860103331779298e-01 
1.4238780000000001e-01,	 3.3152160000000000e-02,	 1.1542340823491368e+00,	 1.9389496908270380e+02,	 -1.9651072979197739e+00,	 2.9799114704000135e+02,	 9.8952596253208452e+04,	 3.4644210403599254e+02,	 5.5970369841591816e-01 
1.4374000000000001e-01,	 3.3193380000000001e-02,	 1.1557246741550260e+00,	 1.9438281813154850e+02,	 -1.7086618154907502e+00,	 2.9814506484153952e+02,	 9.9131561634301528e+04,	 3.4653156428283143e+02,	 5.6095994637430791e-01 
1.4510120000000001e-01,	 3.3234880000000001e-02,	 1.1573788634292508e+00,	 1.9491708679702688e+02,	 -1.4674950875973720e+00,	 2.9831514128449226e+02,	 9.9330079088004728e+04,	 3.4663038941874265e+02,	 5.6233560853285403e-01 
1.4647160000000001e-01,	 3.3276660000000000e-02,	 1.1591542880267645e+00,	 1.9548404960720939e+02,	 -1.2433204664099029e+00,	 2.9849741879287319e+02,	 9.9543237992729075e+04,	 3.4673627287277708e+02,	 5.6379449960609140e-01 
1.4785110000000001e-01,	 3.3318710000000001e-02,	 1.1609953506903445e+00,	 1.9606694907987907e+02,	 -1.0375434454998309e+00,	 2.9868617000163289e+02,	 9.9764385549399696e+04,	 3.4684588277832313e+02,	 5.6529341711274150e-01 
1.4924009999999999e-01,	 3.3361050000000003e-02,	 1.1628443045979080e+00,	 1.9664953081082061e+02,	 -8.5150616293020609e-01,	 2.9887468991417416e+02,	 9.9986334199645382e+04,	 3.4695532380334168e+02,	 5.6679163238358454e-01 
1.5063850000000001e-01,	 3.3403690000000000e-02,	 1.1646404117314320e+00,	 1.9721177865937406e+02,	 -6.8715586790895566e-01,	 2.9905740082956993e+02,	 1.0020199019216880e+05,	 3.4706135961280057e+02,	 5.6823662542926090e-01 
1.5204660000000000e-01,	 3.3446610000000002e-02,	 1.1663211324603815e+00,	 1.9773521746215988e+02,	 -5.4516160228528299e-01,	 2.9922883556875229e+02,	 1.0040411781952911e+05,	 3.4716082187168257e+02,	 5.6958031124496522e-01 
1.5346450000000000e-01,	 3.3489830000000005e-02,	 1.1678498691292396e+00,	 1.9821097936506516e+02,	 -4.2527019585276948e-01,	 2.9938385949131089e+02,	 1.0058780626300085e+05,	 3.4725073844599166e+02,	 5.7080205637383219e-01 
1.5489220000000001e-01,	 3.3533360000000005e-02,	 1.1691940478919283e+00,	 1.9862785155086891e+02,	 -3.2754016287215182e-01,	 2.9952011308910033e+02,	 1.0074941295880605e+05,	 3.4732974868459695e+02,	 5.7187189511445446e-01 
1.5633010000000000e-01,	 3.3577190000000000e-02,	 1.1703325032514447e+00,	 1.9897988612835246e+02,	 -2.5063593010953389e-01,	 2.9963610839269154e+02,	 1.0088656888689098e+05,	 3.4739699745686823e+02,	 5.7277421922464522e-01 
1.5777810000000000e-01,	 3.3621330000000005e-02,	 1.1712694521387510e+00,	 1.9926949184055675e+02,	 -1.9256451151995913e-01,	 2.9973135240845852e+02,	 1.0099943105358027e+05,	 3.4745220585006723e+02,	 5.7351653415345849e-01 
1.5923640000000000e-01,	 3.3665790000000001e-02,	 1.1720140675716795e+00,	 1.9949913768484683e+02,	 -1.5125622092971142e-01,	 2.9980712334502982e+02,	 1.0108918829364335e+05,	 3.4749612036755525e+02,	 5.7410481248979339e-01 
1.6070519999999999e-01,	 3.3710570000000002e-02,	 1.1725845503102508e+00,	 1.9967402596230085e+02,	 -1.2451590928916911e-01,	 2.9986536470897886e+02,	 1.0115804130304439e+05,	 3.4752987150892722e+02,	 5.7455223609742234e-01 
1.6218460000000001e-01,	 3.3755670000000002e-02,	 1.1730067016936374e+00,	 1.9980123013784473e+02,	 -1.0963519089196762e-01,	 2.9990858534329567e+02,	 1.0120904551309726e+05,	 3.4755491594896523e+02,	 5.7487680665337915e-01 
1.6367470000000001e-01,	 3.3801090000000006e-02,	 1.1733088535492930e+00,	 1.9989006762677909e+02,	 -1.0290020410510733e-01,	 2.9993919938163799e+02,	 1.0124544956534314e+05,	 3.4757265433413994e+02,	 5.7510305146244500e-01 
1.6517570000000001e-01,	 3.3846850000000005e-02,	 1.1735208741503795e+00,	 1.9994968327719457e+02,	 -1.0288622152713309e-01,	 2.9995974594824372e+02,	 1.0127068175007500e+05,	 3.4758455891748599e+02,	 5.7525486854338492e-01 
1.6668780000000000e-01,	 3.3892950000000005e-02,	 1.1736638977258638e+00,	 1.9998536482195266e+02,	 -1.0526495308386252e-01,	 2.9997309310398970e+02,	 1.0128753091549792e+05,	 3.4759229197783628e+02,	 5.7534472754794475e-01 
1.6821100000000000e-01,	 3.3939380000000005e-02,	 1.1737569216432342e+00,	 2.0000392202878774e+02,	 -1.0883711512194008e-01,	 2.9998114676458283e+02,	 1.0129827848366246e+05,	 3.4759695801559019e+02,	 5.7539039692352101e-01 
1.6974560000000000e-01,	 3.3986160000000001e-02,	 1.1738178645513426e+00,	 2.0001207705784734e+02,	 -1.1163237380653046e-01,	 2.9998545537859684e+02,	 1.0130499303289560e+05,	 3.4759945426537627e+02,	 5.7540973024005626e-01 
1.7129159999999999e-01,	 3.4033290000000001e-02,	 1.1738568288573981e+00,	 2.0001233255874484e+02,	 -1.1259868283555793e-01,	 2.9998744038225090e+02,	 1.0130902615961446e+05,	 3.4760060429620791e+02,	 5.7540856310625355e-01 
1.7284930000000001e-01,	 3.4080780000000005e-02,	 1.1738816436350850e+00,	 2.0000856703143376e+02,	 -1.1143725403906056e-01,	 2.9998835202328928e+02,	 1.0131147566208699e+05,	 3.4760113246287830e+02,	 5.7539685402813023e-01 
1.7441870000000001e-01,	 3.4128620000000005e-02,	 1.1738951975621548e+00,	 2.0000249902556246e+02,	 -1.0809059135769261e-01,	 2.9998861161849345e+02,	 1.0131273310037343e+05,	 3.4760128286133011e+02,	 5.7537914298757920e-01 
1.7599999999999999e-01,	 3.4176830000000005e-02,	 1.1739044546933015e+00,	 1.9999587615539366e+02,	 -1.0299373957685262e-01,	 2.9998879755660789e+02,	 1.0131359483064918e+05,	 3.4760139058594797e+02,	 5.7535990387749525e-01 
1.7759340000000001e-01,	 3.4225400000000003e-02,	 1.1739073932913953e+00,	 1.9998893917963625e+02,	 -9.6479411416554764e-02,	 2.9998895474054422e+02,	 1.0131390153079802e+05,	 3.4760148165159467e+02,	 5.7533978710730993e-01 
1.7919900000000000e-01,	 3.4274350000000002e-02,	 1.1739098708052695e+00,	 1.9998442082403216e+02,	 -8.9389026301285826e-02,	 2.9998893318948279e+02,	 1.0131410807390435e+05,	 3.4760146916583324e+02,	 5.7532679962918698e-01 
1.8081700000000001e-01,	 3.4323680000000002e-02,	 1.1739097540641670e+00,	 1.9997927349043874e+02,	 -8.2265551261079220e-02,	 2.9998946602076671e+02,	 1.0131427794962307e+05,	 3.4760177786531244e+02,	 5.7531147176333253e-01 
1.8244759999999999e-01,	 3.4373380000000002e-02,	 1.1739091838253968e+00,	 1.9997550802337008e+02,	 -7.5143262820242945e-02,	 2.9998971777191355e+02,	 1.0131431375806397e+05,	 3.4760192371898029e+02,	 5.7530038960038699e-01 
1.8409080000000000e-01,	 3.4423480000000006e-02,	 1.1739098113100095e+00,	 1.9997417513867623e+02,	 -6.8599106249652458e-02,	 2.9998996604394199e+02,	 1.0131445176111971e+05,	 3.4760206755693827e+02,	 5.7529631026153849e-01 
1.8574679999999999e-01,	 3.4473960000000005e-02,	 1.1739081101117115e+00,	 1.9997186573911293e+02,	 -6.2633873909047080e-02,	 2.9999040002205606e+02,	 1.0131445150449951e+05,	 3.4760231898473961e+02,	 5.7528924470948950e-01 
1.8741590000000000e-01,	 3.4524840000000001e-02,	 1.1739075876846123e+00,	 1.9997104347856015e+02,	 -5.7226143581455488e-02,	 2.9999070058588194e+02,	 1.0131450792435677e+05,	 3.4760249311807303e+02,	 5.7528658633325291e-01 
1.8909809999999999e-01,	 3.4576120000000002e-02,	 1.1739076943758699e+00,	 1.9997076060216841e+02,	 -5.2372878699455644e-02,	 2.9999095751432776e+02,	 1.0131460390367784e+05,	 3.4760264197093585e+02,	 5.7528552236144170e-01 
1.9079370000000001e-01,	 3.4627810000000002e-02,	 1.1739080436517713e+00,	 1.9997101310000286e+02,	 -4.7965818211476302e-02,	 2.9999118358578835e+02,	 1.0131471039820902e+05,	 3.4760277294658727e+02,	 5.7528602881244406e-01 
1.9250270000000000e-01,	 3.4679910000000001e-02,	 1.1739093863916419e+00,	 1.9997196738250824e+02,	 -4.3982389392405508e-02,	 2.9999130022369962e+02,	 1.0131486567568989e+05,	 3.4760284052133557e+02,	 5.7528865966513432e-01 
1.9422539999999999e-01,	 3.4732430000000002e-02,	 1.1739111672542362e+00,	 1.9997203679355562e+02,	 -4.0350289039494211e-02,	 2.9999171385755290e+02,	 1.0131515906909463e+05,	 3.4760308016203959e+02,	 5.7528846053743199e-01 
1.9596189999999999e-01,	 3.4785360000000001e-02,	 1.1739117741994471e+00,	 1.9997281632758398e+02,	 -3.6861496298616098e-02,	 2.9999184403353797e+02,	 1.0131525541579764e+05,	 3.4760315558007011e+02,	 5.7529057637943948e-01 
1.9771230000000001e-01,	 3.4838730000000005e-02,	 1.1739163153676528e+00,	 1.9997432597673060e+02,	 -3.3752876282303501e-02,	 2.9999211087692328e+02,	 1.0131573746489783e+05,	 3.4760331017690999e+02,	 5.7529466196240342e-01 
1.9947699999999999e-01,	 3.4892520000000003e-02,	 1.1739167929672210e+00,	 1.9997416301066471e+02,	 -3.0733087689882775e-02,	 2.9999256539216697e+02,	 1.0131593218708005e+05,	 3.4760357350207363e+02,	 5.7529375592303433e-01 
2.0125589999999999e-01,	 3.4946750000000006e-02,	 1.1739204925112094e+00,	 1.9997608233412481e+02,	 -2.7878310854537080e-02,	 2.9999257959985806e+02,	 1.0131625627786438e+05,	 3.4760358173335118e+02,	 5.7529926268354914e-01 
2.0304929999999999e-01,	 3.5001430000000000e-02,	 1.1739241626160104e+00,	 1.9997661891195639e+02,	 -2.5378043286970173e-02,	 2.9999304071169229e+02,	 1.0131672876095759e+05,	 3.4760384888006496e+02,	 5.7530036323405620e-01 
2.0485740000000000e-01,	 3.5056540000000004e-02,	 1.1739243126937211e+00,	 1.9997696648291213e+02,	 -2.2867505680865305e-02,	 2.9999329593532775e+02,	 1.0131682791032505e+05,	 3.4760399674466026e+02,	 5.7530111754516733e-01 
2.0668030000000001e-01,	 3.5112120000000004e-02,	 1.1739290697410651e+00,	 1.9997889562626875e+02,	 -2.0642137795016911e-02,	 2.9999339708555829e+02,	 1.0131727263416075e+05,	 3.4760405534633890e+02,	 5.7530656968997318e-01 
2.0851829999999999e-01,	 3.5168150000000002e-02,	 1.1739300578889880e+00,	 1.9997896625072786e+02,	 -1.8603477861625008e-02,	 2.9999371430741303e+02,	 1.0131746505334061e+05,	 3.4760423912967394e+02,	 5.7530646811657571e-01 
2.1037139999999999e-01,	 3.5224640000000002e-02,	 1.1739319586276982e+00,	 1.9997979878669122e+02,	 -1.6654785439730469e-02,	 2.9999383384516989e+02,	 1.0131766947069888e+05,	 3.4760430838416977e+02,	 5.7530874806994547e-01 
2.1223980000000001e-01,	 3.5281600000000003e-02,	 1.1739342594132549e+00,	 1.9998050934851892e+02,	 -1.4936819404238107e-02,	 2.9999399890037932e+02,	 1.0131792378749975e+05,	 3.4760440400929195e+02,	 5.7531063358161294e-01 
2.1412380000000000e-01,	 3.5339030000000000e-02,	 1.1739353471373291e+00,	 1.9998023115526249e+02,	 -1.3327511653216615e-02,	 2.9999432600109202e+02,	 1.0131812813780381e+05,	 3.4760459351577828e+02,	 5.7530951929231455e-01 
2.1602360000000001e-01,	 3.5396940000000002e-02,	 1.1739371209787146e+00,	 1.9998053764375720e+02,	 -1.1746250650827347e-02,	 2.9999452994119508e+02,	 1.0131835010916475e+05,	 3.4760471166885389e+02,	 5.7531020517132259e-01 
2.1793920000000000e-01,	 3.5455340000000002e-02,	 1.1739409129872995e+00,	 1.9998126023433991e+02,	 -1.0271271149903952e-02,	 2.9999479528092871e+02,	 1.0131876699851606e+05,	 3.4760486539385886e+02,	 5.7531202928221514e-01 
2.1987090000000001e-01,	 3.5514230000000001e-02,	 1.1739452501684968e+00,	 1.9998138553547716e+02,	 -8.8789189491166928e-03,	 2.9999517741210161e+02,	 1.0131927038515666e+05,	 3.4760508678205412e+02,	 5.7531202314645757e-01 
2.2181890000000001e-01,	 3.5573620000000000e-02,	 1.1739524378569004e+00,	 1.9998074965573346e+02,	 -7.5378494717290839e-03,	 2.9999597797551252e+02,	 1.0132016111139815e+05,	 3.4760555058905703e+02,	 5.7530942604024882e-01 
2.2378339999999999e-01,	 3.5633500000000005e-02,	 1.1739601016891918e+00,	 1.9997900047949489e+02,	 -6.0332798028470474e-03,	 2.9999713101063833e+02,	 1.0132121197955868e+05,	 3.4760621859972065e+02,	 5.7530328823256072e-01 
2.2576450000000001e-01,	 3.5693890000000006e-02,	 1.1739721732908019e+00,	 1.9997793807338394e+02,	 -4.4129924553742072e-03,	 2.9999836424610044e+02,	 1.0132267036369261e+05,	 3.4760693307301182e+02,	 5.7529904928585507e-01 
2.2776240000000000e-01,	 3.5754800000000003e-02,	 1.1739878583572390e+00,	 1.9997663399035781e+02,	 -2.7271912049327413e-03,	 2.9999988838883087e+02,	 1.0132453888051552e+05,	 3.4760781608100507e+02,	 5.7529383620750396e-01 
2.2977729999999999e-01,	 3.5816230000000004e-02,	 1.1740063523247617e+00,	 1.9997387291667729e+02,	 -9.0483686701005577e-04,	 3.0000187577031807e+02,	 1.0132680630364893e+05,	 3.4760896746175735e+02,	 5.7528398757642740e-01 
2.3180950000000000e-01,	 3.5878180000000003e-02,	 1.1740263931189674e+00,	 1.9996992010281619e+02,	 1.2296006224371129e-03,	 3.0000414092927917e+02,	 1.0132930107523900e+05,	 3.4761027976702093e+02,	 5.7527044436264230e-01 
2.3385909999999999e-01,	 3.5940660000000006e-02,	 1.1740477914987548e+00,	 1.9996618028817798e+02,	 3.6066415822139852e-03,	 3.0000635274268632e+02,	 1.0133189502767971e+05,	 3.4761156116210066e+02,	 5.7525756523228377e-01 
2.3592630000000001e-01,	 3.6003680000000003e-02,	 1.1740691414660021e+00,	 1.9996240260142244e+02,	 6.2071526952922410e-03,	 3.0000849995969776e+02,	 1.0133446300999084e+05,	 3.4761280512929523e+02,	 5.7524463928590319e-01 
2.3801130000000001e-01,	 3.6067240000000000e-02,	 1.1740882480981742e+00,	 1.9995859646807605e+02,	 9.1402088674045201e-03,	 3.0001040719328097e+02,	 1.0133675633298683e+05,	 3.4761391006092600e+02,	 5.7523186181453811e-01 
2.4011430000000000e-01,	 3.6131350000000000e-02,	 1.1741049071989413e+00,	 1.9995450558222223e+02,	 1.2439484260244674e-02,	 3.0001218001676489e+02,	 1.0133879302532357e+05,	 3.4761493712061781e+02,	 5.7521839431134858e-01 
2.4223560000000000e-01,	 3.6196010000000001e-02,	 1.1741171548837499e+00,	 1.9995076903429697e+02,	 1.6326963027668992e-02,	 3.0001356693707714e+02,	 1.0134031862372861e+05,	 3.4761574061076266e+02,	 5.7520631646188070e-01 
2.4437519999999999e-01,	 3.6261240000000000e-02,	 1.1741291296624476e+00,	 1.9994855745597388e+02,	 2.0784165703045865e-02,	 3.0001445540785244e+02,	 1.0134165230585923e+05,	 3.4761625533114858e+02,	 5.7519910380982964e-01 
2.4653340000000001e-01,	 3.6327040000000005e-02,	 1.1741392037441800e+00,	 1.9994379105916266e+02,	 2.6194713438610941e-02,	 3.0001577567943008e+02,	 1.0134296779922754e+05,	 3.4761702020655480e+02,	 5.7518412837278621e-01 
2.4871050000000000e-01,	 3.6393400000000006e-02,	 1.1741481157872722e+00,	 1.9993690446759678e+02,	 3.3449160329798708e-02,	 3.0001731587479799e+02,	 1.0134425729035967e+05,	 3.4761791248869559e+02,	 5.7516284426826592e-01 
2.5090659999999998e-01,	 3.6460350000000002e-02,	 1.1741626173263571e+00,	 1.9992845450668028e+02,	 4.3564180173112477e-02,	 3.0001916218570739e+02,	 1.0134613264356894e+05,	 3.4761898210988539e+02,	 5.7513677198954993e-01 
2.5312200000000001e-01,	 3.6527890000000000e-02,	 1.1741815548631560e+00,	 1.9991332154895957e+02,	 5.9219765109802522e-02,	 3.0002222867594799e+02,	 1.0134880308305022e+05,	 3.4762075860890047e+02,	 5.7509031140781142e-01 
2.5535679999999999e-01,	 3.6596020000000000e-02,	 1.1742095308602156e+00,	 1.9988453465060465e+02,	 8.7481690936989417e-02,	 3.0002787035251094e+02,	 1.0135312364317373e+05,	 3.4762402695784226e+02,	 5.7500212382762683e-01 
2.5761129999999999e-01,	 3.6664740000000001e-02,	 1.1741874710192532e+00,	 1.9984089691454059e+02,	 1.0253083621586978e-01,	 3.0003211426253137e+02,	 1.0135265314326649e+05,	 3.4762648552922872e+02,	 5.7487254721876180e-01 
2.5988570000000000e-01,	 3.6734080000000002e-02,	 1.1740052788901512e+00,	 1.9980725784295774e+02,	 7.7640031306366553e-01,	 3.0002328395960797e+02,	 1.0133394435005549e+05,	 3.4762136996057512e+02,	 5.7478850137218840e-01 
1.3185040000000001e-01,	 3.3184110000000003e-02,	 1.8465170638599488e+00,	 3.5516143048356821e+02,	 1.1052538683875542e+02,	 3.7186274511429565e+02,	 1.9754495084381304e+05,	 3.8700833814766082e+02,	 9.6112062384096386e-01 
1.3313520000000001e-01,	 3.3224090000000005e-02,	 1.7317228344965758e+00,	 3.2885968222798255e+02,	 9.1926026585951291e+01,	 3.6114670560985076e+02,	 1.7992519358710921e+05,	 3.8139132926204940e+02,	 8.9531684522446786e-01 
1.3442799999999999e-01,	 3.3264320000000000e-02,	 1.5106081390019601e+00,	 2.7934641745336017e+02,	 5.4369435838644222e+01,	 3.3713708477911956e+02,	 1.4651709014911021e+05,	 3.6849555213906808e+02,	 7.7229757874770522e-01 
1.3572890000000001e-01,	 3.3304810000000004e-02,	 1.3032859246409505e+00,	 2.3076994637493203e+02,	 2.0704159558281635e+01,	 3.1382968319053441e+02,	 1.1766943301051081e+05,	 3.5552978955257612e+02,	 6.5169461734578360e-01 
1.3703799999999999e-01,	 3.3345550000000002e-02,	 1.1927547702833667e+00,	 2.0328780120684837e+02,	 3.6256023176998076e+00,	 3.0192291581308251e+02,	 1.0360415588069834e+05,	 3.4872013576320586e+02,	 5.8304671504661587e-01 
1.3835549999999999e-01,	 3.3386540000000006e-02,	 1.1588023399006011e+00,	 1.9474035406681176e+02,	 -1.5146072020239563e+00,	 2.9844484882148060e+02,	 9.9495488417887027e+04,	 3.4670573874178865e+02,	 5.6170470286435847e-01 
1.3968140000000001e-01,	 3.3427810000000002e-02,	 1.1529378980653795e+00,	 1.9336619353459372e+02,	 -2.3505504425626529e+00,	 2.9785221297943178e+02,	 9.8795390845661881e+04,	 3.4636133281118367e+02,	 5.5832005850125199e-01 
1.4101580000000000e-01,	 3.3469340000000000e-02,	 1.1531311549168104e+00,	 1.9350826092797686e+02,	 -2.2248090210415565e+00,	 2.9787640796595292e+02,	 9.8819977693612338e+04,	 3.4637540025341895e+02,	 5.5870321603236750e-01 
1.4235900000000001e-01,	 3.3511140000000002e-02,	 1.1543883445413832e+00,	 1.9393922079410711e+02,	 -1.9680145698973410e+00,	 2.9800483646891360e+02,	 9.8970367560811719e+04,	 3.4645006155442258e+02,	 5.5981865023672883e-01 
1.4371110000000001e-01,	 3.3553210000000000e-02,	 1.1558677978288214e+00,	 1.9442408588979868e+02,	 -1.7130756494211388e+00,	 2.9815770509696222e+02,	 9.9148041312468791e+04,	 3.4653891003759225e+02,	 5.6106724840556599e-01 
1.4507210000000001e-01,	 3.3595570000000005e-02,	 1.1575091451528676e+00,	 1.9495475203665825e+02,	 -1.4727967094456220e+00,	 2.9832666311086933e+02,	 9.9345097153815674e+04,	 3.4663708330726632e+02,	 5.6243352055764639e-01 
1.4644219999999999e-01,	 3.3638210000000002e-02,	 1.1592722423717121e+00,	 1.9551873195523200e+02,	 -1.2487080630341354e+00,	 2.9850768739256512e+02,	 9.9556792142024322e+04,	 3.4674223685293242e+02,	 5.6388492274426294e-01 
1.4782160000000000e-01,	 3.3681130000000004e-02,	 1.1611018451190833e+00,	 1.9609898312303591e+02,	 -1.0426370043406550e+00,	 2.9869513147330412e+02,	 9.9776530122962184e+04,	 3.4685108594229780e+02,	 5.6537737041985525e-01 
1.4921029999999999e-01,	 3.3724350000000000e-02,	 1.1629375392586521e+00,	 1.9667742038900326e+02,	 -8.5623798430187725e-01,	 2.9888261672847074e+02,	 9.9997002985306972e+04,	 3.4695992478207688e+02,	 5.6686455741511821e-01 
1.5060850000000001e-01,	 3.3767860000000004e-02,	 1.1647199775551413e+00,	 1.9723595700680534e+02,	 -6.9115067002493524e-01,	 2.9906413933944702e+02,	 1.0021109374011189e+05,	 3.4706526967023325e+02,	 5.6829992856769407e-01 
1.5201640000000000e-01,	 3.3811670000000002e-02,	 1.1663904759717254e+00,	 1.9775718443209720e+02,	 -5.4834361715750202e-01,	 2.9923422581710133e+02,	 1.0041189610396280e+05,	 3.4716394870037914e+02,	 5.6963848175480647e-01 
1.5343399999999999e-01,	 3.3855790000000004e-02,	 1.1679068935692798e+00,	 1.9822903366696232e+02,	 -4.2787543924381760e-01,	 2.9938827819410960e+02,	 1.0059420250214063e+05,	 3.4725330102927654e+02,	 5.7084985185553894e-01 
1.5486159999999999e-01,	 3.3900220000000002e-02,	 1.1692396648927821e+00,	 1.9864266949770814e+02,	 -3.2938817002537069e-01,	 2.9952352957592598e+02,	 1.0075449302088139e+05,	 3.4733172959351560e+02,	 5.7191130457562700e-01 
1.5629920000000000e-01,	 3.3944950000000002e-02,	 1.1703700937088808e+00,	 1.9899277691513075e+02,	 -2.5174281973075513e-01,	 2.9963850922638278e+02,	 1.0089061768920206e+05,	 3.4739838921293779e+02,	 5.7280903519432791e-01 
1.5774690000000000e-01,	 3.3990010000000001e-02,	 1.1712984417559744e+00,	 1.9927971035896647e+02,	 -1.9319704948628955e-01,	 2.9973301823804002e+02,	 1.0100249219240416e+05,	 3.4745317137361661e+02,	 5.7354435195148734e-01 
1.5920500000000001e-01,	 3.4035380000000004e-02,	 1.1720356597062671e+00,	 1.9950691078678469e+02,	 -1.5161059669828134e-01,	 2.9980819481519825e+02,	 1.0109141195582190e+05,	 3.4749674131910206e+02,	 5.7412615622208019e-01 
1.6067360000000000e-01,	 3.4081080000000000e-02,	 1.1726007454532663e+00,	 1.9968008939088847e+02,	 -1.2439886569647016e-01,	 2.9986595677604009e+02,	 1.0115963818014054e+05,	 3.4753021459771367e+02,	 5.7456911587299730e-01 
1.6215270000000001e-01,	 3.4127110000000002e-02,	 1.1730191957274583e+00,	 1.9980647773514855e+02,	 -1.0878253956330663e-01,	 2.9990874512996498e+02,	 1.0121017744312159e+05,	 3.4755500853490270e+02,	 5.7489175077687593e-01 
1.6364260000000000e-01,	 3.4173480000000006e-02,	 1.1733186397743809e+00,	 1.9989447262977654e+02,	 -1.0164963793773989e-01,	 2.9993914071885007e+02,	 1.0124627422196939e+05,	 3.4757262034461485e+02,	 5.7511577947894910e-01 
1.6514340000000000e-01,	 3.4220180000000003e-02,	 1.1735270512542271e+00,	 1.9995266618721996e+02,	 -1.0089246241571097e-01,	 2.9995966981588663e+02,	 1.0127118910868571e+05,	 3.4758451480751154e+02,	 5.7526352044824725e-01 
1.6665520000000000e-01,	 3.4267230000000003e-02,	 1.1736683250944224e+00,	 1.9998800953982877e+02,	 -1.0288284177024469e-01,	 2.9997292151469526e+02,	 1.0128785506040584e+05,	 3.4759219256371210e+02,	 5.7535249721397141e-01 
1.6817820000000000e-01,	 3.4314620000000004e-02,	 1.1737607740844511e+00,	 2.0000662370557495e+02,	 -1.0615926612153481e-01,	 2.9998091799709380e+02,	 1.0129853370841919e+05,	 3.4759682547576347e+02,	 5.7539838462379755e-01 
1.6971240000000001e-01,	 3.4362370000000003e-02,	 1.1738205673389985e+00,	 2.0001443564546531e+02,	 -1.0880547267346856e-01,	 2.9998529994725948e+02,	 1.0130517380462376e+05,	 3.4759936421458536e+02,	 5.7541666018821680e-01 
1.7125820000000000e-01,	 3.4410470000000005e-02,	 1.1738584245445101e+00,	 2.0001413667539410e+02,	 -1.0973785027262334e-01,	 2.9998739536241294e+02,	 1.0130914867074584e+05,	 3.4760057821357685e+02,	 5.7541379190790176e-01 
1.7281560000000001e-01,	 3.4458940000000000e-02,	 1.1738821712846332e+00,	 2.0001052284291129e+02,	 -1.0866352206030110e-01,	 2.9998832122400040e+02,	 1.0131151079923075e+05,	 3.4760111461907218e+02,	 5.7540250577143703e-01 
1.7438470000000000e-01,	 3.4507770000000000e-02,	 1.1738959179280422e+00,	 2.0000437755918801e+02,	 -1.0553252706225838e-01,	 2.9998862739045353e+02,	 1.0131280059791230e+05,	 3.4760129199893282e+02,	 5.7538452820818742e-01 
1.7596580000000001e-01,	 3.4556970000000006e-02,	 1.1739045287653851e+00,	 1.9999771522228349e+02,	 -1.0067548019163634e-01,	 2.9998879075087962e+02,	 1.0131359892496392e+05,	 3.4760138664299973e+02,	 5.7536519774260186e-01 
1.7755889999999999e-01,	 3.4606550000000000e-02,	 1.1739078629688344e+00,	 1.9999109499442977e+02,	 -9.4578677883724760e-02,	 2.9998894055630456e+02,	 1.0131393727585849e+05,	 3.4760147343385415e+02,	 5.7534600006894621e-01 
1.7916430000000000e-01,	 3.4656510000000001e-02,	 1.1739099547384102e+00,	 1.9998571422931889e+02,	 -8.7800032715399615e-02,	 2.9998901809259553e+02,	 1.0131414399174457e+05,	 3.4760151835505553e+02,	 5.7533043713156273e-01 
1.8078200000000000e-01,	 3.4706850000000004e-02,	 1.1739105990152328e+00,	 1.9998116354103846e+02,	 -8.0910629306304299e-02,	 2.9998938405490577e+02,	 1.0131432319109039e+05,	 3.4760173037784347e+02,	 5.7531698617128402e-01 
1.8241220000000000e-01,	 3.4757580000000003e-02,	 1.1739102004037272e+00,	 1.9997749133534279e+02,	 -7.4155573257686652e-02,	 2.9998967321693709e+02,	 1.0131438644654251e+05,	 3.4760189790576874e+02,	 5.7530613696109378e-01 
1.8405520000000000e-01,	 3.4808710000000000e-02,	 1.1739100263559064e+00,	 1.9997536340848126e+02,	 -6.7798866249938167e-02,	 2.9998998672438887e+02,	 1.0131447730501484e+05,	 3.4760207953828228e+02,	 5.7529970812383635e-01 
1.8571090000000001e-01,	 3.4860230000000006e-02,	 1.1739088800176658e+00,	 1.9997356496624261e+02,	 -6.2005711998030802e-02,	 2.9999036964648820e+02,	 1.0131450769282256e+05,	 3.4760230138647961e+02,	 5.7529416169470160e-01 
1.8737970000000001e-01,	 3.4912160000000005e-02,	 1.1739085156314275e+00,	 1.9997261850987874e+02,	 -5.6751497033771831e-02,	 2.9999067375528830e+02,	 1.0131457894975088e+05,	 3.4760247757362208e+02,	 5.7529114279819249e-01 
1.8906160000000000e-01,	 3.4964500000000003e-02,	 1.1739087178281165e+00,	 1.9997222962627902e+02,	 -5.1983338814450421e-02,	 2.9999094518400528e+02,	 1.0131468806889193e+05,	 3.4760263482729931e+02,	 5.7528976005098120e-01 
1.9075690000000001e-01,	 3.5017260000000001e-02,	 1.1739091741966985e+00,	 1.9997226088234538e+02,	 -4.7652104787808645e-02,	 2.9999119374337761e+02,	 1.0131481140092586e+05,	 3.4760277883143715e+02,	 5.7528960853593436e-01 
1.9246559999999999e-01,	 3.5070430000000000e-02,	 1.1739103432558307e+00,	 1.9997270273039555e+02,	 -4.3670250591055178e-02,	 2.9999139053894106e+02,	 1.0131497876018712e+05,	 3.4760289284590647e+02,	 5.7529068835287811e-01 
1.9418800000000000e-01,	 3.5124030000000001e-02,	 1.1739123378041294e+00,	 1.9997311850480963e+02,	 -4.0023224958710829e-02,	 2.9999171882908206e+02,	 1.0131526177317572e+05,	 3.4760308304231722e+02,	 5.7529156749639510e-01 
1.9592419999999999e-01,	 3.5178060000000004e-02,	 1.1739136227523421e+00,	 1.9997380568444339e+02,	 -3.6621574055954155e-02,	 2.9999192310033652e+02,	 1.0131544165942557e+05,	 3.4760320138776024e+02,	 5.7529334666470999e-01 
1.9767440000000000e-01,	 3.5232530000000005e-02,	 1.1739170971800961e+00,	 1.9997483600930195e+02,	 -3.3425169473684554e-02,	 2.9999221034916934e+02,	 1.0131583853439910e+05,	 3.4760336780655740e+02,	 5.7529603370829552e-01 
1.9943880000000000e-01,	 3.5287430000000002e-02,	 1.1739189317023491e+00,	 1.9997530700609775e+02,	 -3.0481629622646635e-02,	 2.9999256177390964e+02,	 1.0131611555052662e+05,	 3.4760357140582306e+02,	 5.7529705037391610e-01 
2.0121739999999999e-01,	 3.5342780000000004e-02,	 1.1739217871214576e+00,	 1.9997661715293447e+02,	 -2.7659428728331954e-02,	 2.9999273309695974e+02,	 1.0131641985086950e+05,	 3.4760367066244334e+02,	 5.7530065400248509e-01 
2.0301060000000001e-01,	 3.5398580000000006e-02,	 1.1739251296371016e+00,	 1.9997742546998592e+02,	 -2.5074470865804565e-02,	 2.9999309513906826e+02,	 1.0131683060249177e+05,	 3.4760388041273728e+02,	 5.7530263127251979e-01 
2.0481840000000001e-01,	 3.5454830000000000e-02,	 1.1739264627912760e+00,	 1.9997791508276993e+02,	 -2.2695283199991315e-02,	 2.9999333940758459e+02,	 1.0131702815878294e+05,	 3.4760402193043922e+02,	 5.7530380477191490e-01 
2.0664099999999999e-01,	 3.5511550000000003e-02,	 1.1739297110087754e+00,	 1.9997901325347112e+02,	 -2.0456668030011508e-02,	 2.9999352346788817e+02,	 1.0131737066283321e+05,	 3.4760412856629341e+02,	 5.7530678684568626e-01 
2.0847869999999999e-01,	 3.5568740000000001e-02,	 1.1739313111874139e+00,	 1.9997941432141940e+02,	 -1.8439446594026021e-02,	 2.9999376904797788e+02,	 1.0131759170844743e+05,	 3.4760427084375760e+02,	 5.7530770460938130e-01 
2.1033150000000000e-01,	 3.5626390000000001e-02,	 1.1739330000379264e+00,	 1.9998006670235810e+02,	 -1.6555668970361832e-02,	 2.9999391952350436e+02,	 1.0131778828729859e+05,	 3.4760435802211680e+02,	 5.7530943664097511e-01 
2.1219969999999999e-01,	 3.5684530000000006e-02,	 1.1739348846592130e+00,	 1.9998062429100514e+02,	 -1.4814882835056531e-02,	 2.9999408715260830e+02,	 1.0131800755588655e+05,	 3.4760445513841671e+02,	 5.7531087960344918e-01 
2.1408340000000001e-01,	 3.5743150000000001e-02,	 1.1739364164999597e+00,	 1.9998082572795056e+02,	 -1.3226823428617229e-02,	 2.9999432657381590e+02,	 1.0131822062406596e+05,	 3.4760459384758695e+02,	 5.7531122920961619e-01 
2.1598290000000001e-01,	 3.5802260000000002e-02,	 1.1739382799029112e+00,	 1.9998110316402415e+02,	 -1.1721991002418712e-02,	 2.9999454062177279e+02,	 1.0131845373900030e+05,	 3.4760471785666522e+02,	 5.7531182183215213e-01 
2.1789819999999999e-01,	 3.5861860000000002e-02,	 1.1739415075117474e+00,	 1.9998140129665774e+02,	 -1.0271687072719349e-02,	 2.9999483795605659e+02,	 1.0131883272275349e+05,	 3.4760489011775707e+02,	 5.7531239417461610e-01 