TITLE = "Final State"
VARIABLES = "X", "Y", "rho", "u", "v", "T", "p", "c", "M"
ZONE I=75, J=50, DATAPACKING=POINT, STRANDID=37000, SOLUTIONTIME=0.001339
5.0621919999999998e-01,	 1.0000000000000000e-04,	 1.4202135763996132e-01,	 9.2415655615575872e+02,	 -4.5663455952167059e-01,	 2.6202497997243700e+03,	 1.0705976699784255e+05,	 1.0273072068056829e+03,	 8.9959134214883496e-01 
5.1081560000000004e-01,	 1.0000000000000000e-04,	 1.3966794946898220e-01,	 9.4422705748292617e+02,	 -4.1226355595240693e-01,	 2.6031428172363403e+03,	 1.0459831542861584e+05,	 1.0239481941014579e+03,	 9.2214347651806949e-01 
5.1545609999999997e-01,	 1.0000000000000000e-04,	 1.3496245376484459e-01,	 9.8000368014568755e+02,	 -2.0641695081718980e-01,	 2.5713510289050337e+03,	 9.9839930869473639e+04,	 1.0176763239439215e+03,	 9.6298172496185741e-01 
5.2014119999999997e-01,	 1.0000000000000000e-04,	 1.3064833647090213e-01,	 1.0121540098590003e+03,	 -8.5901034931826450e-02,	 2.5414879202462444e+03,	 9.5526061334721497e+04,	 1.0117495304051419e+03,	 1.0003997858035940e+00 
5.2487130000000004e-01,	 1.0000000000000000e-04,	 1.2700181115099224e-01,	 1.0387876238481622e+03,	 -2.6062338748197359e-02,	 2.5157181622696553e+03,	 9.1918268977730084e+04,	 1.0066070764434305e+03,	 1.0319693239643954e+00 
5.2964690000000003e-01,	 1.0000000000000000e-04,	 1.2414361257193099e-01,	 1.0581481614631343e+03,	 5.0337156400834623e-02,	 2.4960227175017658e+03,	 8.9146203077409271e+04,	 1.0026589930690553e+03,	 1.0553420155555833e+00 
5.3446839999999995e-01,	 1.0000000000000000e-04,	 1.2220793885834980e-01,	 1.0695709622892030e+03,	 6.0809516484409971e-02,	 2.4835832803089579e+03,	 8.7318865480658933e+04,	 1.0001573947955425e+03,	 1.0694026456070806e+00 
5.3933629999999999e-01,	 1.0000000000000000e-04,	 1.2120974893692074e-01,	 1.0731594353681098e+03,	 4.6416376439301077e-02,	 2.4787909524629476e+03,	 8.6438533766981898e+04,	 9.9919197588036388e+02,	 1.0740272763163230e+00 
5.4425100000000004e-01,	 1.0000000000000000e-04,	 1.2118549486976436e-01,	 1.0698244807621718e+03,	 3.6048570961718318e-02,	 2.4808807871804884e+03,	 8.6494097981113606e+04,	 9.9961308967824141e+02,	 1.0702385677181083e+00 
5.4921310000000001e-01,	 1.0000000000000000e-04,	 1.2192014561892572e-01,	 1.0609944829010587e+03,	 -1.5413092999697620e-02,	 2.4888765180216933e+03,	 8.7298897783324355e+04,	 1.0012226405402429e+03,	 1.0596988522358195e+00 
5.5422289999999996e-01,	 1.0000000000000000e-04,	 1.2332942760487570e-01,	 1.0434575279782382e+03,	 3.1849537843703990e-01,	 2.5052778618503789e+03,	 8.8889927926084594e+04,	 1.0045161811724233e+03,	 1.0387663196900057e+00 
5.5928100000000003e-01,	 1.0000000000000000e-04,	 1.2590679725120107e-01,	 9.8350731610240643e+02,	 2.6222449838881881e+00,	 2.5498122384617072e+03,	 9.2360721207785420e+04,	 1.0134051038689103e+03,	 9.7050114320512082e-01 
5.6438790000000005e-01,	 1.0000000000000000e-04,	 1.3659104427383911e-01,	 8.0388107140036618e+02,	 6.7089730514965904e+00,	 2.5447116702554554e+03,	 9.9997868824743069e+04,	 1.0123910038279919e+03,	 7.9406974529260155e-01 
5.6954400000000005e-01,	 1.0000000000000000e-04,	 2.0281922766009844e-01,	 5.2593083316375521e+02,	 7.0330915727564935e+00,	 1.9885199753698857e+03,	 1.1602966010499386e+05,	 8.9494009466493276e+02,	 5.8772409432835382e-01 
5.7474979999999998e-01,	 1.0000000000000000e-04,	 4.1312362652019513e-01,	 3.3544068300688559e+02,	 3.8802171972375561e+00,	 1.0811032885907644e+03,	 1.2849231652231271e+05,	 6.5987637625491857e+02,	 5.0837268399780677e-01 
5.8000589999999996e-01,	 1.0000000000000000e-04,	 7.2560941248273725e-01,	 2.5923283172509684e+02,	 1.4270995607071972e+00,	 5.8626941088822878e+02,	 1.2238553205851397e+05,	 4.8593435483061285e+02,	 5.3348102942847098e-01 
5.8531279999999997e-01,	 1.0000000000000000e-04,	 9.8238145681778000e-01,	 2.3500258094403918e+02,	 4.1993064990427120e-01,	 4.2465240393828867e+02,	 1.2001725256139558e+05,	 4.1356690715395143e+02,	 5.6823443092208747e-01 
5.9067090000000000e-01,	 1.0000000000000000e-04,	 1.1296044549393169e+00,	 2.2845704894539614e+02,	 7.8165220128621871e-02,	 3.6792604947692143e+02,	 1.1956852485687465e+05,	 3.8495437101160263e+02,	 5.9346530269789433e-01 
5.9608070000000002e-01,	 1.0000000000000000e-04,	 1.2017933796418583e+00,	 2.2834310522892585e+02,	 -5.1193522759901466e-02,	 3.4484521831207576e+02,	 1.1922956325199649e+05,	 3.7268429403966854e+02,	 6.1269850814615379e-01 
6.0154280000000004e-01,	 1.0000000000000000e-04,	 1.2353446489922624e+00,	 2.3062555789715137e+02,	 -8.1689252833886297e-02,	 3.3414539474976300e+02,	 1.1875545168495362e+05,	 3.6685692929563550e+02,	 6.2865262708112324e-01 
6.0705770000000003e-01,	 1.0000000000000000e-04,	 1.2513179622398298e+00,	 2.3372714590418525e+02,	 -6.6421523729177506e-02,	 3.2852084343422086e+02,	 1.1826617348121853e+05,	 3.6375623920776326e+02,	 6.4253785956000509e-01 
6.1262600000000000e-01,	 1.0000000000000000e-04,	 1.2605372292241341e+00,	 2.3702978209128855e+02,	 -4.9215355240149875e-02,	 3.2525586709851262e+02,	 1.1795347867465198e+05,	 3.6194414547747311e+02,	 6.5487946182409640e-01 
6.1824809999999997e-01,	 1.0000000000000000e-04,	 1.2684135428578069e+00,	 2.4039256724952313e+02,	 -3.5508610960091565e-02,	 3.2329620672067836e+02,	 1.1797538867457568e+05,	 3.6085214489517256e+02,	 6.6618024382773766e-01 
6.2392470000000000e-01,	 1.0000000000000000e-04,	 1.2770846822982009e+00,	 2.4385567870212319e+02,	 -2.7923392951986127e-02,	 3.2215783548911890e+02,	 1.1836364534470592e+05,	 3.6021627918313351e+02,	 6.7697018261873521e-01 
6.2965610000000005e-01,	 1.0000000000000000e-04,	 1.2875270295540444e+00,	 2.4743394574865221e+02,	 -2.4160112605528514e-02,	 3.2162136741952861e+02,	 1.1913275541147502e+05,	 3.5991623208352996e+02,	 6.8747648722538401e-01 
6.3544310000000004e-01,	 1.0000000000000000e-04,	 1.3007238178436002e+00,	 2.5132881866507293e+02,	 -2.6620561870870606e-02,	 3.2165167518563834e+02,	 1.2036517395580532e+05,	 3.5993318991207497e+02,	 6.9826519787264685e-01 
6.4128609999999997e-01,	 1.0000000000000000e-04,	 1.3173435096042756e+00,	 2.5602692786645224e+02,	 -3.7951223659880087e-02,	 3.2224746492042902e+02,	 1.2212891056091501e+05,	 3.6026638464603019e+02,	 7.1066006041830820e-01 
6.4718569999999997e-01,	 1.0000000000000000e-04,	 1.3370114164013809e+00,	 2.6192812142488492e+02,	 -5.4324095685605783e-02,	 3.2329977627301889e+02,	 1.2435706317189582e+05,	 3.6085413699566146e+02,	 7.2585596285255782e-01 
6.5314249999999996e-01,	 1.0000000000000000e-04,	 1.3583164735684821e+00,	 2.6898735734183470e+02,	 -6.8364859479204315e-02,	 3.2459290744077407e+02,	 1.2684400067569221e+05,	 3.6157508716234292e+02,	 7.4393224417241410e-01 
6.5915710000000005e-01,	 1.0000000000000000e-04,	 1.3795202401714204e+00,	 2.7669698954102591e+02,	 -7.2611661323774140e-02,	 3.2589170863966336e+02,	 1.2933954401303237e+05,	 3.6229775440786347e+02,	 7.6372816475427252e-01 
6.6522990000000004e-01,	 1.0000000000000000e-04,	 1.3992228149340951e+00,	 2.8433077425823865e+02,	 -6.9705978586297929e-02,	 3.2703079360817435e+02,	 1.3164533185501298e+05,	 3.6293036936619939e+02,	 7.8343067101071839e-01 
6.7136169999999995e-01,	 1.0000000000000000e-04,	 1.4166491156691889e+00,	 2.9122039444784821e+02,	 -6.1128766625183059e-02,	 3.2794912067351584e+02,	 1.3365915251476824e+05,	 3.6343958002843067e+02,	 8.0128972425265166e-01 
6.7755290000000001e-01,	 1.0000000000000000e-04,	 1.4315954826291026e+00,	 2.9690977510568632e+02,	 -4.5735455814420081e-02,	 3.2866193293191196e+02,	 1.3536290368121420e+05,	 3.6383434182584563e+02,	 8.1605759681231671e-01 
6.8380430000000003e-01,	 1.0000000000000000e-04,	 1.4442515956642024e+00,	 3.0119568015064010e+02,	 -2.6941252671013098e-02,	 3.2922165301305188e+02,	 1.3679215287995632e+05,	 3.6414401985255637e+02,	 8.2713340034394034e-01 
6.9011630000000002e-01,	 1.0000000000000000e-04,	 1.4550184897321006e+00,	 3.0409617618013539e+02,	 -6.1271184208744056e-03,	 3.2968970952936252e+02,	 1.3800786633862174e+05,	 3.6440278084827389e+02,	 8.3450564107653769e-01 
6.9648960000000004e-01,	 1.0000000000000000e-04,	 1.4643699643340908e+00,	 3.0577994589044476e+02,	 1.2524939002848113e-02,	 3.3011330572230736e+02,	 1.3907330628345293e+05,	 3.6463680404713074e+02,	 8.3858772003562254e-01 
7.0292480000000002e-01,	 1.0000000000000000e-04,	 1.4727659353092928e+00,	 3.0653556912158228e+02,	 2.7610565177467898e-02,	 3.3052649311937603e+02,	 1.4004575323231833e+05,	 3.6486493210838614e+02,	 8.4013437135144009e-01 
7.0942249999999996e-01,	 1.0000000000000000e-04,	 1.4805321639456146e+00,	 3.0647142093392392e+02,	 3.9176921880159199e-02,	 3.3095354338404258e+02,	 1.4096614375658127e+05,	 3.6510056430718367e+02,	 8.3941646055661900e-01 
7.1598329999999999e-01,	 1.0000000000000000e-04,	 1.4879334823922608e+00,	 3.0607597178982184e+02,	 4.4658203299074606e-02,	 3.3140765013968667e+02,	 1.4186523554353337e+05,	 3.6535095866412416e+02,	 8.3775878450382302e-01 
7.2260789999999997e-01,	 1.0000000000000000e-04,	 1.4951796154946342e+00,	 3.0541130757941232e+02,	 4.7274597139974908e-02,	 3.3189492286507465e+02,	 1.4276571141731573e+05,	 3.6561945000258669e+02,	 8.3532566781134743e-01 
7.2929679999999997e-01,	 1.0000000000000000e-04,	 1.5021677988031850e+00,	 3.0463492305408425e+02,	 4.7418422442447983e-02,	 3.3239551758672445e+02,	 1.4364930994070446e+05,	 3.6589507670181911e+02,	 8.3257454429439126e-01 
7.3605080000000001e-01,	 1.0000000000000000e-04,	 1.5086405784985264e+00,	 3.0380178934214234e+02,	 4.5419485161117407e-02,	 3.3287623392463399e+02,	 1.4447693232824694e+05,	 3.6615956310961877e+02,	 8.2969782396856839e-01 
7.4287049999999999e-01,	 1.0000000000000000e-04,	 1.5141044646752664e+00,	 3.0288487153056121e+02,	 4.1863860810080158e-02,	 3.3328443212715683e+02,	 1.4517799879296194e+05,	 3.6638400070352509e+02,	 8.2668695642308720e-01 
7.4975660000000000e-01,	 1.0000000000000000e-04,	 1.5178442885813768e+00,	 3.0178321334479750e+02,	 3.7387949956237287e-02,	 3.3354955189082108e+02,	 1.4565235795667546e+05,	 3.6652969657276975e+02,	 8.2335270097515978e-01 
7.5670959999999998e-01,	 1.0000000000000000e-04,	 1.5189784710450787e+00,	 3.0033751268193862e+02,	 3.2489068440171548e-02,	 3.3358838640493161e+02,	 1.4577816480817215e+05,	 3.6655103311528302e+02,	 8.1936070916688941e-01 
7.6373029999999997e-01,	 1.0000000000000000e-04,	 1.5165403036598657e+00,	 2.9835169450233082e+02,	 2.4837286409394137e-02,	 3.3331307283818023e+02,	 1.4542405204906495e+05,	 3.6639974292225315e+02,	 8.1427921634614797e-01 
7.7081929999999999e-01,	 1.0000000000000000e-04,	 1.5096906822824048e+00,	 2.9562755589312923e+02,	 1.5234999893571390e-02,	 3.3264404178315795e+02,	 1.4447664931856288e+05,	 3.6603183665224395e+02,	 8.0765530941113139e-01 
7.7797729999999998e-01,	 1.0000000000000000e-04,	 1.4979224636268553e+00,	 2.9201024758256176e+02,	 7.5314647658644455e-03,	 3.3152741534643496e+02,	 1.4286923490495473e+05,	 3.6541696857758461e+02,	 7.9911518290012762e-01 
7.8520500000000004e-01,	 1.0000000000000000e-04,	 1.4811641308127597e+00,	 2.8742192191882265e+02,	 1.0304972322544091e-03,	 3.2994963686081235e+02,	 1.4059852948316396e+05,	 3.6454640010306753e+02,	 7.8843714226613604e-01 
7.9250310000000002e-01,	 1.0000000000000000e-04,	 1.4599149273545731e+00,	 2.8189309774641970e+02,	 -4.7297951585181727e-03,	 3.2794630579734746e+02,	 1.3774004791547722e+05,	 3.6343802027488471e+02,	 7.7562908132971620e-01 
7.9987229999999998e-01,	 1.0000000000000000e-04,	 1.4352159868362004e+00,	 2.7557210663441293e+02,	 -8.9825866606678545e-03,	 3.2560515714106174e+02,	 1.3444308693159089e+05,	 3.6213843799552319e+02,	 7.6095790412675934e-01 
8.0731330000000001e-01,	 1.0000000000000000e-04,	 1.4084685592955055e+00,	 2.6870534783242601e+02,	 -1.0540514058591837e-02,	 3.2305248367212721e+02,	 1.3090317449102322e+05,	 3.6071610159405861e+02,	 7.4492196730812210e-01 
8.1482670000000001e-01,	 1.0000000000000000e-04,	 1.3811532830029463e+00,	 2.6158940545147493e+02,	 -9.7913650333480047e-03,	 3.2042581696182782e+02,	 1.2732078799193133e+05,	 3.5924665803300263e+02,	 7.2816099965136061e-01 
8.2241339999999996e-01,	 1.0000000000000000e-04,	 1.3545456608557616e+00,	 2.5451041202757946e+02,	 -7.4512595937315969e-03,	 3.1784773135203204e+02,	 1.2386331609637692e+05,	 3.5779852391403188e+02,	 7.1132325911385041e-01 
8.3007410000000004e-01,	 1.0000000000000000e-04,	 1.3295316994435065e+00,	 2.4769330234858751e+02,	 -4.1597033841440298e-03,	 3.1540647834462493e+02,	 1.2064219861761370e+05,	 3.5642182634962325e+02,	 6.9494426006489118e-01 
8.3780940000000004e-01,	 1.0000000000000000e-04,	 1.3065742218238579e+00,	 2.4127982110941912e+02,	 -1.0750040272360600e-03,	 3.1315070423193367e+02,	 1.1771109932099088e+05,	 3.5514498217457549e+02,	 6.7938400715798397e-01 
8.4562020000000004e-01,	 1.0000000000000000e-04,	 1.2857926437355309e+00,	 2.3533712879017733e+02,	 1.0879703220840306e-03,	 3.1109616328676213e+02,	 1.1507885423638592e+05,	 3.5397803501374352e+02,	 6.6483540082806269e-01 
8.5350709999999996e-01,	 1.0000000000000000e-04,	 1.2671124684839139e+00,	 2.2988404438631272e+02,	 2.4427205696627183e-03,	 3.0924015223481877e+02,	 1.1273038242393215e+05,	 3.5292053244845016e+02,	 6.5137622570279075e-01 
8.6147090000000004e-01,	 1.0000000000000000e-04,	 1.2504106804654675e+00,	 2.2492260608081378e+02,	 3.1308275411639792e-03,	 3.0757501110006763e+02,	 1.1064547572662230e+05,	 3.5196907819246712e+02,	 6.3904081363536525e-01 
8.6951250000000002e-01,	 1.0000000000000000e-04,	 1.2355914154127088e+00,	 2.2045833120608359e+02,	 3.2484477645419690e-03,	 3.0609488417794495e+02,	 1.0880801586997327e+05,	 3.5112117581438463e+02,	 6.2786965416907448e-01 
8.7763250000000004e-01,	 1.0000000000000000e-04,	 1.2226056324107193e+00,	 2.1650430360265062e+02,	 3.0210315827729783e-03,	 3.0479766045231912e+02,	 1.0720818875589941e+05,	 3.5037636374748956e+02,	 6.1791926061473412e-01 
8.8583170000000000e-01,	 1.0000000000000000e-04,	 1.2114307523924146e+00,	 2.1307500675233098e+02,	 2.5495963479024992e-03,	 3.0368279099311246e+02,	 1.0583972767065588e+05,	 3.4973498454338545e+02,	 6.0924704757739900e-01 
8.9411099999999999e-01,	 1.0000000000000000e-04,	 1.2020321776875307e+00,	 2.1017580321842314e+02,	 2.0401489606015049e-03,	 3.0274751241310616e+02,	 1.0469516229281467e+05,	 3.4919601446115274e+02,	 6.0188488563550446e-01 
9.0247100000000002e-01,	 1.0000000000000000e-04,	 1.1943323810663478e+00,	 2.0779409791015581e+02,	 1.5443036970189962e-03,	 3.0198395891921825e+02,	 1.0376216361361391e+05,	 3.4875538629123429e+02,	 5.9581616824800032e-01 
9.1091270000000002e-01,	 1.0000000000000000e-04,	 1.1881986119419943e+00,	 2.0589604199317904e+02,	 1.1409314435156803e-03,	 3.0137825793426595e+02,	 1.0302221815037778e+05,	 3.4840545460625759e+02,	 5.9096675805213450e-01 
9.1943680000000005e-01,	 1.0000000000000000e-04,	 1.1834495240824574e+00,	 2.0442904365926833e+02,	 8.4570378903882359e-04,	 3.0091152147209596e+02,	 1.0245154059027620e+05,	 3.4813556696073681e+02,	 5.8721102657136270e-01 
9.2804410000000004e-01,	 1.0000000000000000e-04,	 1.1798739903156035e+00,	 2.0332824459348529e+02,	 6.4793657663874576e-04,	 3.0056196755752478e+02,	 1.0202335240310436e+05,	 3.4793330233639625e+02,	 5.8438856881233958e-01 
9.3673550000000005e-01,	 1.0000000000000000e-04,	 1.1772537409745065e+00,	 2.0252428661125188e+02,	 5.4169647693764892e-04,	 3.0030729237530443e+02,	 1.0171052475401609e+05,	 3.4778586392906277e+02,	 5.8232466473474842e-01 
9.4551180000000001e-01,	 1.0000000000000000e-04,	 1.1753827115491315e+00,	 2.0195027967420418e+02,	 5.0264251561849449e-04,	 3.0012660744397789e+02,	 1.0148777589674960e+05,	 3.4768122258082400e+02,	 5.8084896899453109e-01 
9.5437390000000000e-01,	 1.0000000000000000e-04,	 1.1740801780304757e+00,	 2.0154688981635235e+02,	 5.0538097305773534e-04,	 3.0000164545006487e+02,	 1.0133310029808343e+05,	 3.4760883402692372e+02,	 5.7980945847128662e-01 
9.6332249999999997e-01,	 1.0000000000000000e-04,	 1.1731966507734142e+00,	 2.0126554824330987e+02,	 5.1865280873728502e-04,	 2.9991718607252352e+02,	 1.0122833757440138e+05,	 3.4755989947467799e+02,	 5.7908161599822783e-01 
9.7235850000000001e-01,	 1.0000000000000000e-04,	 1.1726132089994901e+00,	 2.0107023869633386e+02,	 5.0578293324212743e-04,	 2.9986082696302930e+02,	 1.0115898284521879e+05,	 3.4752724198178191e+02,	 5.7857403508963046e-01 
9.8148290000000005e-01,	 1.0000000000000000e-04,	 1.1722355630094508e+00,	 2.0093848056613510e+02,	 4.2225862409128083e-04,	 2.9982230699051695e+02,	 1.0111341343777608e+05,	 3.4750491967665607e+02,	 5.7823204561692709e-01 
9.9069640000000003e-01,	 1.0000000000000000e-04,	 1.1719518974545902e+00,	 2.0085998916927505e+02,	 4.3416167962583171e-04,	 2.9979282230032095e+02,	 1.0107900418215759e+05,	 3.4748783234430471e+02,	 5.7803459710993355e-01 
1.0000000000000000e+00,	 1.0000000000000000e-04,	 1.1718067548581899e+00,	 2.0082985241454361e+02,	 8.8024570687581872e-04,	 2.9977849531293498e+02,	 1.0106165593222056e+05,	 3.4747952908801989e+02,	 5.7796168005511639e-01 
5.0621930000000004e-01,	 7.0671750000000000e-04,	 1.4434984914648863e-01,	 9.6824680459839760e+02,	 -6.3681234717192114e-01,	 2.5799134743861860e+03,	 1.0713994339423988e+05,	 1.0193693164387773e+03,	 9.4984908648767596e-01 
5.1081569999999998e-01,	 7.0830680000000007e-04,	 1.4198025093708347e-01,	 9.8742914918325687e+02,	 -4.9569859789173581e-01,	 2.5629226002368341e+03,	 1.0468714780949813e+05,	 1.0160070744800829e+03,	 9.7187243908827181e-01 
5.1545620000000003e-01,	 7.0991130000000002e-04,	 1.3723509508499371e-01,	 1.0223785406237613e+03,	 -1.9713623645154965e-01,	 2.5305775276347758e+03,	 9.9911337319365644e+04,	 1.0095755171159275e+03,	 1.0126816095446025e+00 
5.2014130000000003e-01,	 7.1153120000000002e-04,	 1.3284412571070955e-01,	 1.0533728866536273e+03,	 -1.0917672313179701e-02,	 2.5007852549947111e+03,	 9.5575965168255381e+04,	 1.0036150992280558e+03,	 1.0495785560823283e+00 
5.2487139999999999e-01,	 7.1316670000000002e-04,	 1.2910073591934668e-01,	 1.0786661280284127e+03,	 1.6589478915248282e-01,	 2.4756003586432494e+03,	 9.1947344768263676e+04,	 9.9854871020482460e+02,	 1.0802338731819614e+00 
5.2964699999999998e-01,	 7.1481790000000006e-04,	 1.2616343950605882e-01,	 1.0970546717656066e+03,	 3.3903979417061436e-01,	 2.4565984409014850e+03,	 8.9165660237497184e+04,	 9.9470905752397516e+02,	 1.1028900519773566e+00 
5.3446850000000001e-01,	 7.1648500000000000e-04,	 1.2416223515727168e-01,	 1.1079722538424091e+03,	 3.5840764037791639e-01,	 2.4448503888736136e+03,	 8.7331666468118332e+04,	 9.9232773661492934e+02,	 1.1165386907262589e+00 
5.3933640000000005e-01,	 7.1816810000000007e-04,	 1.2312659452289007e-01,	 1.1114993288919663e+03,	 3.3412996758545099e-01,	 2.4407193451709427e+03,	 8.6456897854546522e+04,	 9.9148901814165436e+02,	 1.1210405347675707e+00 
5.4425109999999999e-01,	 7.1986740000000004e-04,	 1.2305632435882867e-01,	 1.1085526363885949e+03,	 2.1735272079311743e-01,	 2.4434913958943048e+03,	 8.6505693140637639e+04,	 9.9205190094645786e+02,	 1.1174341348865389e+00 
5.4921319999999996e-01,	 7.2158310000000007e-04,	 1.2377716038741922e-01,	 1.1004423629169391e+03,	 6.7189569488209352e-02,	 2.4521100544792539e+03,	 8.7319333221624998e+04,	 9.9379993869434338e+02,	 1.1073077408456025e+00 
5.5422300000000002e-01,	 7.2331530000000008e-04,	 1.2515166232740360e-01,	 1.0851739976393537e+03,	 4.3187535321586579e-01,	 2.4677805440781171e+03,	 8.8853204624830265e+04,	 9.9697037755188035e+02,	 1.0884717420015020e+00 
5.5928109999999998e-01,	 7.2506420000000005e-04,	 1.2746030448504334e-01,	 1.0335539717736165e+03,	 4.9063306641513362e+00,	 2.5082090143676842e+03,	 9.1974749448680799e+04,	 1.0051036468292087e+03,	 1.0283174479199286e+00 
5.6438800000000000e-01,	 7.2682990000000000e-04,	 1.3611137673232895e-01,	 8.6684019872565750e+02,	 1.6061061507885398e+01,	 2.5267294804166113e+03,	 9.8942552892344786e+04,	 1.0088076346456605e+03,	 8.5941952473231176e-01 
5.6954410000000000e-01,	 7.2861270000000003e-04,	 1.9078511561912637e-01,	 5.8054623543941864e+02,	 2.0089520538530767e+01,	 2.0669078366200843e+03,	 1.1344765907742528e+05,	 9.1240896219810577e+02,	 6.3665938144075074e-01 
5.7474990000000004e-01,	 7.3041270000000008e-04,	 3.7894929083224171e-01,	 3.6412415140233975e+02,	 1.1222490457273532e+01,	 1.1771587892231496e+03,	 1.2833528687611100e+05,	 6.8856748570825118e+02,	 5.2906513788238319e-01 
5.8000600000000002e-01,	 7.3223000000000006e-04,	 6.8222269963014281e-01,	 2.7159248807030178e+02,	 4.1512367781587045e+00,	 6.2882542069595297e+02,	 1.2342018501641256e+05,	 5.0326187531245171e+02,	 5.3972737644835822e-01 
5.8531290000000002e-01,	 7.3406490000000007e-04,	 9.5144565111219404e-01,	 2.4049487201068175e+02,	 1.2624637443132416e+00,	 4.3954101837536814e+02,	 1.2031321521569398e+05,	 4.2075442455044714e+02,	 5.7158801326819875e-01 
5.9067090000000000e-01,	 7.3591750000000006e-04,	 1.1134420008616539e+00,	 2.3109016992202035e+02,	 2.7977545489248629e-01,	 3.7350788715687287e+02,	 1.1964576036771794e+05,	 3.8786346691275992e+02,	 5.9580331481111271e-01 
5.9608079999999997e-01,	 7.3778800000000007e-04,	 1.1943952037850374e+00,	 2.2965952851158551e+02,	 -5.8641938371397889e-02,	 3.4710483772532893e+02,	 1.1927204205544139e+05,	 3.7390331869780874e+02,	 6.1422171057032038e-01 
6.0154289999999999e-01,	 7.3967660000000008e-04,	 1.2320708257247457e+00,	 2.3130409838799835e+02,	 -1.4740059567976366e-01,	 3.3512807363503930e+02,	 1.1878905341903001e+05,	 3.6739597293507239e+02,	 6.2957724742138466e-01 
6.0705779999999998e-01,	 7.4158340000000001e-04,	 1.2498368942380798e+00,	 2.3408110644920936e+02,	 -1.4293755287751736e-01,	 3.2897964416090258e+02,	 1.1829116378829125e+05,	 3.6401015521053341e+02,	 6.4306214192014355e-01 
6.1262609999999995e-01,	 7.4350870000000006e-04,	 1.2598363833630628e+00,	 2.3721965419640091e+02,	 -1.0212047983211509e-01,	 3.2549172979786408e+02,	 1.1797338538586786e+05,	 3.6207535548908430e+02,	 6.5516659054810811e-01 
6.1824820000000003e-01,	 7.4545260000000006e-04,	 1.2680437322770990e+00,	 2.4049715916653668e+02,	 -6.6802802155650362e-02,	 3.2342980859246586e+02,	 1.1798973153197349e+05,	 3.6092669810873394e+02,	 6.6633244286067661e-01 
6.2392479999999995e-01,	 7.4741540000000000e-04,	 1.2768718335961338e+00,	 2.4389712126084021e+02,	 -4.6537163630612291e-02,	 3.2224091127496922e+02,	 1.1837443564736097e+05,	 3.6026272120346260e+02,	 6.7699795550840181e-01 
6.2965620000000000e-01,	 7.4939710000000010e-04,	 1.2874036624993743e+00,	 2.4743561339925728e+02,	 -3.6186873740441897e-02,	 3.2167775171626192e+02,	 1.1914222393989829e+05,	 3.5994777963653843e+02,	 6.8742087059192503e-01 
6.3544319999999999e-01,	 7.5139800000000002e-04,	 1.3006697947715060e+00,	 2.5132273591931673e+02,	 -4.2724372653213730e-02,	 3.2169061269052298e+02,	 1.2037474500537608e+05,	 3.5995497508731910e+02,	 6.9820604504738348e-01 
6.4128620000000003e-01,	 7.5341830000000005e-04,	 1.3173286568891323e+00,	 2.5601844523229545e+02,	 -8.2507240301219781e-02,	 3.2228287644178528e+02,	 1.2214095408726129e+05,	 3.6028617879757780e+02,	 7.1059750163485547e-01 
6.4718580000000003e-01,	 7.5545810000000001e-04,	 1.3369816696001218e+00,	 2.6191638298102873e+02,	 -1.5134797735464245e-01,	 3.2334160435702040e+02,	 1.2437038517483514e+05,	 3.6087747964865537e+02,	 7.2577659033786279e-01 
6.5314260000000002e-01,	 7.5751770000000000e-04,	 1.3582673480950649e+00,	 2.6897348815947674e+02,	 -2.2107363139752390e-01,	 3.2463742653288290e+02,	 1.2685680966415796e+05,	 3.6159988197815409e+02,	 7.4384310509176588e-01 
6.5915720000000000e-01,	 7.5959730000000009e-04,	 1.3794724509789402e+00,	 2.7668265461327576e+02,	 -2.6198212254022435e-01,	 3.2592829406950426e+02,	 1.2934958292867742e+05,	 3.6231809006958792e+02,	 7.6364605088151249e-01 
6.6522999999999999e-01,	 7.6169710000000002e-04,	 1.3991993280841244e+00,	 2.8431760136606533e+02,	 -2.6392807432832016e-01,	 3.2705721030042946e+02,	 1.3165375589103982e+05,	 3.6294502735324693e+02,	 7.8336305070712087e-01 
6.7136180000000001e-01,	 7.6381720000000004e-04,	 1.4166615833068934e+00,	 2.9120965506672746e+02,	 -2.2905571432493158e-01,	 3.2796763764083346e+02,	 1.3366787567491108e+05,	 3.6344984031487104e+02,	 8.0123778537964152e-01 
6.7755299999999996e-01,	 7.6595790000000003e-04,	 1.4316252941519172e+00,	 2.9690219783993899e+02,	 -1.6670431594376231e-01,	 3.2867478890038984e+02,	 1.3537101745354617e+05,	 3.6384145764398750e+02,	 8.1602093000332565e-01 
6.8380439999999998e-01,	 7.6811930000000004e-04,	 1.4442849340707031e+00,	 3.0119144991526855e+02,	 -9.0777016779865938e-02,	 3.2923072281745351e+02,	 1.3679907913000393e+05,	 3.6414903576244166e+02,	 8.2711042462168494e-01 
6.9011639999999996e-01,	 7.7030180000000009e-04,	 1.4550487005936503e+00,	 3.0409501554892324e+02,	 -1.2674560102286615e-02,	 3.2969249192287111e+02,	 1.3801189655763409e+05,	 3.6440431852106661e+02,	 8.3449893526845931e-01 
6.9648969999999999e-01,	 7.7250540000000007e-04,	 1.4643947486821305e+00,	 3.0578132381107901e+02,	 5.7368569670043112e-02,	 3.3011168191595937e+02,	 1.3907497598404886e+05,	 3.6463590723340803e+02,	 8.3859357547278224e-01 
7.0292489999999996e-01,	 7.7473040000000009e-04,	 1.4727651713742795e+00,	 3.0653996980357260e+02,	 1.1431683122786923e-01,	 3.3052526812743486e+02,	 1.4004516155447386e+05,	 3.6486425597950557e+02,	 8.4014804436384527e-01 
7.0942249999999996e-01,	 7.7697710000000002e-04,	 1.4805106294586050e+00,	 3.0647701930597339e+02,	 1.5630933763680066e-01,	 3.3095222794458942e+02,	 1.4096353310075167e+05,	 3.6509983872473640e+02,	 8.3943356490349519e-01 
7.1598340000000005e-01,	 7.7924560000000001e-04,	 1.4879144371601991e+00,	 3.0608363329311481e+02,	 1.8190376034203437e-01,	 3.3140623161755684e+02,	 1.4186281248157177e+05,	 3.6535017675855505e+02,	 8.3778168676670084e-01 
7.2260800000000003e-01,	 7.8153610000000003e-04,	 1.4951607778499907e+00,	 3.0541988959779957e+02,	 1.9475822988624153e-01,	 3.3189340905554724e+02,	 1.4276326156186522e+05,	 3.6561861618621919e+02,	 8.3535120525245632e-01 
7.2929690000000003e-01,	 7.8384890000000006e-04,	 1.5021495461743459e+00,	 3.0464391275292530e+02,	 1.9676651142777082e-01,	 3.3239397063667519e+02,	 1.4364689595053237e+05,	 3.6589422527327156e+02,	 8.3260121438148171e-01 
7.3605089999999995e-01,	 7.8618410000000003e-04,	 1.5086239325565562e+00,	 3.0381092608915105e+02,	 1.8982759454711037e-01,	 3.3287474547525585e+02,	 1.4447469218934112e+05,	 3.6615874447114641e+02,	 8.2972478462074739e-01 
7.4287060000000005e-01,	 7.8854210000000007e-04,	 1.5140893284505212e+00,	 3.0289414309356243e+02,	 1.7582190758177010e-01,	 3.3328313039790152e+02,	 1.4517598045026249e+05,	 3.6638328519870078e+02,	 8.2671400787084171e-01 
7.4975670000000005e-01,	 7.9092300000000002e-04,	 1.5178270662316891e+00,	 3.0179282719363437e+02,	 1.5623138351273752e-01,	 3.3354872866726657e+02,	 1.4565034582367440e+05,	 3.6652924426206494e+02,	 8.2338005045129681e-01 
7.5670970000000004e-01,	 7.9332710000000006e-04,	 1.5189530680064585e+00,	 3.0034783702999641e+02,	 1.3221581561286722e-01,	 3.3358767487049431e+02,	 1.4577541591300303e+05,	 3.6655064219366704e+02,	 8.1938982382849301e-01 
7.6373040000000003e-01,	 7.9575460000000007e-04,	 1.5165262415574927e+00,	 2.9836319752518511e+02,	 1.0383351909991310e-01,	 3.3331174688729504e+02,	 1.4542212510097920e+05,	 3.6639901413513644e+02,	 8.1431227727790123e-01 
7.7081940000000004e-01,	 7.9820570000000010e-04,	 1.5097022615752400e+00,	 2.9564062745162664e+02,	 7.3259289765961522e-02,	 3.3264198777054372e+02,	 1.4447686532893687e+05,	 3.6603070656260479e+02,	 8.0769353835025937e-01 
7.7797740000000004e-01,	 8.0068070000000003e-04,	 1.4979482869919358e+00,	 2.9202506230599295e+02,	 4.4575774185443770e-02,	 3.3152467388018158e+02,	 1.4287051645799010e+05,	 3.6541545772160049e+02,	 7.9915903812307543e-01 
7.8520509999999999e-01,	 8.0317980000000006e-04,	 1.4812006703800429e+00,	 2.8743842505479938e+02,	 1.9560743893199582e-02,	 3.2994617686500379e+02,	 1.4060052356364176e+05,	 3.6454448870177742e+02,	 7.8848654863499312e-01 
7.9250319999999996e-01,	 8.0570320000000002e-04,	 1.4599605948928445e+00,	 2.8191096333478180e+02,	 -2.2370362135908702e-04,	 3.2794352350231236e+02,	 1.3774318793367807e+05,	 3.6343647856832138e+02,	 7.7568152884761921e-01 
7.9987240000000004e-01,	 8.0825120000000002e-04,	 1.4352680434586447e+00,	 2.7559072732385681e+02,	 -1.3128419776919123e-02,	 3.2560409575100306e+02,	 1.3444752504155668e+05,	 3.6213784775540756e+02,	 7.6101056364231767e-01 
8.0731339999999996e-01,	 8.1082400000000003e-04,	 1.4085236294537857e+00,	 2.6872393002319529e+02,	 -1.8129123037658883e-02,	 3.2305225474962759e+02,	 1.3090819995104207e+05,	 3.6071597378812857e+02,	 7.4497374710819775e-01 
8.1482679999999996e-01,	 8.1342190000000003e-04,	 1.3812080655170982e+00,	 2.6160714649312808e+02,	 -1.6223453122362501e-02,	 3.2042550713180322e+02,	 1.2732571496973351e+05,	 3.5924648434938865e+02,	 7.2821073661988778e-01 
8.2241359999999997e-01,	 8.1604520000000001e-04,	 1.3545976635188484e+00,	 2.5452685065058202e+02,	 -9.6989875645215017e-03,	 3.1784670122999199e+02,	 1.2386766991276728e+05,	 3.5779794411369409e+02,	 7.1137035587464970e-01 
8.3007419999999998e-01,	 8.1869400000000002e-04,	 1.3295791025826134e+00,	 2.4770837310674602e+02,	 -4.8872155894190113e-04,	 3.1540439703188571e+02,	 1.2064570387064149e+05,	 3.5642065036472366e+02,	 6.9498883651592369e-01 
8.3780949999999998e-01,	 8.2136870000000008e-04,	 1.3066162738418479e+00,	 2.4129350067521764e+02,	 8.7506846210477513e-03,	 3.1314783787753595e+02,	 1.1771381036941829e+05,	 3.5514335680107774e+02,	 6.7942563534715228e-01 
8.4562029999999999e-01,	 8.2407000000000010e-04,	 1.2858295281862790e+00,	 2.3534934538578713e+02,	 1.5778980597536022e-02,	 3.1109323478114641e+02,	 1.1508107207999806e+05,	 3.5397636892263523e+02,	 6.6487304401434555e-01 