TITLE = "Final State"
VARIABLES = "X", "Y", "rho", "u", "v", "T", "p", "c", "M"
ZONE I=76, J=11, DATAPACKING=POINT, STRANDID=30000, SOLUTIONTIME=0.001079
5.0000000000000003e-02,	 2.7099999999999999e-02,	 1.1703211544749701e+00,	 -4.5848117997789537e+01,	 -1.4611982965104524e+01,	 3.1213865580066107e+02,	 1.0509511955556032e+05,	 3.5457063444633911e+02,	 1.3571418785289138e-01 
5.0999709999999997e-02,	 2.7124200000000001e-02,	 1.1752187460605470e+00,	 -2.9523116352964756e+01,	 -1.6658976659240967e+01,	 3.1292421452695942e+02,	 1.0580052398299257e+05,	 3.5501652767872054e+02,	 9.5485433652630305e-02 
5.1999469999999999e-02,	 2.7148409999999998e-02,	 1.1798700266727686e+00,	 -1.1228125959670276e+01,	 -1.9816220252295235e+01,	 3.1338034269136836e+02,	 1.0637408981584304e+05,	 3.5527517508101141e+02,	 6.4108499927510706e-02 
5.2999449999999997e-02,	 2.7172619999999998e-02,	 1.1823466576011237e+00,	 2.6123835174012298e+00,	 -2.1608962121817893e+01,	 3.1336721972986913e+02,	 1.0659291276091668e+05,	 3.5526773633866105e+02,	 6.1267312566845387e-02 
5.3999720000000001e-02,	 2.7196840000000000e-02,	 1.1842073684824512e+00,	 1.3282941011295938e+01,	 -2.1952857990904889e+01,	 3.1330500922416405e+02,	 1.0673946829614902e+05,	 3.5523247023365343e+02,	 7.2230487378078745e-02 
5.5000359999999998e-02,	 2.7221059999999998e-02,	 1.1855425315401455e+00,	 2.1929454948762292e+01,	 -2.1483085837965419e+01,	 3.1322246752651347e+02,	 1.0683166154767069e+05,	 3.5518567330770833e+02,	 8.6430638691228356e-02 
5.6001490000000001e-02,	 2.7245300000000000e-02,	 1.1862293131407367e+00,	 2.9312691257624863e+01,	 -2.0916643912544743e+01,	 3.1309080882703034e+02,	 1.0684861762823566e+05,	 3.5511101678753789e+02,	 1.0140568071191154e-01 
5.7003190000000002e-02,	 2.7269550000000000e-02,	 1.1860988666562822e+00,	 3.5629316139277108e+01,	 -2.0663245815389487e+01,	 3.1294916333366666e+02,	 1.0678853367493760e+05,	 3.5503067976695854e+02,	 1.1601136551528990e-01 
5.8005559999999998e-02,	 2.7293820000000000e-02,	 1.1859553019149187e+00,	 4.1067779193100208e+01,	 -2.0486722593310201e+01,	 3.1280379099386244e+02,	 1.0672600823774612e+05,	 3.5494821008534677e+02,	 1.2929801402381466e-01 
5.9008699999999997e-02,	 2.7318110000000000e-02,	 1.1857367062228317e+00,	 4.5914308081502725e+01,	 -2.0239453355190690e+01,	 3.1266113728620405e+02,	 1.0665767319552870e+05,	 3.5486726405154263e+02,	 1.4139731217205107e-01 
6.0012700000000002e-02,	 2.7342410000000001e-02,	 1.1854129175923669e+00,	 5.0346333187877541e+01,	 -1.9972988672422748e+01,	 3.1251664984792632e+02,	 1.0657927288276318e+05,	 3.5478525867758680e+02,	 1.5266529646944474e-01 
6.1017660000000001e-02,	 2.7366740000000001e-02,	 1.1849907046857395e+00,	 5.4465921556597621e+01,	 -1.9718678575683704e+01,	 3.1236894016964925e+02,	 1.0649095584618977e+05,	 3.5470140488902507e+02,	 1.6330776690576862e-01 
6.2023670000000003e-02,	 2.7391099999999998e-02,	 1.1845147733144232e+00,	 5.8338172223751286e+01,	 -1.9476026903698180e+01,	 3.1221747037956902e+02,	 1.0639656812641218e+05,	 3.5461539591838169e+02,	 1.7343667924640721e-01 
6.3030840000000005e-02,	 2.7415479999999999e-02,	 1.1839602327659946e+00,	 6.2015732536966595e+01,	 -1.9245884218475396e+01,	 3.1206378321026159e+02,	 1.0629440912770956e+05,	 3.5452810652874484e+02,	 1.8315463807029220e-01 
6.4039250000000006e-02,	 2.7439900000000000e-02,	 1.1833556916868322e+00,	 6.5528277627252848e+01,	 -1.9042988257918726e+01,	 3.1190828158375683e+02,	 1.0618719467453122e+05,	 3.5443976470621084e+02,	 1.9252697517977099e-01 
6.5049010000000004e-02,	 2.7464340000000000e-02,	 1.1827065821313874e+00,	 6.8890982852473314e+01,	 -1.8876010418180620e+01,	 3.1175062073987988e+02,	 1.0607530231108083e+05,	 3.5435017372851922e+02,	 2.0158078083687223e-01 
6.6060209999999994e-02,	 2.7488829999999999e-02,	 1.1820503826457325e+00,	 7.2117189549303433e+01,	 -1.8736865185594777e+01,	 3.1159236913262583e+02,	 1.0596263236808623e+05,	 3.5426022426407661e+02,	 2.1032976549041832e-01 
6.7072950000000006e-02,	 2.7513349999999999e-02,	 1.1813802834845089e+00,	 7.5217086324355677e+01,	 -1.8627726245797067e+01,	 3.1143346825646279e+02,	 1.0584855612858014e+05,	 3.5416988277277443e+02,	 2.1879152480409611e-01 
6.8087320000000007e-02,	 2.7537900000000001e-02,	 1.1806932361877363e+00,	 7.8195710277290885e+01,	 -1.8559495388383834e+01,	 3.1127451542647452e+02,	 1.0573300577488843e+05,	 3.5407948868219427e+02,	 2.2697743237582790e-01 
6.9103429999999993e-02,	 2.7562500000000000e-02,	 1.1800069188567370e+00,	 8.1050180797152322e+01,	 -1.8538327536469438e+01,	 3.1111599787747059e+02,	 1.0561773136364328e+05,	 3.5398931914123625e+02,	 2.3487504783416829e-01 
7.0121359999999994e-02,	 2.7587149999999998e-02,	 1.1793469204713642e+00,	 8.3764234106738428e+01,	 -1.8561663868777977e+01,	 3.1096045282893118e+02,	 1.0550588259539720e+05,	 3.5390081811587493e+02,	 2.4242997659692578e-01 
7.1141220000000005e-02,	 2.7611839999999999e-02,	 1.1787417349528639e+00,	 8.6336015146865861e+01,	 -1.8600248180053782e+01,	 3.1081003527803881e+02,	 1.0540073289010752e+05,	 3.5381521344679800e+02,	 2.4961309605466037e-01 
7.2163110000000003e-02,	 2.7636580000000001e-02,	 1.1782094732929911e+00,	 8.8779724471941819e+01,	 -1.8632324902849231e+01,	 3.1066539244882210e+02,	 1.0530411053040506e+05,	 3.5373287571127162e+02,	 2.5644733238300316e-01 
7.3187119999999994e-02,	 2.7661370000000001e-02,	 1.1777377718120188e+00,	 9.1111360873355665e+01,	 -1.8655507459244411e+01,	 3.1052592869102170e+02,	 1.0521469741001274e+05,	 3.5365346800256992e+02,	 2.6297396893313302e-01 
7.4213349999999997e-02,	 2.7686220000000001e-02,	 1.1773273124428352e+00,	 9.3338660147302448e+01,	 -1.8676929439126589e+01,	 3.1039146111256935e+02,	 1.0513248307865842e+05,	 3.5357688812570279e+02,	 2.6921707067738243e-01 
7.5241900000000000e-02,	 2.7711119999999999e-02,	 1.1769627582420570e+00,	 9.5461925239656296e+01,	 -1.8697223374554071e+01,	 3.1026346403238642e+02,	 1.0505658888911000e+05,	 3.5350397781468359e+02,	 2.7517573834377335e-01 
7.6272859999999998e-02,	 2.7736080000000000e-02,	 1.1766645322288438e+00,	 9.7482107098792085e+01,	 -1.8711883450695129e+01,	 3.1014311996750462e+02,	 1.0498923029848722e+05,	 3.5343541313232367e+02,	 2.8084835364179367e-01 
7.7306340000000001e-02,	 2.7761100000000000e-02,	 1.1764354556148133e+00,	 9.9405410072172714e+01,	 -1.8709045806800454e+01,	 3.1003038528322429e+02,	 1.0493063531373924e+05,	 3.5337117174086097e+02,	 2.8624490982568668e-01 
7.8342439999999999e-02,	 2.7786189999999999e-02,	 1.1762679167191554e+00,	 1.0124023036745344e+02,	 -1.8691572279744694e+01,	 3.0992462520631670e+02,	 1.0487990220828899e+05,	 3.5331089418126368e+02,	 2.9138995716517996e-01 
7.9381250000000000e-02,	 2.7811340000000000e-02,	 1.1761522031446430e+00,	 1.0298909647942655e+02,	 -1.8663290065660195e+01,	 3.0982563855068042e+02,	 1.0483609056774976e+05,	 3.5325446778929086e+02,	 2.9629202525515841e-01 
8.0422869999999994e-02,	 2.7836549999999998e-02,	 1.1760868052849389e+00,	 1.0465648127643635e+02,	 -1.8627025404179886e+01,	 3.0973239946598528e+02,	 1.0479871367067087e+05,	 3.5320130950033064e+02,	 3.0096490943934018e-01 
8.1467410000000004e-02,	 2.7861839999999999e-02,	 1.1760550854499616e+00,	 1.0624160269433746e+02,	 -1.8580041780861201e+01,	 3.0964642017971789e+02,	 1.0476679666356483e+05,	 3.5315228314027934e+02,	 3.0540380204888501e-01 
8.2514959999999998e-02,	 2.7887200000000001e-02,	 1.1760858815418727e+00,	 1.0774446119787601e+02,	 -1.8517878704055224e+01,	 3.0956770466726778e+02,	 1.0474290651426380e+05,	 3.5310739269745818e+02,	 3.0960609283794843e-01 
8.3565630000000002e-02,	 2.7912639999999999e-02,	 1.1761716341517841e+00,	 1.0917376017395041e+02,	 -1.8441335818976597e+01,	 3.0949506226616700e+02,	 1.0472596318598038e+05,	 3.5306596060777832e+02,	 3.1359674461133347e-01 
8.4619509999999995e-02,	 2.7938160000000000e-02,	 1.1763000940859722e+00,	 1.1053182884677314e+02,	 -1.8350487791767563e+01,	 3.0942821545585480e+02,	 1.0471477933596121e+05,	 3.5302782977678112e+02,	 3.1738219684155167e-01 
8.5676699999999995e-02,	 2.7963749999999999e-02,	 1.1764782386435630e+00,	 1.1182403923947642e+02,	 -1.8241354695713927e+01,	 3.0936652091466522e+02,	 1.0470975640075555e+05,	 3.5299263425381776e+02,	 3.2097578069022864e-01 
8.6737309999999998e-02,	 2.7989429999999999e-02,	 1.1767064531796321e+00,	 1.1305741653460295e+02,	 -1.8111386758889026e+01,	 3.0931041053976139e+02,	 1.0471107302879899e+05,	 3.5296062134053176e+02,	 3.2439572312393061e-01 
8.7801439999999994e-02,	 2.8015189999999999e-02,	 1.1769811608768854e+00,	 1.1423587548703050e+02,	 -1.7959773134628097e+01,	 3.0925948501794210e+02,	 1.0471827444715842e+05,	 3.5293156405193076e+02,	 3.2765288416320831e-01 
8.8869190000000001e-02,	 2.8041040000000000e-02,	 1.1773040055937534e+00,	 1.1536613716282166e+02,	 -1.7784989767794393e+01,	 3.0921365417306913e+02,	 1.0473147553434559e+05,	 3.5290541165909917e+02,	 3.3076558754437813e-01 
8.9940670000000000e-02,	 2.8066979999999998e-02,	 1.1776739192072747e+00,	 1.1645442260942357e+02,	 -1.7585943353445067e+01,	 3.0917208640037518e+02,	 1.0475029904428625e+05,	 3.5288169022122514e+02,	 3.3375145164327352e-01 
9.1015960000000007e-02,	 2.8093020000000000e-02,	 1.1780925888834792e+00,	 1.1750749145678313e+02,	 -1.7363482176719089e+01,	 3.0913402376335739e+02,	 1.0477463781221022e+05,	 3.5285996765683831e+02,	 3.3663048151666913e-01 
9.2095189999999993e-02,	 2.8119149999999999e-02,	 1.1785367875094233e+00,	 1.1852896105309074e+02,	 -1.7119840607847955e+01,	 3.0909903512604740e+02,	 1.0480227983164234e+05,	 3.5283999826194594e+02,	 3.3941429521997868e-01 
9.3178440000000001e-02,	 2.8145369999999999e-02,	 1.1789996102077933e+00,	 1.1952491658413842e+02,	 -1.6857935762862361e+01,	 3.0906546801716485e+02,	 1.0483205104964472e+05,	 3.5282083912707179e+02,	 3.4212234837020117e-01 
9.4265840000000004e-02,	 2.8171700000000001e-02,	 1.1794758341945437e+00,	 1.2049935410876162e+02,	 -1.6583035467487804e+01,	 3.0903238931055307e+02,	 1.0486317051787378e+05,	 3.5280195774023622e+02,	 3.4476870682559602e-01 
9.5357470000000000e-02,	 2.8198129999999998e-02,	 1.1799512620104911e+00,	 1.2145229287849631e+02,	 -1.6300905184143197e+01,	 3.0899928826687812e+02,	 1.0489420256222103e+05,	 3.5278306259178470e+02,	 3.4735606295904209e-01 
9.6453440000000001e-02,	 2.8224659999999999e-02,	 1.1804225059837130e+00,	 1.2238597993974977e+02,	 -1.6016657797832483e+01,	 3.0896542777941028e+02,	 1.0492459575316825e+05,	 3.5276373288102315e+02,	 3.4989305668474691e-01 
9.7553860000000006e-02,	 2.8251300000000000e-02,	 1.1808897752705563e+00,	 1.2330123520598089e+02,	 -1.5735034352311256e+01,	 3.0893024375379633e+02,	 1.0495417685121004e+05,	 3.5274364648871597e+02,	 3.5238392394838369e-01 
9.8658839999999998e-02,	 2.8278060000000001e-02,	 1.1813582879537583e+00,	 1.2419357945163856e+02,	 -1.5459787646434879e+01,	 3.0889442663671207e+02,	 1.0498364381848153e+05,	 3.5272319749259930e+02,	 3.5481677753622543e-01 
9.9768480000000007e-02,	 2.8304920000000001e-02,	 1.1818290252631622e+00,	 1.2505941086884957e+02,	 -1.5192391847311002e+01,	 3.0885817973750147e+02,	 1.0501315267518646e+05,	 3.5270250191480233e+02,	 3.5718155377234972e-01 
1.0088290000000000e-01,	 2.8331900000000000e-02,	 1.1823158934142293e+00,	 1.2589759868668267e+02,	 -1.4933124484084118e+01,	 3.0882221340642468e+02,	 1.0504418030930917e+05,	 3.5268196533019608e+02,	 3.5947440225429156e-01 
1.0200220000000000e-01,	 2.8358999999999999e-02,	 1.1828252884518449e+00,	 1.2670283582823029e+02,	 -1.4680791625348380e+01,	 3.0878718821083874e+02,	 1.0507751932128996e+05,	 3.5266196497959453e+02,	 3.6167925415246538e-01 
1.0312639999999999e-01,	 2.8386220000000000e-02,	 1.1833652987784244e+00,	 1.2747205414848068e+02,	 -1.4432993274552608e+01,	 3.0875360692923613e+02,	 1.0511405907541585e+05,	 3.5264278807846341e+02,	 3.6378608194546497e-01 
1.0425580000000000e-01,	 2.8413560000000001e-02,	 1.1839368498214671e+00,	 1.2820502249415165e+02,	 -1.4187257966255554e+01,	 3.0872105009129609e+02,	 1.0515373867500112e+05,	 3.5262419519968375e+02,	 3.6579344705248257e-01 
1.0539030000000001e-01,	 2.8441029999999999e-02,	 1.1845433192978372e+00,	 1.2890204718192501e+02,	 -1.3940772972790766e+01,	 3.0868931550464271e+02,	 1.0519678880302860e+05,	 3.5260607095667308e+02,	 3.6770128059815771e-01 
1.0653010000000000e-01,	 2.8468620000000000e-02,	 1.1851787343549436e+00,	 1.2956438584271660e+02,	 -1.3688462196796451e+01,	 3.0865724794958453e+02,	 1.0524228465709696e+05,	 3.5258775560253184e+02,	 3.6951218356172882e-01 
1.0767540000000000e-01,	 2.8496350000000000e-02,	 1.1858339371117697e+00,	 1.3019593643019530e+02,	 -1.3424827013891623e+01,	 3.0862353026808728e+02,	 1.0528896277407803e+05,	 3.5256849675406329e+02,	 3.7123634496236640e-01 
1.0882620000000000e-01,	 2.8524209999999998e-02,	 1.1864916088325033e+00,	 1.3079862596129988e+02,	 -1.3148678779448552e+01,	 3.0858644745123183e+02,	 1.0533469869750936e+05,	 3.5254731459445662e+02,	 3.7288004216858234e-01 
1.0998260000000000e-01,	 2.8552209999999998e-02,	 1.1871418775390958e+00,	 1.3138178130559621e+02,	 -1.2861623544568294e+01,	 3.0854448073070307e+02,	 1.0537809542639824e+05,	 3.5252334115393876e+02,	 3.7447116061907743e-01 
1.1114480000000000e-01,	 2.8580350000000001e-02,	 1.1877665698905440e+00,	 1.3194882313753811e+02,	 -1.2559239321941915e+01,	 3.0849695611105381e+02,	 1.0541730724130535e+05,	 3.5249619080134443e+02,	 3.7601877634610076e-01 
1.1231280000000000e-01,	 2.8608619999999998e-02,	 1.1883562869379620e+00,	 1.3250542888356989e+02,	 -1.2237126642619229e+01,	 3.0844204270154512e+02,	 1.0545087220848678e+05,	 3.5246481670062798e+02,	 3.7753921451481964e-01 
1.1348680000000000e-01,	 2.8637050000000001e-02,	 1.1889119014181782e+00,	 1.3305498332567811e+02,	 -1.1892452559025021e+01,	 3.0837965722841398e+02,	 1.0547883716993933e+05,	 3.5242917013939825e+02,	 3.7904183600098956e-01 
1.1466680000000000e-01,	 2.8665619999999999e-02,	 1.1894249374348003e+00,	 1.3359637609710012e+02,	 -1.1521651490462357e+01,	 3.0831004980539842e+02,	 1.0550053416405965e+05,	 3.5238939275747225e+02,	 3.8052303788702502e-01 
1.1585310000000000e-01,	 2.8694339999999999e-02,	 1.1899006597829607e+00,	 1.3413261535522435e+02,	 -1.1120661699017059e+01,	 3.0823358615193069e+02,	 1.0551655461100383e+05,	 3.5234569218513144e+02,	 3.8199082479792218e-01 
1.1704560000000000e-01,	 2.8723209999999999e-02,	 1.1903441657900329e+00,	 1.3466375834898298e+02,	 -1.0685198544766797e+01,	 3.0815106941227504e+02,	 1.0552762509067633e+05,	 3.5229852606634267e+02,	 3.8344473150712854e-01 
1.1824460000000001e-01,	 2.8752239999999998e-02,	 1.1907609166727489e+00,	 1.3518859049006215e+02,	 -1.0210601057861723e+01,	 3.0806384891157688e+02,	 1.0553469183859152e+05,	 3.5224866443754911e+02,	 3.8488048892566734e-01 
1.1945010000000000e-01,	 2.8781419999999999e-02,	 1.1911530112295217e+00,	 1.3570779690789482e+02,	 -9.6918107093174246e+00,	 3.0797252931882872e+02,	 1.0553814834575621e+05,	 3.5219645190289668e+02,	 3.8629984730690281e-01 
1.2066230000000000e-01,	 2.8810769999999999e-02,	 1.1915311189842797e+00,	 1.3622321952240623e+02,	 -9.1232918290197969e+00,	 3.0787768096007733e+02,	 1.0553913571838223e+05,	 3.5214221357861976e+02,	 3.8770809073421864e-01 
1.2188120000000000e-01,	 2.8840279999999999e-02,	 1.1918967793433703e+00,	 1.3673563530834258e+02,	 -8.4986310297777408e+00,	 3.0777937478483568e+02,	 1.0553781458693606e+05,	 3.5208598911006305e+02,	 3.8910804694049622e-01 
1.2310710000000000e-01,	 2.8869960000000000e-02,	 1.1922528037104083e+00,	 1.3725059719587119e+02,	 -7.8110448567253572e+00,	 3.0767733357504619e+02,	 1.0553433868608138e+05,	 3.5202761895671659e+02,	 3.9051675669658426e-01 
1.2433990000000000e-01,	 2.8899809999999998e-02,	 1.1925960513647786e+00,	 1.3777421590343596e+02,	 -7.0558792403390251e+00,	 3.0757124967081825e+02,	 1.0552832424723452e+05,	 3.5196692601692382e+02,	 3.9195380304110877e-01 
1.2557979999999999e-01,	 2.8929830000000000e-02,	 1.1929183076162686e+00,	 1.3831567026730022e+02,	 -6.2235804040700344e+00,	 3.0746078172733223e+02,	 1.0551892746814196e+05,	 3.5190371374608878e+02,	 3.9344744191353920e-01 
1.2682700000000000e-01,	 2.8960020000000000e-02,	 1.1932056594636160e+00,	 1.3888861865337802e+02,	 -5.3023625451379530e+00,	 3.0734457457994461e+02,	 1.0550445372631059e+05,	 3.5183720511488366e+02,	 3.9504007578410061e-01 
1.2808149999999999e-01,	 2.8990389999999998e-02,	 1.1934589711168533e+00,	 1.3951560078969456e+02,	 -4.2883106056790883e+00,	 3.0721862706918552e+02,	 1.0548360768385358e+05,	 3.5176510759867756e+02,	 3.9680311497088561e-01 
1.2934350000000000e-01,	 2.9020950000000000e-02,	 1.1935829479981668e+00,	 1.4022504004781922e+02,	 -3.1718401792059945e+00,	 3.0707934892904018e+02,	 1.0544673919429499e+05,	 3.5168536187415975e+02,	 3.9882498281225376e-01 
1.3061320000000001e-01,	 2.9051689999999998e-02,	 1.1935588560023827e+00,	 1.4105858121353123e+02,	 -1.8487382225197107e+00,	 3.0691384434539538e+02,	 1.0538777998954184e+05,	 3.5159057630102603e+02,	 4.0123571319609008e-01 
1.3189049999999999e-01,	 2.9082609999999998e-02,	 1.1937578203341654e+00,	 1.4179251128429848e+02,	 -6.6371354451049891e-01,	 3.0678053417785645e+02,	 1.0535956441451321e+05,	 3.5151421009884274e+02,	 4.0338074701791404e-01 
5.0000000000000003e-02,	 2.7423569999999998e-02,	 1.1696783156776931e+00,	 -3.9051971017588968e+01,	 -2.0917797310903211e+01,	 3.1218103335122726e+02,	 1.0505165289488535e+05,	 3.5459470279665351e+02,	 1.2493520562896274e-01 
5.0999370000000002e-02,	 2.7446379999999999e-02,	 1.1746553399290562e+00,	 -2.3939361439900871e+01,	 -2.2087871170526054e+01,	 3.1291673258488618e+02,	 1.0574727419568117e+05,	 3.5501228347381505e+02,	 9.1750317158531033e-02 
5.1998790000000003e-02,	 2.7471309999999999e-02,	 1.1794886388195664e+00,	 -6.6793371563674526e+00,	 -2.3855473780464433e+01,	 3.1332518613440504e+02,	 1.0632098851744723e+05,	 3.5524390857338989e+02,	 6.9734938465282462e-02 
5.2998450000000003e-02,	 2.7496639999999999e-02,	 1.1821859818717042e+00,	 6.3579516576612454e+00,	 -2.4599404911490787e+01,	 3.1326937186319202e+02,	 1.0654514849360559e+05,	 3.5521226642679846e+02,	 7.1528385874347414e-02 
5.3998430000000000e-02,	 2.7521919999999998e-02,	 1.1840913555468451e+00,	 1.6373411127049529e+01,	 -2.4256772562256586e+01,	 3.1321285615455162e+02,	 1.0669761894697107e+05,	 3.5518022375002226e+02,	 8.2396684522697869e-02 
5.4998840000000000e-02,	 2.7547059999999998e-02,	 1.1854561361575064e+00,	 2.4504360167487775e+01,	 -2.3364340637113017e+01,	 3.1312637389186847e+02,	 1.0679110374726471e+05,	 3.5513118535739471e+02,	 9.5339080385187361e-02 
5.5999750000000001e-02,	 2.7572150000000000e-02,	 1.1861671999898296e+00,	 3.1467164771131792e+01,	 -2.2502364693492684e+01,	 3.1299884397435744e+02,	 1.0681163960153193e+05,	 3.5505885918672408e+02,	 1.0895411769371698e-01 
5.7001259999999998e-02,	 2.7597159999999999e-02,	 1.1860692592640851e+00,	 3.7456330624704016e+01,	 -2.1994441788150386e+01,	 3.1286605129723785e+02,	 1.0675750817145838e+05,	 3.5498353268106916e+02,	 1.2236209965800116e-01 
5.8003460000000000e-02,	 2.7622160000000000e-02,	 1.1859125979427148e+00,	 4.2645356529525706e+01,	 -2.1627967740045417e+01,	 3.1273126584227475e+02,	 1.0669742116182153e+05,	 3.5490705942509447e+02,	 1.3472898345553741e-01 
5.9006450000000002e-02,	 2.7647140000000001e-02,	 1.1856724423156992e+00,	 4.7301178930161264e+01,	 -2.1253889432634516e+01,	 3.1259670206809642e+02,	 1.0662991311352103e+05,	 3.5483069550329134e+02,	 1.4614523616546135e-01 
6.0010319999999999e-02,	 2.7672119999999998e-02,	 1.1853372627311891e+00,	 5.1586983236476357e+01,	 -2.0895055332865361e+01,	 3.1245831567549862e+02,	 1.0655257807677236e+05,	 3.5475214512934002e+02,	 1.5689282097342180e-01 
6.1015170000000001e-02,	 2.7697110000000000e-02,	 1.1849122764549334e+00,	 5.5595027464292443e+01,	 -2.0568444652634842e+01,	 3.1231512381517024e+02,	 1.0646556224004677e+05,	 3.5467084877999906e+02,	 1.6713493118035080e-01 
6.2021079999999999e-02,	 2.7722119999999999e-02,	 1.1844298946270473e+00,	 5.9385277383403803e+01,	 -2.0268342459919648e+01,	 3.1216710570715486e+02,	 1.0637178217761438e+05,	 3.5458679276470480e+02,	 1.7696327364376568e-01 
6.3028150000000005e-02,	 2.7747149999999998e-02,	 1.1838768601675840e+00,	 6.2999886736691138e+01,	 -1.9992178122980082e+01,	 3.1201587888374161e+02,	 1.0627060813779166e+05,	 3.5450089401176416e+02,	 1.8644787170063901e-01 
6.4036480000000007e-02,	 2.7772209999999999e-02,	 1.1832776517030386e+00,	 6.6464569905088794e+01,	 -1.9748670258054005e+01,	 3.1186176636298870e+02,	 1.0616435707026922e+05,	 3.5441333472727337e+02,	 1.9563736613073296e-01 
6.5046170000000000e-02,	 2.7797289999999999e-02,	 1.1826401403624029e+00,	 6.9790085730372880e+01,	 -1.9543960566266009e+01,	 3.1170503412356908e+02,	 1.0605383295183747e+05,	 3.5432426485311481e+02,	 2.0454421376113710e-01 
6.6057299999999999e-02,	 2.7822409999999999e-02,	 1.1819931417667191e+00,	 7.2985269381883867e+01,	 -1.9370369211513857e+01,	 3.1154697573116368e+02,	 1.0594206501827606e+05,	 3.5423441865408944e+02,	 2.1316954760491522e-01 
6.7069980000000001e-02,	 2.7847569999999999e-02,	 1.1813364895980900e+00,	 7.6060627249701810e+01,	 -1.9228586560863878e+01,	 3.1138776724836396e+02,	 1.0582910024201348e+05,	 3.5414389565807534e+02,	 2.2153011400569794e-01 
6.8084300000000000e-02,	 2.7872760000000000e-02,	 1.1806704505496848e+00,	 7.9016114841564928e+01,	 -1.9127232567761805e+01,	 3.1122815890552260e+02,	 1.0571521931213369e+05,	 3.5405312207719282e+02,	 2.2962147652256343e-01 
6.9100360000000000e-02,	 2.7897999999999999e-02,	 1.1800001348699745e+00,	 8.1848058321544869e+01,	 -1.9070521747696851e+01,	 3.1106948371642284e+02,	 1.0560133360850427e+05,	 3.5396285613099661e+02,	 2.3742718261130219e-01 
7.0118239999999998e-02,	 2.7923279999999998e-02,	 1.1793514268825536e+00,	 8.4543598134465583e+01,	 -1.9055122831277931e+01,	 3.1091388743077380e+02,	 1.0549048649383444e+05,	 3.5387431932906742e+02,	 2.4490162799471452e-01 
7.1138069999999998e-02,	 2.7948620000000000e-02,	 1.1787593067738351e+00,	 8.7099919888463702e+01,	 -1.9057222610730388e+01,	 3.1076282941598322e+02,	 1.0538629561381499e+05,	 3.5378834367991038e+02,	 2.5201616709046581e-01 
7.2159909999999994e-02,	 2.7973999999999999e-02,	 1.1782343389847392e+00,	 8.9528694267915967e+01,	 -1.9057537568607088e+01,	 3.1061725735069888e+02,	 1.0529001656883363e+05,	 3.5370547062094846e+02,	 2.5878753354234796e-01 
7.3183890000000001e-02,	 2.7999429999999999e-02,	 1.1777718132583945e+00,	 9.1844725558801628e+01,	 -1.9051898868264477e+01,	 3.1047694397518683e+02,	 1.0520114070146934e+05,	 3.5362557291189160e+02,	 2.6525213584574447e-01 
7.4210090000000006e-02,	 2.8024919999999998e-02,	 1.1773666378378262e+00,	 9.4056300204729524e+01,	 -1.9044760989312280e+01,	 3.1034199719625053e+02,	 1.0511924029191746e+05,	 3.5354871403487567e+02,	 2.7143373647884722e-01 
7.5238600000000003e-02,	 2.8050470000000001e-02,	 1.1770092952382887e+00,	 9.6164294046819663e+01,	 -1.9037122231950939e+01,	 3.1021371283493818e+02,	 1.0504389617388214e+05,	 3.5347563424006142e+02,	 2.7733318416067043e-01 
7.6269539999999997e-02,	 2.8076069999999998e-02,	 1.1767153653386226e+00,	 9.8169509330129088e+01,	 -1.9024746001096560e+01,	 3.1009289460655197e+02,	 1.0497676298458266e+05,	 3.5340679386142767e+02,	 2.8294862823301448e-01 
7.7302999999999997e-02,	 2.8101740000000000e-02,	 1.1764872230629000e+00,	 1.0007773047462237e+02,	 -1.8998614979344275e+01,	 3.0997968779936701e+02,	 1.0491809318647529e+05,	 3.5334227818305072e+02,	 2.8829016723066947e-01 
7.8339069999999997e-02,	 2.8127480000000000e-02,	 1.1763190106711598e+00,	 1.0189716692750810e+02,	 -1.8959498087877069e+01,	 3.0987348107100252e+02,	 1.0486714975279060e+05,	 3.5328174108362953e+02,	 2.9338059971474928e-01 
7.9377859999999995e-02,	 2.8153279999999999e-02,	 1.1762030668002135e+00,	 1.0363210858581799e+02,	 -1.8910781859065001e+01,	 3.0977391071513108e+02,	 1.0482312031983641e+05,	 3.5322497724765083e+02,	 2.9823315238719628e-01 
8.0419459999999998e-02,	 2.8179150000000000e-02,	 1.1761360568211869e+00,	 1.0528468754124651e+02,	 -1.8854776855532808e+01,	 3.0968040617811835e+02,	 1.0478550958271386e+05,	 3.5317166315379194e+02,	 3.0285458120220488e-01 
8.1463969999999997e-02,	 2.8205089999999999e-02,	 1.1761019949712617e+00,	 1.0685532566139595e+02,	 -1.8789025555421702e+01,	 3.0959399812125503e+02,	 1.0475323815510928e+05,	 3.5312238815031958e+02,	 3.0724374649408515e-01 
8.2511509999999996e-02,	 2.8231110000000000e-02,	 1.1761274924345269e+00,	 1.0834515039124683e+02,	 -1.8709706504119566e+01,	 3.0951485808988048e+02,	 1.0472873101796342e+05,	 3.5307725177298641e+02,	 3.1140136125754381e-01 
8.3562150000000002e-02,	 2.8257209999999998e-02,	 1.1762074362390811e+00,	 1.0976087029726826e+02,	 -1.8616944004714206e+01,	 3.0944195495757344e+02,	 1.0471118016228577e+05,	 3.5303566741470433e+02,	 3.1534637932817622e-01 
8.4616010000000005e-02,	 2.8283380000000000e-02,	 1.1763320596204301e+00,	 1.1110740809895445e+02,	 -1.8510411235977863e+01,	 3.0937473775415185e+02,	 1.0469952683841066e+05,	 3.5299732200178084e+02,	 3.1909240757662949e-01 
8.5673189999999996e-02,	 2.8309640000000000e-02,	 1.1765059967493787e+00,	 1.1238868644725237e+02,	 -1.8386775769273214e+01,	 3.0931300171332737e+02,	 1.0469411214071406e+05,	 3.5296209975878935e+02,	 3.2264878382387252e-01 
8.6733779999999996e-02,	 2.8335980000000000e-02,	 1.1767299787057954e+00,	 1.1361115825636629e+02,	 -1.8243349403380140e+01,	 3.0925696204454459e+02,	 1.0469507216591202e+05,	 3.5293012442144817e+02,	 3.2603215216300124e-01 
8.7797890000000003e-02,	 2.8362410000000001e-02,	 1.1770020433482158e+00,	 1.1478006960668422e+02,	 -1.8079198057134654e+01,	 3.0920629280627452e+02,	 1.0470212068010340e+05,	 3.5290121087170536e+02,	 3.2925698384846452e-01 
8.8865630000000001e-02,	 2.8388930000000000e-02,	 1.1773224857444284e+00,	 1.1590099180596509e+02,	 -1.7893162089169927e+01,	 3.0916081283348126e+02,	 1.0471522172395587e+05,	 3.5287525647157349e+02,	 3.3233857534336458e-01 
8.9937080000000003e-02,	 2.8415549999999998e-02,	 1.1776893166906550e+00,	 1.1697981522878527e+02,	 -1.7684354548260377e+01,	 3.0911981595390046e+02,	 1.0473395866925317e+05,	 3.5285185883605993e+02,	 3.3529361413973452e-01 
9.1012360000000000e-02,	 2.8442249999999999e-02,	 1.1781039938544633e+00,	 1.1802334685802418e+02,	 -1.7453472113884175e+01,	 3.0908230577642109e+02,	 1.0475812320196515e+05,	 3.5283044976309372e+02,	 3.3814227332469093e-01 
9.2091569999999998e-02,	 2.8469060000000001e-02,	 1.1785451674788860e+00,	 1.1903664545488006e+02,	 -1.7202887677645883e+01,	 3.0904771093699469e+02,	 1.0478562306283641e+05,	 3.5281070347853534e+02,	 3.4090032013011767e-01 
9.3174809999999997e-02,	 2.8495969999999999e-02,	 1.1790043302228366e+00,	 1.2002302541268928e+02,	 -1.6935766785248706e+01,	 3.0901471838664804e+02,	 1.0481525687674103e+05,	 3.5279187073012162e+02,	 3.4357932061087815e-01 
9.4262189999999996e-02,	 2.8522969999999998e-02,	 1.1794756888629683e+00,	 1.2098670406740436e+02,	 -1.6656575831113706e+01,	 3.0898226152696895e+02,	 1.0484614786640057e+05,	 3.5277334278266432e+02,	 3.4619367646221888e-01 
9.5353800000000002e-02,	 2.8550090000000000e-02,	 1.1799493449552192e+00,	 1.2192968717325753e+02,	 -1.6370736551483542e+01,	 3.0894956073628077e+02,	 1.0487715145164490e+05,	 3.5275467460342014e+02,	 3.4875165530135943e-01 
9.6449759999999995e-02,	 2.8577309999999998e-02,	 1.1804204606005264e+00,	 1.2285286459653204e+02,	 -1.6083234348381204e+01,	 3.0891601813284507e+02,	 1.0490763446779315e+05,	 3.5273552482488100e+02,	 3.5125794972487456e-01 
9.7550170000000005e-02,	 2.8604640000000001e-02,	 1.1808880732105362e+00,	 1.2375601114451700e+02,	 -1.5798096182732280e+01,	 3.0888133386273813e+02,	 1.0493740923691152e+05,	 3.5271572216504592e+02,	 3.5371343795399052e-01 
9.8655129999999994e-02,	 2.8632089999999999e-02,	 1.1813557462689386e+00,	 1.2463720707333059e+02,	 -1.5518517100934121e+01,	 3.0884598587280817e+02,	 1.0496695446765893e+05,	 3.5269553941661093e+02,	 3.5611335828327134e-01 
9.9764749999999999e-02,	 2.8659649999999998e-02,	 1.1818269380776192e+00,	 1.2549285753045569e+02,	 -1.5246284114927786e+01,	 3.0881034226998509e+02,	 1.0499670229258631e+05,	 3.5267518671165146e+02,	 3.5844770156091749e-01 
1.0087910000000000e-01,	 2.8687330000000000e-02,	 1.1823135874550019e+00,	 1.2631994630543633e+02,	 -1.4981422548667716e+01,	 3.0877504374844386e+02,	 1.0502793096489232e+05,	 3.5265502989250672e+02,	 3.6070727593140339e-01 
1.0199840000000000e-01,	 2.8715129999999998e-02,	 1.1828230775936888e+00,	 1.2711488225330194e+02,	 -1.4722668053434623e+01,	 3.0874067565033835e+02,	 1.0506149513850648e+05,	 3.5263540327406020e+02,	 3.6288087731159252e-01 
1.0312259999999999e-01,	 2.8743049999999999e-02,	 1.1833627375091773e+00,	 1.2787499528821064e+02,	 -1.4467925469739090e+01,	 3.0870767455693232e+02,	 1.0509819408942448e+05,	 3.5261655628402377e+02,	 3.6495975391306301e-01 
1.0425200000000000e-01,	 2.8771100000000001e-02,	 1.1839346574655876e+00,	 1.2859912780254163e+02,	 -1.4214675391607264e+01,	 3.0867580032373303e+02,	 1.0513813142333049e+05,	 3.5259835188969811e+02,	 3.6693974883557678e-01 
1.0538649999999999e-01,	 2.8799280000000000e-02,	 1.1845405749570326e+00,	 1.2928815663215332e+02,	 -1.3959426159693310e+01,	 3.0864476749771040e+02,	 1.0518136381205930e+05,	 3.5258062714689362e+02,	 3.6882225657222550e-01 
1.0652630000000000e-01,	 2.8827590000000000e-02,	 1.1851709936607833e+00,	 1.2994324509593719e+02,	 -1.3698190949897739e+01,	 3.0861368093113560e+02,	 1.0522674242602971e+05,	 3.5256287081616711e+02,	 3.7060981262895359e-01 
1.0767160000000001e-01,	 2.8856039999999999e-02,	 1.1858164720545648e+00,	 1.3056708210234362e+02,	 -1.3427260298483564e+01,	 3.0858107556679937e+02,	 1.0527292858040257e+05,	 3.5254424600267515e+02,	 3.7230981419821207e-01 