TITLE = "Final State"
VARIABLES = "X", "Y", "rho", "u", "v", "T", "p", "c", "M"
ZONE I=102, J=27, DATAPACKING=POINT, STRANDID=5000, SOLUTIONTIME=0.000121
1.1564880000000000e+00,	 2.6474300000000001e-01,	 7.0906348002138225e-03,	 1.7483963878246775e+03,	 -3.6901482452814022e+01,	 3.8690920862180053e+02,	 7.8926732098971297e+02,	 3.9476034486435697e+02,	 4.4299935055531128e+00 
1.1578960000000000e+00,	 2.6471329999999998e-01,	 7.0834103695080787e-03,	 1.7489654200975901e+03,	 -3.6912526908267580e+01,	 3.8673851277221820e+02,	 7.8811530804266272e+02,	 3.9467325545853987e+02,	 4.4324130871068732e+00 
1.1593150000000001e+00,	 2.6468330000000001e-01,	 7.0742630491933221e-03,	 1.7496357752578338e+03,	 -3.6957009603615390e+01,	 3.8652928389075993e+02,	 7.8667173113436422e+02,	 3.9456648019204897e+02,	 4.4353135283066436e+00 
1.1607460000000001e+00,	 2.6465299999999997e-01,	 7.0677553258508899e-03,	 1.7501659802469826e+03,	 -3.6971494830134944e+01,	 3.8637822884339937e+02,	 7.8564091242591689e+02,	 3.9448937467250033e+02,	 4.4375249435188548e+00 
1.1621870000000001e+00,	 2.6462259999999999e-01,	 7.0656736612295015e-03,	 1.7504576488717614e+03,	 -3.6946942009748170e+01,	 3.8632509811095429e+02,	 7.8530151637590234e+02,	 3.9446225069340852e+02,	 4.4385680056085164e+00 
1.1636400000000000e+00,	 2.6459189999999999e-01,	 7.0677654048570968e-03,	 1.7504164401773746e+03,	 -3.6946278644597854e+01,	 3.8637871967718411e+02,	 7.8564303082958861e+02,	 3.9448962524129132e+02,	 4.4381555300993840e+00 
1.1651050000000001e+00,	 2.6456089999999999e-01,	 7.0759723509384630e-03,	 1.7499567699390946e+03,	 -3.6928261654983316e+01,	 3.8657636932957763e+02,	 7.8695766112663512e+02,	 3.9459051170904763e+02,	 4.4358551760137068e+00 
1.1665810000000001e+00,	 2.6452969999999998e-01,	 7.0921985095751070e-03,	 1.7489961224644824e+03,	 -3.6852661371227292e+01,	 3.8696138921912450e+02,	 7.8954784759982829e+02,	 3.9478696368818720e+02,	 4.4312109996184876e+00 
1.1680690000000000e+00,	 2.6449829999999996e-01,	 7.1162872154938613e-03,	 1.7474970067718568e+03,	 -3.6756840959556556e+01,	 3.8753400380752447e+02,	 7.9340187186736046e+02,	 3.9507895303549384e+02,	 4.4241373076801400e+00 
1.1695679999999999e+00,	 2.6446660000000000e-01,	 7.1471373285576885e-03,	 1.7454720914445261e+03,	 -3.6705473011091271e+01,	 3.8827369569245747e+02,	 7.9836232429348877e+02,	 3.9545581980898766e+02,	 4.4147990759101949e+00 
1.1710799999999999e+00,	 2.6443459999999996e-01,	 7.1845372179042549e-03,	 1.7429552714212655e+03,	 -3.6659668488485053e+01,	 3.8917842501414498e+02,	 8.0441005861852705e+02,	 3.9591628404212094e+02,	 4.4033065357809562e+00 
1.1726030000000001e+00,	 2.6440239999999998e-01,	 7.2277058954821876e-03,	 1.7400246469041965e+03,	 -3.6569974234725315e+01,	 3.9022028769730275e+02,	 8.1140981084313069e+02,	 3.9644588007921197e+02,	 4.3900289704175091e+00 
1.1741390000000000e+00,	 2.6436999999999999e-01,	 7.2744925364467243e-03,	 1.7367895136546633e+03,	 -3.6462208472761098e+01,	 3.9135088481125717e+02,	 8.1902839788575795e+02,	 3.9701978204007861e+02,	 4.3755306269251761e+00 
1.1756869999999999e+00,	 2.6433730000000000e-01,	 7.3220146587605322e-03,	 1.7333791304641893e+03,	 -3.6391222773659067e+01,	 3.9250828053994042e+02,	 8.2681691862871457e+02,	 3.9760642918582698e+02,	 4.3604956226120759e+00 
1.1772469999999999e+00,	 2.6430429999999999e-01,	 7.3693547628351317e-03,	 1.7299114089847467e+03,	 -3.6317924605953259e+01,	 3.9365691755232695e+02,	 8.3459790277686466e+02,	 3.9818778230066670e+02,	 4.3454186061931956e+00 
1.1788200000000000e+00,	 2.6427109999999998e-01,	 7.4153850753638489e-03,	 1.7264881399442256e+03,	 -3.6225364015873666e+01,	 3.9475776414464377e+02,	 8.4215945044650550e+02,	 3.9874415209707701e+02,	 4.3307673136494529e+00 
1.1804049999999999e+00,	 2.6423759999999996e-01,	 7.4578427627648523e-03,	 1.7231828731661285e+03,	 -3.6165250194024964e+01,	 3.9576087940739455e+02,	 8.4913359296320493e+02,	 3.9925045317985808e+02,	 4.3169953251719191e+00 
1.1820020000000000e+00,	 2.6420379999999999e-01,	 7.4974631791900146e-03,	 1.7200301877435559e+03,	 -3.6100030183070672e+01,	 3.9664954232072409e+02,	 8.5556150654915825e+02,	 3.9969845112680156e+02,	 4.3042673177359392e+00 
1.1836130000000000e+00,	 2.6416980000000001e-01,	 7.5351939626106049e-03,	 1.7170505724333423e+03,	 -3.6016198766322560e+01,	 3.9739178265558962e+02,	 8.6147614472568364e+02,	 4.0007224917950543e+02,	 4.2927952774772429e+00 
1.1852360000000000e+00,	 2.6413549999999997e-01,	 7.5709840505018122e-03,	 1.7142622361589151e+03,	 -3.5964984686566154e+01,	 3.9791590026991764e+02,	 8.6670951050350834e+02,	 4.0033598867974507e+02,	 4.2830010624609409e+00 
1.1868730000000001e+00,	 2.6410089999999997e-01,	 7.6074997101653928e-03,	 1.7116816437976199e+03,	 -3.5930731146940445e+01,	 3.9814390846274239e+02,	 8.7138876750132340e+02,	 4.0045066971285343e+02,	 4.2753299004455707e+00 
1.1885220000000001e+00,	 2.6406599999999997e-01,	 7.6479996775695343e-03,	 1.7093375984977465e+03,	 -3.5896779592326389e+01,	 3.9795905453667831e+02,	 8.7562104060310992e+02,	 4.0035769645475335e+02,	 4.2704673733525578e+00 
1.1901850000000000e+00,	 2.6403090000000001e-01,	 7.6971219269632244e-03,	 1.7072838131303622e+03,	 -3.5858476379628563e+01,	 3.9719290056048737e+02,	 8.7954847686048538e+02,	 3.9997212485850071e+02,	 4.2694483875492582e+00 
1.1918610000000001e+00,	 2.6399549999999999e-01,	 7.7584469696819810e-03,	 1.7056052129173963e+03,	 -3.5844681695654515e+01,	 3.9563076116841512e+02,	 8.8306929661062907e+02,	 3.9918481501386543e+02,	 4.2736641268737587e+00 
1.1935510000000000e+00,	 2.6395979999999997e-01,	 7.8373619920386779e-03,	 1.7044006584158324e+03,	 -3.5854086299204319e+01,	 3.9307050912593161e+02,	 8.8627868602755996e+02,	 3.9789109286955909e+02,	 4.2845335415596297e+00 
1.1952540000000000e+00,	 2.6392379999999999e-01,	 7.9384107124496200e-03,	 1.7037548389824465e+03,	 -3.5929709049336196e+01,	 3.8934277804666738e+02,	 8.8919216069905565e+02,	 3.9599987445885688e+02,	 4.3033691660278617e+00 
1.1969700000000001e+00,	 2.6388750000000000e-01,	 8.0662795385107386e-03,	 1.7037410959081080e+03,	 -3.6046638658723751e+01,	 3.8437498916673610e+02,	 8.9198659316046474e+02,	 3.9346539910220429e+02,	 4.3310603237869589e+00 
1.1987010000000000e+00,	 2.6385090000000000e-01,	 8.2238056536171993e-03,	 1.7044224872190794e+03,	 -3.6133391636936040e+01,	 3.7820563551736495e+02,	 8.9480988219201390e+02,	 3.9029499716423919e+02,	 4.3679920743606733e+00 
1.2004459999999999e+00,	 2.6381410000000000e-01,	 8.4103324538702569e-03,	 1.7058281250173593e+03,	 -3.6236467484532483e+01,	 3.7097393971828404e+02,	 8.9760756299552702e+02,	 3.8654555868501296e+02,	 4.4140022417651075e+00 
1.2022040000000001e+00,	 2.6377689999999998e-01,	 8.6222927086242844e-03,	 1.7079393439778441e+03,	 -3.6390535247447318e+01,	 3.6292834268325214e+02,	 9.0027167262164858e+02,	 3.8233092657832259e+02,	 4.4681893672993578e+00 
1.2039770000000001e+00,	 2.6373940000000001e-01,	 8.8571134344962929e-03,	 1.7106872362982826e+03,	 -3.6515624102551676e+01,	 3.5442451340687370e+02,	 9.0312090670170915e+02,	 3.7782514915346536e+02,	 4.5287533650794396e+00 
1.2057640000000001e+00,	 2.6370169999999998e-01,	 9.1072270682667541e-03,	 1.7139752531772083e+03,	 -3.6628016677883735e+01,	 3.4581148908471198e+02,	 9.0605700070876890e+02,	 3.7320606730323294e+02,	 4.5936192708637833e+00 
1.2075659999999999e+00,	 2.6366360000000000e-01,	 9.3629876927453053e-03,	 1.7176843565651288e+03,	 -3.6764896593296953e+01,	 3.3741151492868443e+02,	 9.0887527650723985e+02,	 3.6864549962805933e+02,	 4.6605146860108997e+00 
1.2093820000000000e+00,	 2.6362520000000000e-01,	 9.6169007238976513e-03,	 1.7216706560726611e+03,	 -3.6880011982922838e+01,	 3.2952599218301731e+02,	 9.1170586079199609e+02,	 3.6431229202989243e+02,	 4.7268940766897698e+00 
1.2112130000000001e+00,	 2.6358650000000000e-01,	 9.8601756526057859e-03,	 1.7257864988917017e+03,	 -3.6970079611338548e+01,	 3.2237525117752568e+02,	 9.1448436071237700e+02,	 3.6033780883830468e+02,	 4.7904560683526203e+00 
1.2130580000000000e+00,	 2.6354749999999999e-01,	 1.0085094854137186e-02,	 1.7298878687851682e+03,	 -3.7037222821804512e+01,	 3.1610426191887905e+02,	 9.1714980076739471e+02,	 3.5681587008418330e+02,	 4.8492358534509412e+00 
1.2149190000000001e+00,	 2.6350819999999997e-01,	 1.0286056944955838e-02,	 1.7338449769781319e+03,	 -3.7079916396366627e+01,	 3.1078424719719817e+02,	 9.1968236571010891e+02,	 3.5380053502017154e+02,	 4.9017490211365127e+00 
1.2167939999999999e+00,	 2.6346860000000000e-01,	 1.0458557887737994e-02,	 1.7375488967247243e+03,	 -3.7121584926589378e+01,	 3.0641464063443453e+02,	 9.2195824869219700e+02,	 3.5130452412078864e+02,	 4.9471192974581530e+00 
1.2186850000000000e+00,	 2.6342860000000001e-01,	 1.0601322923951512e-02,	 1.7409118452861258e+03,	 -3.7157870671533217e+01,	 3.0295042725530567e+02,	 9.2397787166022499e+02,	 3.4931301820578574e+02,	 4.9849511943578717e+00 
1.2205910000000000e+00,	 2.6338829999999996e-01,	 1.0716138168226523e-02,	 1.7438697226832853e+03,	 -3.7162131333952161e+01,	 3.0031344535094934e+02,	 9.2585508992622260e+02,	 3.4778942679124373e+02,	 5.0152923255666293e+00 
1.2225130000000000e+00,	 2.6334769999999996e-01,	 1.0805092155210781e-02,	 1.7463903748520188e+03,	 -3.7144852180086517e+01,	 2.9838583354373355e+02,	 9.2754846927908875e+02,	 3.4667145778979852e+02,	 5.0387342746967745e+00 
1.2244500000000000e+00,	 2.6330680000000001e-01,	 1.0870777383334800e-02,	 1.7484675934948323e+03,	 -3.7131612764408231e+01,	 2.9703161069745590e+02,	 9.2895186268201121e+02,	 3.4588387969454953e+02,	 5.0562108483432882e+00 
1.2264029999999999e+00,	 2.6326549999999999e-01,	 1.0916952554561599e-02,	 1.7501102106650665e+03,	 -3.7123583415335730e+01,	 2.9612155609219820e+02,	 9.3003947689938616e+02,	 3.4535360837108544e+02,	 5.0687291497303493e+00 
1.2283720000000000e+00,	 2.6322390000000001e-01,	 1.0948607500007644e-02,	 1.7513383737007805e+03,	 -3.7093563851925623e+01,	 2.9554189262588210e+02,	 9.3091038356764250e+02,	 3.4501542472660128e+02,	 5.0772546015418047e+00 
1.2303569999999999e+00,	 2.6318199999999997e-01,	 1.0967857277521535e-02,	 1.7521814192313823e+03,	 -3.7066107595745223e+01,	 2.9517748217135602e+02,	 9.3139725112869712e+02,	 3.4480265284723714e+02,	 5.0828304655230214e+00 
1.2323580000000001e+00,	 2.6313969999999998e-01,	 1.0976748375833595e-02,	 1.7526655446481154e+03,	 -3.7051676255679666e+01,	 2.9493637597161137e+02,	 9.3139089020606730e+02,	 3.4466180361992156e+02,	 5.0863110508905418e+00 
1.2343750000000000e+00,	 2.6309709999999997e-01,	 1.0976906344411213e-02,	 1.7528087882747604e+03,	 -3.7030446823910211e+01,	 2.9475324454351824e+02,	 9.3082596795720690e+02,	 3.4455478357367144e+02,	 5.0883052195381993e+00 
1.2364090000000001e+00,	 2.6305410000000001e-01,	 1.0968964932030641e-02,	 1.7526268761990518e+03,	 -3.7024063477908598e+01,	 2.9456798782738565e+02,	 9.2956793308679596e+02,	 3.4444648769947810e+02,	 5.0893766084379832e+00 
1.2384590000000000e+00,	 2.6301069999999999e-01,	 1.0953656889715063e-02,	 1.7521272709090367e+03,	 -3.7000717019445233e+01,	 2.9435408069222859e+02,	 9.2759656435292925e+02,	 3.4432140122484685e+02,	 5.0897734042589979e+00 
1.2405260000000000e+00,	 2.6296710000000001e-01,	 1.0931474077343815e-02,	 1.7513190839794843e+03,	 -3.6956157638925404e+01,	 2.9408602856415200e+02,	 9.2487504029243667e+02,	 3.4416458820234237e+02,	 5.0897420105776812e+00 
1.2426100000000000e+00,	 2.6292299999999996e-01,	 1.0899911363098371e-02,	 1.7502201976336469e+03,	 -3.6941813093094240e+01,	 2.9373610351094624e+02,	 9.2110731934443447e+02,	 3.4395977116564245e+02,	 5.0895778096974951e+00 
1.2447109999999999e+00,	 2.6287859999999996e-01,	 1.0862548291842692e-02,	 1.7488569526513190e+03,	 -3.6894608334307108e+01,	 2.9332048565757430e+02,	 9.1665107707736354e+02,	 3.4371634445680638e+02,	 5.0892141427532565e+00 
1.2468300000000001e+00,	 2.6283390000000001e-01,	 1.0818683668593437e-02,	 1.7472841252794060e+03,	 -3.6856646079597823e+01,	 2.9283429705390989e+02,	 9.1143625591020577e+02,	 3.4343136559714515e+02,	 5.0888561098519443e+00 
1.2489650000000001e+00,	 2.6278869999999999e-01,	 1.0769294060365954e-02,	 1.7455726822201148e+03,	 -3.6847008537185673e+01,	 2.9229238279263296e+02,	 9.0559636555567533e+02,	 3.4311344426825394e+02,	 5.0885838687347587e+00 
1.2511180000000000e+00,	 2.6274320000000001e-01,	 1.0719845591282771e-02,	 1.7438058762247042e+03,	 -3.6800135215257910e+01,	 2.9174096285380170e+02,	 8.9973761913772842e+02,	 3.4278964364463349e+02,	 5.0882346310480768e+00 
1.2532880000000000e+00,	 2.6269739999999997e-01,	 1.0671075429463626e-02,	 1.7420821851795135e+03,	 -3.6761244812491398e+01,	 2.9119691767103672e+02,	 8.9397402625699215e+02,	 3.4246987353455694e+02,	 5.0879512118572325e+00 
1.2554770000000000e+00,	 2.6265109999999997e-01,	 1.0625071392243439e-02,	 1.7404908888783789e+03,	 -3.6744707505683294e+01,	 2.9068634851649176e+02,	 8.8855932885806351e+02,	 3.4216950760414647e+02,	 5.0877669647761588e+00 
1.2576830000000001e+00,	 2.6260449999999996e-01,	 1.0585475862137730e-02,	 1.7390997296563341e+03,	 -3.6716403650253213e+01,	 2.9024285734939286e+02,	 8.8389741653479086e+02,	 3.4190838925615759e+02,	 5.0875828879609610e+00 
1.2599070000000001e+00,	 2.6255750000000000e-01,	 1.0552413406759636e-02,	 1.7379503584733086e+03,	 -3.6699045042686492e+01,	 2.8987446445530054e+02,	 8.8001828047109041e+02,	 3.4169133548365249e+02,	 5.0874505976868347e+00 
1.2621500000000001e+00,	 2.6251009999999997e-01,	 1.0526551140548726e-02,	 1.7370531143127753e+03,	 -3.6687339023974701e+01,	 2.8958663196222750e+02,	 8.7698981980652593e+02,	 3.4152165117646069e+02,	 5.0873509531246670e+00 
1.2644110000000000e+00,	 2.6246229999999998e-01,	 1.0507729318588297e-02,	 1.7363897780646384e+03,	 -3.6671348571500559e+01,	 2.8937743617770877e+02,	 8.7478933314476410e+02,	 3.4139827221249595e+02,	 5.0872459323574297e+00 
1.2666900000000001e+00,	 2.6241419999999999e-01,	 1.0494935667589703e-02,	 1.7359280072717957e+03,	 -3.6659186181270542e+01,	 2.8923321442181577e+02,	 8.7328878408414721e+02,	 3.4131318749541146e+02,	 5.0871607385557285e+00 
1.2689880000000000e+00,	 2.6236559999999998e-01,	 1.0485669359568659e-02,	 1.7356255180725807e+03,	 -3.6670843804081812e+01,	 2.8913332673641048e+02,	 8.7221640301474270e+02,	 3.4125424556440589e+02,	 5.0871539152827330e+00 
1.2713049999999999e+00,	 2.6231660000000001e-01,	 1.0480657630105372e-02,	 1.7354354827623965e+03,	 -3.6662733777248341e+01,	 2.8907771217456559e+02,	 8.7163182861806649e+02,	 3.4122142399678955e+02,	 5.0870859364037271e+00 
1.2736410000000000e+00,	 2.6226729999999998e-01,	 1.0478355417656404e-02,	 1.7353231785638122e+03,	 -3.6647172944288563e+01,	 2.8904993884594603e+02,	 8.7135663917841850e+02,	 3.4120503206829380e+02,	 5.0870002969543053e+00 
1.2759970000000000e+00,	 2.6221749999999999e-01,	 1.0476374397617880e-02,	 1.7352626197561704e+03,	 -3.6657905633646422e+01,	 2.8903009198510642e+02,	 8.7113208385369626e+02,	 3.4119331789000489e+02,	 5.0869981614148605e+00 
1.2783709999999999e+00,	 2.6216729999999999e-01,	 1.0475476550243289e-02,	 1.7352312501511183e+03,	 -3.6664608307576579e+01,	 2.8902103450810313e+02,	 8.7103012924586164e+02,	 3.4118797177738981e+02,	 5.0869863633357273e+00 
1.2807649999999999e+00,	 2.6211669999999998e-01,	 1.0475462842605227e-02,	 1.7352144572142552e+03,	 -3.6658749471174083e+01,	 2.8902120253250246e+02,	 8.7102949584206908e+02,	 3.4118807095338195e+02,	 5.0869353139118783e+00 
1.2831790000000001e+00,	 2.6206570000000001e-01,	 1.0475916387774351e-02,	 1.7352055237454729e+03,	 -3.6647194863108794e+01,	 2.8902520969382317e+02,	 8.7107928488828225e+02,	 3.4119043616204164e+02,	 5.0868731575554849e+00 
1.2856129999999999e+00,	 2.6201429999999998e-01,	 1.0475975491001491e-02,	 1.7352031993577398e+03,	 -3.6648767947114223e+01,	 2.8902592630673485e+02,	 8.7108635913783053e+02,	 3.4119085913781009e+02,	 5.0868601376374327e+00 
1.2880670000000001e+00,	 2.6196239999999998e-01,	 1.0475608767835362e-02,	 1.7352036334265681e+03,	 -3.6661642080627800e+01,	 2.8902404693260200e+02,	 8.7105020180193958e+02,	 3.4118974984923244e+02,	 5.0868787450724327e+00 
1.2905409999999999e+00,	 2.6191009999999998e-01,	 1.0475824158570481e-02,	 1.7352035461332966e+03,	 -3.6659230957591717e+01,	 2.8902647772548733e+02,	 8.7107543759625219e+02,	 3.4119118460852235e+02,	 5.0868569489352629e+00 
1.2930349999999999e+00,	 2.6185739999999996e-01,	 1.0476388477413428e-02,	 1.7352027750503387e+03,	 -3.6646832575969356e+01,	 2.8903157026772072e+02,	 8.7113771014385372e+02,	 3.4119419042805373e+02,	 5.0868091083787021e+00 
1.2955500000000000e+00,	 2.6180429999999999e-01,	 1.0476490004947917e-02,	 1.7352041526613107e+03,	 -3.6643414492702767e+01,	 2.8903385174254697e+02,	 8.7115302881498542e+02,	 3.4119553703600297e+02,	 5.0867928572784944e+00 
1.2980849999999999e+00,	 2.6175070000000000e-01,	 1.0476381834372817e-02,	 1.7352054721553741e+03,	 -3.6646205093534135e+01,	 2.8903310568323650e+02,	 8.7114178547967708e+02,	 3.4119509668572942e+02,	 5.0868034614476860e+00 
1.3006420000000001e+00,	 2.6169670000000000e-01,	 1.0476387544269236e-02,	 1.7352079929475331e+03,	 -3.6647219014662582e+01,	 2.8903293244195584e+02,	 8.7114173812715171e+02,	 3.4119499443259093e+02,	 5.0868124351447745e+00 
1.3032189999999999e+00,	 2.6164219999999999e-01,	 1.0476072781538434e-02,	 1.7352099437304801e+03,	 -3.6651360417856530e+01,	 2.8903090523720039e+02,	 8.7110945491444784e+02,	 3.4119379790228169e+02,	 5.0868362466097361e+00 
1.3058179999999999e+00,	 2.6158729999999997e-01,	 1.0476162156433107e-02,	 1.7352115707639475e+03,	 -3.6646374863512058e+01,	 2.8903150777897264e+02,	 8.7111870265621121e+02,	 3.4119415354488740e+02,	 5.0868354033950238e+00 
1.3084389999999999e+00,	 2.6153189999999998e-01,	 1.0476050852167126e-02,	 1.7352126239016570e+03,	 -3.6643800255934110e+01,	 2.8903096571005176e+02,	 8.7110781369555809e+02,	 3.4119383359562863e+02,	 5.0868431001121248e+00 
1.3110809999999999e+00,	 2.6147609999999999e-01,	 1.0476011509196352e-02,	 1.7352145354664235e+03,	 -3.6643261762086553e+01,	 2.8902966993141371e+02,	 8.7110063691585754e+02,	 3.4119306877761778e+02,	 5.0868600707931506e+00 
1.3137440000000000e+00,	 2.6141979999999998e-01,	 1.0475365801001814e-02,	 1.7352172876337847e+03,	 -3.6654541895344664e+01,	 2.8902430189454014e+02,	 8.7103076740966196e+02,	 3.4118990033909932e+02,	 5.0869160722978961e+00 
1.3164300000000000e+00,	 2.6136300000000001e-01,	 1.0475138637131912e-02,	 1.7352180519306930e+03,	 -3.6653210920522199e+01,	 2.8902223436034865e+02,	 8.7100564786494419e+02,	 3.4118867998662085e+02,	 5.0869364242289912e+00 
1.3191379999999999e+00,	 2.6130579999999998e-01,	 1.0475246525884385e-02,	 1.7352181050680249e+03,	 -3.6645121776241027e+01,	 2.8902242216189495e+02,	 8.7101518476270121e+02,	 3.4118879083579378e+02,	 5.0869344266012684e+00 
1.3218680000000000e+00,	 2.6124809999999998e-01,	 1.0474725709477875e-02,	 1.7352188819196026e+03,	 -3.6648409566500987e+01,	 2.8901919308182335e+02,	 8.7096214809206560e+02,	 3.4118688487812767e+02,	 5.0869653233947387e+00 
1.3246210000000000e+00,	 2.6118989999999997e-01,	 1.0474799964081263e-02,	 1.7352172897292630e+03,	 -3.6641880630227135e+01,	 2.8901879721201351e+02,	 8.7096712931629304e+02,	 3.4118665121607904e+02,	 5.0869637375910353e+00 
1.3273969999999999e+00,	 2.6113130000000001e-01,	 1.0474776613628570e-02,	 1.7352166124898049e+03,	 -3.6640013916287728e+01,	 2.8901805107478981e+02,	 8.7096293925128498e+02,	 3.4118621080834873e+02,	 5.0869682038933730e+00 
1.3301959999999999e+00,	 2.6107209999999997e-01,	 1.0474242188082256e-02,	 1.7352154810135316e+03,	 -3.6645588377091812e+01,	 2.8901447233593359e+02,	 8.7090771845244126e+02,	 3.4118409844871394e+02,	 5.0869967280030828e+00 
1.3330180000000000e+00,	 2.6101249999999998e-01,	 1.0474503961607699e-02,	 1.7352131176368800e+03,	 -3.6637388025603343e+01,	 2.8901540815735257e+02,	 8.7093230433053850e+02,	 3.4118465082092928e+02,	 5.0869810593940183e+00 
1.3358630000000000e+00,	 2.6095239999999997e-01,	 1.0473922363448022e-02,	 1.7352132212688991e+03,	 -3.6649571983499072e+01,	 2.8901061958193202e+02,	 8.7086951639212623e+02,	 3.4118182433632995e+02,	 5.0870242595872366e+00 
1.3387309999999999e+00,	 2.6089170000000000e-01,	 1.0473446725518608e-02,	 1.7352112535506876e+03,	 -3.6659894497500844e+01,	 2.8900751851655923e+02,	 8.7082062483474954e+02,	 3.4117999390189652e+02,	 5.0870464243975251e+00 
1.3416239999999999e+00,	 2.6083059999999997e-01,	 1.0474180550919528e-02,	 1.7352071774866499e+03,	 -3.6643931658405904e+01,	 2.8901253931424344e+02,	 8.7089676859605026e+02,	 3.4118295747234680e+02,	 5.0869893052637360e+00 
1.3445400000000001e+00,	 2.6076899999999997e-01,	 1.0473978730429816e-02,	 1.7352046512528605e+03,	 -3.6647973550462638e+01,	 2.8901257024934364e+02,	 8.7088008104286007e+02,	 3.4118297573198481e+02,	 5.0869818804642604e+00 
1.3474809999999999e+00,	 2.6070680000000002e-01,	 1.0473986290462816e-02,	 1.7352009292185612e+03,	 -3.6648044515038428e+01,	 2.8901336021340029e+02,	 8.7088309003336656e+02,	 3.4118344201292058e+02,	 5.0869640259382187e+00 
1.3504460000000000e+00,	 2.6064419999999999e-01,	 1.0474513520497605e-02,	 1.7351974238759626e+03,	 -3.6640190978075829e+01,	 2.8901761086467172e+02,	 8.7093973687697337e+02,	 3.4118595097392182e+02,	 5.0869158605012563e+00 
1.3534360000000001e+00,	 2.6058100000000001e-01,	 1.0474350202094262e-02,	 1.7351948274461583e+03,	 -3.6647381603854328e+01,	 2.8901753506107218e+02,	 8.7092592877548429e+02,	 3.4118590623075755e+02,	 5.0869093642514080e+00 
1.3564499999999999e+00,	 2.6051730000000001e-01,	 1.0474584624057259e-02,	 1.7351919445209242e+03,	 -3.6647104133556901e+01,	 2.8901981225917569e+02,	 8.7095228286330928e+02,	 3.4118725034707222e+02,	 5.0868808592612673e+00 
1.3594889999999999e+00,	 2.6045309999999999e-01,	 1.0474772474424673e-02,	 1.7351899181418235e+03,	 -3.6647596002508891e+01,	 2.8902196122660894e+02,	 8.7097437841543115e+02,	 3.4118851877036991e+02,	 5.0868560405494687e+00 
1.3625540000000000e+00,	 2.6038829999999996e-01,	 1.0474718445928915e-02,	 1.7351881712953359e+03,	 -3.6652708884587589e+01,	 2.8902306172376893e+02,	 8.7097320231782999e+02,	 3.4118916833457070e+02,	 5.0868415537829232e+00 
1.3656440000000001e+00,	 2.6032299999999997e-01,	 1.0475219320441858e-02,	 1.7351854428287684e+03,	 -3.6644433393373092e+01,	 2.8902822401047456e+02,	 8.7103040738522725e+02,	 3.4119221533786617e+02,	 5.0867876187089252e+00 
1.3687600000000000e+00,	 2.6025719999999997e-01,	 1.0475620573779132e-02,	 1.7351842008783563e+03,	 -3.6641754860816810e+01,	 2.8903174679489251e+02,	 8.7107438906209086e+02,	 3.4119429462088675e+02,	 5.0867528142098495e+00 
1.3719010000000000e+00,	 2.6019080000000000e-01,	 1.0475292012819087e-02,	 1.7351853976450586e+03,	 -3.6656734806202181e+01,	 2.8902963098019313e+02,	 8.7104069201302718e+02,	 3.4119304578709415e+02,	 5.0867758666522809e+00 
1.3750690000000001e+00,	 2.6012380000000002e-01,	 1.0475063220644452e-02,	 1.7351866312479012e+03,	 -3.6663338532087963e+01,	 2.8902804784912701e+02,	 8.7101689656878420e+02,	 3.4119211136032249e+02,	 5.0867938214514945e+00 
1.1564880000000000e+00,	 2.6548889999999997e-01,	 7.3032769730954402e-03,	 1.7559481804452844e+03,	 -3.7021863217578456e+01,	 3.7594440631690611e+02,	 7.8989858556872286e+02,	 3.8912649322138230e+02,	 4.5135410885186067e+00 
1.1578970000000000e+00,	 2.6545979999999997e-01,	 7.2960203015389634e-03,	 1.7564876156182863e+03,	 -3.7023032611913784e+01,	 3.7577845106656042e+02,	 7.8876538476883809e+02,	 3.8904059659438326e+02,	 4.5159239708201300e+00 
1.1593160000000000e+00,	 2.6543040000000001e-01,	 7.2872540074922750e-03,	 1.7571238819142000e+03,	 -3.7037277734173230e+01,	 3.7557806252377611e+02,	 7.8739755598290344e+02,	 3.8893685238822206e+02,	 4.5187648590900205e+00 
1.1607460000000001e+00,	 2.6540079999999999e-01,	 7.2804940887366189e-03,	 1.7576309294791588e+03,	 -3.7049165376147243e+01,	 3.7542219577251990e+02,	 7.8634066695900265e+02,	 3.8885613865568325e+02,	 4.5210071069829461e+00 
1.1621880000000000e+00,	 2.6537089999999997e-01,	 7.2778487785971476e-03,	 1.7579167556011853e+03,	 -3.7024370243288374e+01,	 3.7535484464600995e+02,	 7.8591393721150155e+02,	 3.8882125649632673e+02,	 4.5221463010335716e+00 
1.1636409999999999e+00,	 2.6534079999999999e-01,	 7.2803096243887729e-03,	 1.7578891967536597e+03,	 -3.6980735297686586e+01,	 3.7540088101315541e+02,	 7.8627609990673500e+02,	 3.8884509976032285e+02,	 4.5217957919175777e+00 
1.1651050000000001e+00,	 2.6531050000000000e-01,	 7.2888593153964919e-03,	 1.7574655414471431e+03,	 -3.6925291523700849e+01,	 3.7558425698606732e+02,	 7.8758400117256258e+02,	 3.8894005977035141e+02,	 4.5195997803675505e+00 
1.1665820000000000e+00,	 2.6527990000000001e-01,	 7.3050705833915472e-03,	 1.7565697968760260e+03,	 -3.6843639746018340e+01,	 3.7594170918929001e+02,	 7.9008690826113570e+02,	 3.8912509736912892e+02,	 4.5151447686625996e+00 
1.1680690000000000e+00,	 2.6524910000000002e-01,	 7.3295598201334093e-03,	 1.7551641609596545e+03,	 -3.6743936019053749e+01,	 3.7648487768659385e+02,	 7.9388092616159747e+02,	 3.8940610397176948e+02,	 4.5082722474481045e+00 
1.1695690000000001e+00,	 2.6521810000000001e-01,	 7.3614502842801145e-03,	 1.7532502068365256e+03,	 -3.6631826324315703e+01,	 3.7720230580981837e+02,	 7.9885445184860896e+02,	 3.8977695276481808e+02,	 4.4990675801517641e+00 
1.1710799999999999e+00,	 2.6518670000000000e-01,	 7.3998796401854696e-03,	 1.7508619437307948e+03,	 -3.6493114050903266e+01,	 3.7807829211874639e+02,	 8.0488963703588558e+02,	 3.9022928466406250e+02,	 4.4877262757809255e+00 
1.1726040000000000e+00,	 2.6515519999999998e-01,	 7.4438577898933312e-03,	 1.7480722414864772e+03,	 -3.6336293895231989e+01,	 3.7908884609742285e+02,	 8.1183731929116254e+02,	 3.9075045264166300e+02,	 4.4745945678789667e+00 
1.1741400000000000e+00,	 2.6512340000000001e-01,	 7.4917224742718485e-03,	 1.7449877323704929e+03,	 -3.6171406982761511e+01,	 3.8019731127438831e+02,	 8.1944660367576842e+02,	 3.9132131764211420e+02,	 4.4601776273608529e+00 
1.1756869999999999e+00,	 2.6509129999999997e-01,	 7.5409057934408674e-03,	 1.7417362595582672e+03,	 -3.6028638049148185e+01,	 3.8134599359539322e+02,	 8.2731831896194990e+02,	 3.9191201733777933e+02,	 4.4451529357167807e+00 
1.1772469999999999e+00,	 2.6505899999999999e-01,	 7.5893632803112473e-03,	 1.7384332122686642e+03,	 -3.5911807354527120e+01,	 3.8248716354331646e+02,	 8.3512626725932284e+02,	 3.9249797357679489e+02,	 4.4300970071597856e+00 
1.1788200000000000e+00,	 2.6502650000000000e-01,	 7.6359712897681358e-03,	 1.7351730246759571e+03,	 -3.5804168190065973e+01,	 3.8358910961809971e+02,	 8.4267574377040944e+02,	 3.9306296055391959e+02,	 4.4154310057461377e+00 
1.1804049999999999e+00,	 2.6499360000000000e-01,	 7.6793113596256898e-03,	 1.7320254958280357e+03,	 -3.5717966510019110e+01,	 3.8461362530297356e+02,	 8.4972203292028178e+02,	 3.9358752007294044e+02,	 4.4015464355227945e+00 
1.1820029999999999e+00,	 2.6496049999999999e-01,	 7.7190622786239569e-03,	 1.7290270912595659e+03,	 -3.5649689232821849e+01,	 3.8553053500033388e+02,	 8.5615670724550364e+02,	 3.9405639241825992e+02,	 4.3886981772238425e+00 
1.1836130000000000e+00,	 2.6492719999999997e-01,	 7.7561952682681443e-03,	 1.7261944359546260e+03,	 -3.5578148657405599e+01,	 3.8631837801941845e+02,	 8.6203329589371413e+02,	 3.9445881986018952e+02,	 4.3770374906645895e+00 
1.1852370000000001e+00,	 2.6489360000000001e-01,	 7.7913332926636209e-03,	 1.7235398987947335e+03,	 -3.5525919186280262e+01,	 3.8692890427427272e+02,	 8.6730708409372926e+02,	 3.9477039239417007e+02,	 4.3668573593535225e+00 
1.1868730000000001e+00,	 2.6485969999999998e-01,	 7.8263075209719334e-03,	 1.7210737073080154e+03,	 -3.5503408204432098e+01,	 3.8729408565872598e+02,	 8.7202254092323324e+02,	 3.9495663952881210e+02,	 4.3585540526880040e+00 
1.1885230000000000e+00,	 2.6482549999999999e-01,	 7.8637455562282268e-03,	 1.7188126768771090e+03,	 -3.5514431209089487e+01,	 3.8731549337623022e+02,	 8.7624239197782674e+02,	 3.9496755501092559e+02,	 4.3527107957274902e+00 
1.1901850000000000e+00,	 2.6479110000000000e-01,	 7.9077660791926352e-03,	 1.7167905515126477e+03,	 -3.5554294197210112e+01,	 3.8685857769612392e+02,	 8.8010802734280435e+02,	 3.9473451485675378e+02,	 4.3501609501985472e+00 
1.1918620000000000e+00,	 2.6475640000000000e-01,	 7.9623109706217707e-03,	 1.7150649789416793e+03,	 -3.5649710962595563e+01,	 3.8574748001143769e+02,	 8.8363349560673623e+02,	 3.9416724815802633e+02,	 4.3520496901759049e+00 
1.1935510000000000e+00,	 2.6472140000000000e-01,	 8.0320747032398259e-03,	 1.7137123059936739e+03,	 -3.5803622614695009e+01,	 3.8379617858670468e+02,	 8.8686664761648524e+02,	 3.9316903781031965e+02,	 4.3596675037302646e+00 
1.1952540000000000e+00,	 2.6468609999999998e-01,	 8.1216824821110662e-03,	 1.7128182851285012e+03,	 -3.5981800179459327e+01,	 3.8083492606117784e+02,	 8.8984161925921455e+02,	 3.9164931540381878e+02,	 4.3743117055939580e+00 
1.1969710000000000e+00,	 2.6465060000000001e-01,	 8.2352054287935118e-03,	 1.7124555129562229e+03,	 -3.6227322314518730e+01,	 3.7675234105381907e+02,	 8.9260709440480991e+02,	 3.8954440086304663e+02,	 4.3970306446353522e+00 
1.1987019999999999e+00,	 2.6461469999999998e-01,	 8.3759394589520975e-03,	 1.7126724831157298e+03,	 -3.6521438579327352e+01,	 3.7154040392587871e+02,	 8.9530192029921625e+02,	 3.8684056687325466e+02,	 4.4283407209866867e+00 
1.2004459999999999e+00,	 2.6457860000000000e-01,	 8.5452553150601636e-03,	 1.7135126027591780e+03,	 -3.6810260064763227e+01,	 3.6529731475227379e+02,	 8.9805195028848664e+02,	 3.8357670704022115e+02,	 4.4682273739619758e+00 
1.2022050000000000e+00,	 2.6454220000000001e-01,	 8.7405967060091069e-03,	 1.7149829058926357e+03,	 -3.7118299253994849e+01,	 3.5821148222423108e+02,	 9.0076296631425146e+02,	 3.7983828634993603e+02,	 4.5160917321502207e+00 