TITLE = "Final State"
VARIABLES = "X", "Y", "rho", "u", "v", "T", "p", "c", "M"
ZONE I=82, J=25, DATAPACKING=POINT, STRANDID=28000, SOLUTIONTIME=0.000676
8.4940000000000004e-01,	 2.6635680000000000e-01,	 2.7498128808212795e-02,	 1.6045833812055175e+03,	 3.6830790788090258e+02,	 4.5196930402800774e+02,	 3.5755431185266589e+03,	 4.2666150082016395e+02,	 3.8585871512307692e+00 
8.5141040000000001e-01,	 2.6661879999999999e-01,	 2.7562909523150741e-02,	 1.6045814520479826e+03,	 3.6897924050775021e+02,	 4.5165977936911406e+02,	 3.5815120362853836e+03,	 4.2651537931113063e+02,	 3.8602571053707369e+00 
8.5342070000000003e-01,	 2.6688079999999997e-01,	 2.7567809426542821e-02,	 1.6049456755344556e+03,	 3.6885119225015069e+02,	 4.5087522576903109e+02,	 3.5759263720939721e+03,	 4.2614477998800714e+02,	 3.8643798471185158e+00 
8.5538060000000005e-01,	 2.6713609999999999e-01,	 2.7547833146766891e-02,	 1.6053819558361547e+03,	 3.6857057749870046e+02,	 4.5017753436097638e+02,	 3.5678057371847581e+03,	 4.2581494077515487e+02,	 3.8682242608787401e+00 
8.5734049999999995e-01,	 2.6739140000000000e-01,	 2.7527410208154631e-02,	 1.6057031149984314e+03,	 3.6844026579533886e+02,	 4.4963407557859637e+02,	 3.5608568014077109e+03,	 4.2555783914887411e+02,	 3.8712283074034133e+00 
8.5925130000000005e-01,	 2.6764019999999999e-01,	 2.7513364993889254e-02,	 1.6058851990279413e+03,	 3.6852207369826328e+02,	 4.4927239751809333e+02,	 3.5561771262269012e+03,	 4.2538664894515620e+02,	 3.8732464354490297e+00 
8.6116210000000004e-01,	 2.6788899999999999e-01,	 2.7506655304936574e-02,	 1.6059480585960155e+03,	 3.6877671781222750e+02,	 4.4907228193074502e+02,	 3.5537262692355343e+03,	 4.2529190021256193e+02,	 3.8743873569963370e+00 
8.6302509999999999e-01,	 2.6813139999999996e-01,	 2.7502559223324792e-02,	 1.6059221363877473e+03,	 3.6911004650417328e+02,	 4.4899658888192977e+02,	 3.5525981688607885e+03,	 4.2525605632007199e+02,	 3.8748300147474790e+00 
8.6488799999999999e-01,	 2.6837390000000000e-01,	 2.7500340364827736e-02,	 1.6058315155753226e+03,	 3.6948414099198214e+02,	 4.4901464809688468e+02,	 3.5524544299356621e+03,	 4.2526460840432048e+02,	 3.8747415689615199e+00 
8.6670449999999999e-01,	 2.6861019999999997e-01,	 2.7498345451727843e-02,	 1.6056983288032125e+03,	 3.6989263540614974e+02,	 4.4910881966366992e+02,	 3.5529417299713568e+03,	 4.2530920130909504e+02,	 3.8742456262018816e+00 
8.6852099999999999e-01,	 2.6884649999999999e-01,	 2.7497075917577867e-02,	 1.6055655733201031e+03,	 3.7032918318341899e+02,	 4.4925886669552318e+02,	 3.5539646802311463e+03,	 4.2538024317146471e+02,	 3.8735249993685716e+00 
8.7029219999999996e-01,	 2.6907680000000000e-01,	 2.7496717909154075e-02,	 1.6053638984064671e+03,	 3.7077928721272315e+02,	 4.4945020395162385e+02,	 3.5554320053394381e+03,	 4.2547081725957361e+02,	 3.8724764592204823e+00 
8.7206329999999999e-01,	 2.6930709999999997e-01,	 2.7495709907638145e-02,	 1.6051041278812920e+03,	 3.7121892010246222e+02,	 4.4965976256932481e+02,	 3.5569593457061064e+03,	 4.2556999474911015e+02,	 3.8712118879225295e+00 
8.7379050000000003e-01,	 2.6953159999999998e-01,	 2.7492821764329232e-02,	 1.6048752705830325e+03,	 3.7163415936141359e+02,	 4.4983376951962475e+02,	 3.5579620321624698e+03,	 4.2565232919439427e+02,	 3.8701592015664934e+00 
8.7551760000000001e-01,	 2.6975610000000000e-01,	 2.7489709215800955e-02,	 1.6046433316546131e+03,	 3.7204045623293513e+02,	 4.5006199608100343e+02,	 3.5593641786774442e+03,	 4.2576029446435359e+02,	 3.8688625035238560e+00 
8.7720189999999998e-01,	 2.6997489999999996e-01,	 2.7486123895238461e-02,	 1.6044031115955631e+03,	 3.7245970847343926e+02,	 4.5035575452305488e+02,	 3.5612228693516777e+03,	 4.2589922007895848e+02,	 3.8672735385745005e+00 
8.7888619999999995e-01,	 2.7019369999999998e-01,	 2.7483415354800752e-02,	 1.6041631437009291e+03,	 3.7288768550272806e+02,	 4.5061478555207816e+02,	 3.5629200449618297e+03,	 4.2602168465651380e+02,	 3.8658404944881193e+00 
8.8052880000000000e-01,	 2.7040700000000001e-01,	 2.7480782642361094e-02,	 1.6039253836324547e+03,	 3.7331234590578333e+02,	 4.5086516119661201e+02,	 3.5645582229725010e+03,	 4.2614002369547956e+02,	 3.8644492842259854e+00 
8.8217140000000005e-01,	 2.7062029999999998e-01,	 2.7478190556100401e-02,	 1.6036925554999939e+03,	 3.7373287776241500e+02,	 4.5110970421214586e+02,	 3.5661551856419073e+03,	 4.2625557425114039e+02,	 3.8630934993090853e+00 
8.8377340000000004e-01,	 2.7082819999999996e-01,	 2.7474337208414586e-02,	 1.6034670132011504e+03,	 3.7414519441755579e+02,	 4.5134612199407957e+02,	 3.5675237833513020e+03,	 4.2636725572955464e+02,	 3.8617860600256031e+00 
8.8537540000000003e-01,	 2.7103610000000000e-01,	 2.7472500899933139e-02,	 1.6032481557106330e+03,	 3.7454924823054591e+02,	 4.5157317552171810e+02,	 3.5690798933644687e+03,	 4.2647448609310555e+02,	 3.8605307451669888e+00 
8.8693800000000000e-01,	 2.7123890000000000e-01,	 2.7471978600454937e-02,	 1.6030377811794738e+03,	 3.7494748815416972e+02,	 4.5178789310167940e+02,	 3.5707090610509258e+03,	 4.2657586577177807e+02,	 3.8593455323424011e+00 
8.8850059999999997e-01,	 2.7144160000000001e-01,	 2.7470060477417763e-02,	 1.6028353278874290e+03,	 3.7534305237986052e+02,	 4.5199320923259984e+02,	 3.5720823546188722e+03,	 4.2667278399306554e+02,	 3.8582181416801160e+00 
8.9002470000000000e-01,	 2.7163919999999997e-01,	 2.7468882316956211e-02,	 1.6026405984178232e+03,	 3.7573142614662282e+02,	 4.5218693787827817e+02,	 3.5734601152238856e+03,	 4.2676421223105336e+02,	 3.8571549211790850e+00 
8.9154889999999998e-01,	 2.7183689999999999e-01,	 2.7468036551496922e-02,	 1.6024557664426998e+03,	 3.7611361041276609e+02,	 4.5236911629803200e+02,	 3.5747897304946391e+03,	 4.2685017159221348e+02,	 3.8561610756036973e+00 
8.9303569999999999e-01,	 2.7202959999999998e-01,	 2.7466538383056918e-02,	 1.6022777771336278e+03,	 3.7649049818555551e+02,	 4.5254032710051592e+02,	 3.5759476513489385e+03,	 4.2693094019932107e+02,	 3.8552275116044581e+00 
8.9452259999999995e-01,	 2.7222229999999997e-01,	 2.7466203379592519e-02,	 1.6021071953568244e+03,	 3.7686051425144001e+02,	 4.5270214021065408e+02,	 3.5771826585836557e+03,	 4.2700726140737379e+02,	 3.8543478824354400e+00 
8.9597309999999997e-01,	 2.7241029999999999e-01,	 2.7465953495474614e-02,	 1.6019456398315333e+03,	 3.7722118765591222e+02,	 4.5285343271120234e+02,	 3.5783455930035434e+03,	 4.2707860809864599e+02,	 3.8535292367935368e+00 
8.9742359999999999e-01,	 2.7259820000000001e-01,	 2.7465919757683276e-02,	 1.6017896071938824e+03,	 3.7757722815238191e+02,	 4.5299630880813754e+02,	 3.5794701708211132e+03,	 4.2714597483149373e+02,	 3.8527570730790210e+00 
8.9883880000000005e-01,	 2.7278150000000001e-01,	 2.7466096824138805e-02,	 1.6016420377153627e+03,	 3.7792561202512309e+02,	 4.5312914037097448e+02,	 3.5805428573403669e+03,	 4.2720859599149526e+02,	 3.8520433147721089e+00 
9.0025409999999995e-01,	 2.7296470000000000e-01,	 2.7466484474790338e-02,	 1.6014995326227386e+03,	 3.7826992322708463e+02,	 4.5325390876490223e+02,	 3.5815793031027738e+03,	 4.2726740754981944e+02,	 3.8513736471583089e+00 
9.0163490000000002e-01,	 2.7314349999999998e-01,	 2.7467420610052421e-02,	 1.6013659217534810e+03,	 3.7860555591422292e+02,	 4.5336897155663110e+02,	 3.5826106221977961e+03,	 4.2732163704467462e+02,	 3.8507612290435760e+00 
9.0301580000000004e-01,	 2.7332220000000002e-01,	 2.7467717942625456e-02,	 1.6012364009796438e+03,	 3.7893889026769500e+02,	 4.5347717565311018e+02,	 3.5835044629333520e+03,	 4.2737262773438528e+02,	 3.8501864005679165e+00 
9.0436329999999998e-01,	 2.7349649999999998e-01,	 2.7468437090571604e-02,	 1.6011134925981196e+03,	 3.7926439608173030e+02,	 4.5357736174258957e+02,	 3.5843900041481515e+03,	 4.2741983455097869e+02,	 3.8496567996821542e+00 
9.0571080000000004e-01,	 2.7367089999999999e-01,	 2.7469738055603023e-02,	 1.6009968651178772e+03,	 3.7958510680065115e+02,	 4.5367029456515695e+02,	 3.5852942040375819e+03,	 4.2746361903031215e+02,	 3.8491700109292197e+00 
9.0702579999999999e-01,	 2.7384090000000000e-01,	 2.7470066575809589e-02,	 1.6008838837272601e+03,	 3.7989997992520802e+02,	 4.5375712970546954e+02,	 3.5860233362532927e+03,	 4.2750452658780478e+02,	 3.8487145306352546e+00 
9.0834079999999995e-01,	 2.7401100000000000e-01,	 2.7471593968525436e-02,	 1.6007775313981024e+03,	 3.8020906846438925e+02,	 4.5383732029589464e+02,	 3.5868565046634349e+03,	 4.2754230045808106e+02,	 3.8482994593448456e+00 
9.0962430000000005e-01,	 2.7417690000000000e-01,	 2.7472234524651126e-02,	 1.6006746969321171e+03,	 3.8051207000294289e+02,	 4.5391217130772071e+02,	 3.5875317305774074e+03,	 4.2757755610250553e+02,	 3.8479119859014319e+00 
9.1090780000000005e-01,	 2.7434280000000000e-01,	 2.7473236848375378e-02,	 1.6005770484907121e+03,	 3.8080990336068254e+02,	 4.5398187238788978e+02,	 3.5882135298244721e+03,	 4.2761038345919809e+02,	 3.8475555707786815e+00 
9.1216059999999999e-01,	 2.7450469999999999e-01,	 2.7473886949883675e-02,	 1.6004841077543447e+03,	 3.8109983175882468e+02,	 4.5404662598102232e+02,	 3.5888102540907421e+03,	 4.2764087842296186e+02,	 3.8472267592424658e+00 
9.1341340000000004e-01,	 2.7466649999999998e-01,	 2.7474316692274493e-02,	 1.6003938799322952e+03,	 3.8138629105141058e+02,	 4.5410753362727735e+02,	 3.5893478147355449e+03,	 4.2766956019749381e+02,	 3.8469187255137403e+00 
9.1463640000000002e-01,	 2.7482439999999997e-01,	 2.7474510267414258e-02,	 1.6003086291057502e+03,	 3.8166505836532275e+02,	 4.5416413859530041e+02,	 3.5898205231427360e+03,	 4.2769621409072278e+02,	 3.8466362459823009e+00 
9.1585939999999999e-01,	 2.7498240000000002e-01,	 2.7475399010396390e-02,	 1.6002277954515316e+03,	 3.8193709274037246e+02,	 4.5421658695362515e+02,	 3.5903512239445249e+03,	 4.2772090925574440e+02,	 3.8463779267186373e+00 
9.1705340000000002e-01,	 2.7513650000000001e-01,	 2.7475573698774687e-02,	 1.6001483858607326e+03,	 3.8220520909497827e+02,	 4.5426586688089992e+02,	 3.5907635866211999e+03,	 4.2774411127458961e+02,	 3.8461342873580033e+00 
9.1824740000000005e-01,	 2.7529060000000000e-01,	 2.7476156655527832e-02,	 1.6000732509247819e+03,	 3.8246871958515487e+02,	 4.5431168015761261e+02,	 3.5912019134828133e+03,	 4.2776567999315989e+02,	 3.8459126856040879e+00 
9.1941329999999999e-01,	 2.7544099999999999e-01,	 2.7476479516111155e-02,	 1.6000003233845314e+03,	 3.8272725324018609e+02,	 4.5435445093305066e+02,	 3.5915822066961723e+03,	 4.2778581533201009e+02,	 3.8457064103362510e+00 
9.2057920000000004e-01,	 2.7559139999999999e-01,	 2.7476859958952157e-02,	 1.5999306374374887e+03,	 3.8298173560439659e+02,	 4.5439449569435169e+02,	 3.5919484865144454e+03,	 4.2780466647718021e+02,	 3.8455169648520089e+00 
9.2171780000000003e-01,	 2.7573829999999999e-01,	 2.7477458863529820e-02,	 1.5998639450854712e+03,	 3.8322975861214923e+02,	 4.5443165273983294e+02,	 3.5923205086750086e+03,	 4.2782215748185746e+02,	 3.8453431476464526e+00 
9.2285629999999996e-01,	 2.7588509999999999e-01,	 2.7477929440176664e-02,	 1.5997979766134579e+03,	 3.8347631927950545e+02,	 4.5446695443676015e+02,	 3.5926610981217586e+03,	 4.2783877445247691e+02,	 3.8451781422235740e+00 
9.2396829999999996e-01,	 2.7602840000000001e-01,	 2.7478322212611789e-02,	 1.5997342081380755e+03,	 3.8371870661278854e+02,	 4.5450026048592838e+02,	 3.5929757473980330e+03,	 4.2785445145391139e+02,	 3.8450244143175949e+00 
9.2508029999999997e-01,	 2.7617169999999996e-01,	 2.7478784725623404e-02,	 1.5996729803866024e+03,	 3.8395756066503958e+02,	 4.5453183852677637e+02,	 3.5932858632092830e+03,	 4.2786931455944710e+02,	 3.8448819473631595e+00 
9.2616650000000000e-01,	 2.7631169999999999e-01,	 2.7479551507115573e-02,	 1.5996138660242996e+03,	 3.8419066814507198e+02,	 4.5456152220668025e+02,	 3.5936208018829125e+03,	 4.2788328555921612e+02,	 3.8447492587931373e+00 
9.2725270000000004e-01,	 2.7645159999999996e-01,	 2.7480242088386300e-02,	 1.5995542108129121e+03,	 3.8442350744238695e+02,	 4.5459029146356966e+02,	 3.5939385586436470e+03,	 4.2789682573891918e+02,	 3.8446191564806012e+00 
9.2831390000000003e-01,	 2.7658820000000001e-01,	 2.7481006001685758e-02,	 1.5994964818734720e+03,	 3.8465242937698338e+02,	 4.5461790849739316e+02,	 3.5942568084027553e+03,	 4.2790982322463105e+02,	 3.8444962564761012e+00 
9.2937510000000001e-01,	 2.7672490000000000e-01,	 2.7482801047484184e-02,	 1.5994407612305431e+03,	 3.8487788729884625e+02,	 4.5464398923243425e+02,	 3.5946977939820567e+03,	 4.2792209731508819e+02,	 3.8443826109792192e+00 
9.3041189999999996e-01,	 2.7685830000000000e-01,	 2.7483489836240303e-02,	 1.5993843171974027e+03,	 3.8510091109499035e+02,	 4.5467007514248036e+02,	 3.5949941428115098e+03,	 4.2793437348884873e+02,	 3.8442660549138656e+00 
9.3144879999999997e-01,	 2.7699180000000001e-01,	 2.7485299072075829e-02,	 1.5993303064887423e+03,	 3.8531984232204275e+02,	 4.5469545856750182e+02,	 3.5954315163430724e+03,	 4.2794631873120574e+02,	 3.8441558413060655e+00 
9.3246200000000001e-01,	 2.7712209999999998e-01,	 2.7486520349730703e-02,	 1.5992749407111478e+03,	 3.8553494669396838e+02,	 4.5472148080199747e+02,	 3.5957970510022424e+03,	 4.2795856424622264e+02,	 3.8440378351239510e+00 
9.3347530000000001e-01,	 2.7725250000000001e-01,	 2.7489920200160712e-02,	 1.5992207863538681e+03,	 3.8574546871860855e+02,	 4.5474696870541806e+02,	 3.5964433961287773e+03,	 4.2797055797663637e+02,	 3.8439224082466898e+00 
9.3446560000000001e-01,	 2.7737980000000001e-01,	 2.7493548230273258e-02,	 1.5991643182335295e+03,	 3.8595238987459771e+02,	 4.5477321408071509e+02,	 3.5971256363999387e+03,	 4.2798290779601138e+02,	 3.8437966275920026e+00 
9.3545599999999995e-01,	 2.7750720000000001e-01,	 2.7498451548106026e-02,	 1.5991093966576393e+03,	 3.8615294752893760e+02,	 4.5480086182817826e+02,	 3.5979858880331344e+03,	 4.2799591711928548e+02,	 3.8436650191442148e+00 
9.3642409999999998e-01,	 2.7763159999999998e-01,	 2.7502271247762174e-02,	 1.5990519241373700e+03,	 3.8634268617884095e+02,	 4.5483315424413513e+02,	 3.5987411746118069e+03,	 4.2801111143620221e+02,	 3.8435021290714548e+00 
9.3739229999999996e-01,	 2.7775600000000000e-01,	 2.7507057865069302e-02,	 1.5989925284707906e+03,	 3.8651508388214086e+02,	 4.5487317833124280e+02,	 3.5996842500962998e+03,	 4.2802994293188249e+02,	 3.8432927611301686e+00 
9.3833889999999998e-01,	 2.7787760000000000e-01,	 2.7513415897561469e-02,	 1.5989282983946750e+03,	 3.8665689669545623e+02,	 4.5492545929939917e+02,	 3.6009301140905709e+03,	 4.2805454009205721e+02,	 3.8430039216932279e+00 
9.3928550000000000e-01,	 2.7799920000000000e-01,	 2.7522791039751533e-02,	 1.5988557958534057e+03,	 3.8675064343706288e+02,	 4.5499901871576924e+02,	 3.6027395766532068e+03,	 4.2808914594754214e+02,	 3.8425801238998205e+00 
9.4021120000000002e-01,	 2.7811799999999998e-01,	 2.7536551847256979e-02,	 1.5987835497842634e+03,	 3.8676942715040036e+02,	 4.5510629484879644e+02,	 3.6053907201071470e+03,	 4.2813960873945183e+02,	 3.8419735190272051e+00 
9.4113680000000000e-01,	 2.7823690000000001e-01,	 2.7560188206766204e-02,	 1.5986764022435889e+03,	 3.8665616607162190e+02,	 4.5527225166709900e+02,	 3.6098013069171134e+03,	 4.2821766326408692e+02,	 3.8409678247521857e+00 
9.4204230000000000e-01,	 2.7835309999999996e-01,	 2.7596626563160098e-02,	 1.5985028077194688e+03,	 3.8632715905866377e+02,	 4.5553200020653810e+02,	 3.6166361995884154e+03,	 4.2833980232673349e+02,	 3.8392981647056725e+00 
9.4294770000000006e-01,	 2.7846929999999998e-01,	 2.7658460902219337e-02,	 1.5982679094506104e+03,	 3.8563016536734773e+02,	 4.5596148339834360e+02,	 3.6281572752944371e+03,	 4.2854167772139954e+02,	 3.8365749694812785e+00 
9.4383349999999999e-01,	 2.7858289999999997e-01,	 2.7759603166741025e-02,	 1.5979116896427454e+03,	 3.8434315741912928e+02,	 4.5667558451767934e+02,	 3.6471278202456110e+03,	 4.2887712531729005e+02,	 3.8320638760406864e+00 
9.4471930000000004e-01,	 2.7869650000000001e-01,	 2.7928812341959229e-02,	 1.5973684110107984e+03,	 3.8202543734695962e+02,	 4.5788507394651253e+02,	 3.6790771252050758e+03,	 4.2944468286409494e+02,	 3.8245104629014266e+00 
9.4558609999999998e-01,	 2.7880759999999999e-01,	 2.8203690178602851e-02,	 1.5965278683726206e+03,	 3.7809419286134346e+02,	 4.5988167649589548e+02,	 3.7314873925776210e+03,	 4.3037995868540361e+02,	 3.8121844795516511e+00 
9.4645279999999998e-01,	 2.7891879999999997e-01,	 2.8647625371143133e-02,	 1.5952620214927176e+03,	 3.7156321937543350e+02,	 4.6317562730224518e+02,	 3.8173700739567071e+03,	 4.3191852938465900e+02,	 3.7922943351704901e+00 
9.4730119999999995e-01,	 2.7902749999999998e-01,	 2.9326096606417079e-02,	 1.5934160983116826e+03,	 3.6140496324846208e+02,	 4.6832387769882081e+02,	 3.9512135219310812e+03,	 4.3431230806328614e+02,	 3.7620106179324155e+00 
9.4814949999999998e-01,	 2.7913620000000000e-01,	 3.0328452328964389e-02,	 1.5908705878820206e+03,	 3.4637252074088684e+02,	 4.7601444102002324e+02,	 4.1533670618441802e+03,	 4.3786380901446631e+02,	 3.7183731039563774e+00 
9.4898000000000005e-01,	 2.7924250000000000e-01,	 3.1701827819186429e-02,	 1.5874823945929302e+03,	 3.2609592002526517e+02,	 4.8651278243701518e+02,	 4.4371948021790213e+03,	 4.4266594693093373e+02,	 3.6610658214427989e+00 
9.4981050000000000e-01,	 2.7934890000000001e-01,	 3.3484439569216082e-02,	 1.5832647156371681e+03,	 3.0062209726079385e+02,	 4.9980252302109881e+02,	 4.8147242163507244e+03,	 4.4867121588522008e+02,	 3.5918334844929549e+00 
9.5062369999999996e-01,	 2.7945300000000001e-01,	 3.5613368442982359e-02,	 1.5783229313347620e+03,	 2.7154695327427987e+02,	 5.1506061485171494e+02,	 5.2771730053513074e+03,	 4.5546830159041485e+02,	 3.5161878438166294e+00 
9.5143690000000003e-01,	 2.7955710000000000e-01,	 3.8013125132739981e-02,	 1.5728465941872630e+03,	 2.4039141035339446e+02,	 5.3147911630857050e+02,	 5.8123226819236152e+03,	 4.6267079727605704e+02,	 3.4389701705353035e+00 
9.5223340000000001e-01,	 2.7965899999999999e-01,	 4.0516560375090514e-02,	 1.5670670804763720e+03,	 2.0943402222021581e+02,	 5.4788270216709088e+02,	 6.3863114659730290e+03,	 4.6975648157641785e+02,	 3.3655741411657250e+00 
9.5302989999999999e-01,	 2.7976089999999998e-01,	 4.3022900360271912e-02,	 1.5611664696298076e+03,	 1.8031835073149307e+02,	 5.6362868740492786e+02,	 6.9762608628629077e+03,	 4.7645899612527620e+02,	 3.2983857473592115e+00 
9.5381020000000005e-01,	 2.7986069999999996e-01,	 4.5051403473449554e-02,	 1.5569353769526890e+03,	 1.6000703125115442e+02,	 5.7516535406308765e+02,	 7.4547138941149733e+03,	 4.8131051037770118e+02,	 3.2518213271467622e+00 
8.4940000000000004e-01,	 2.6784360000000002e-01,	 2.7282921545066383e-02,	 1.6048896516365367e+03,	 3.6479138377078607e+02,	 4.5202289830367880e+02,	 3.5479806877102487e+03,	 4.2668679671531862e+02,	 3.8572229361298289e+00 
8.5140930000000004e-01,	 2.6809469999999996e-01,	 2.7364909369171398e-02,	 1.6047125650842283e+03,	 3.6604884683586818e+02,	 4.5208363903865086e+02,	 3.5591209074839353e+03,	 4.2671546384604426e+02,	 3.8572134243223042e+00 
8.5341869999999997e-01,	 2.6834569999999996e-01,	 2.7432144345980316e-02,	 1.6047000983604987e+03,	 3.6713024065518704e+02,	 4.5187991077706107e+02,	 3.5662577556663700e+03,	 4.2661930487413196e+02,	 3.8586188652696141e+00 
8.5537759999999996e-01,	 2.6859040000000001e-01,	 2.7452414547504370e-02,	 1.6048936139694008e+03,	 3.6750382689649427e+02,	 4.5143670820080729e+02,	 3.5653925798318728e+03,	 4.2641004002829015e+02,	 3.8611503820005777e+00 
8.5733649999999995e-01,	 2.6883509999999999e-01,	 2.7451926045601215e-02,	 1.6051634484929943e+03,	 3.6759686936711825e+02,	 4.5093757940730217e+02,	 3.5613871467044132e+03,	 4.2617424574408227e+02,	 3.8639525979042291e+00 
8.5924639999999997e-01,	 2.6907349999999997e-01,	 2.7445855953303563e-02,	 1.6054038194291029e+03,	 3.6765906674691468e+02,	 4.5048690706211937e+02,	 3.5570411574689192e+03,	 4.2596123071988791e+02,	 3.8664675442978247e+00 
8.6115629999999999e-01,	 2.6931189999999999e-01,	 2.7441933238092998e-02,	 1.6055768700335516e+03,	 3.6780275744095445e+02,	 4.5012671896305750e+02,	 3.5536891292789237e+03,	 4.2579090740536901e+02,	 3.8684857015750560e+00 
8.6301839999999996e-01,	 2.6954430000000001e-01,	 2.7440947374807408e-02,	 1.6056769270285777e+03,	 3.6803708715002858e+02,	 4.4986496515096184e+02,	 3.5514950250147558e+03,	 4.2566708827189541e+02,	 3.8699630546564530e+00 
8.6488050000000005e-01,	 2.6977659999999998e-01,	 2.7442615898759265e-02,	 1.6057137313184210e+03,	 3.6834031393041789e+02,	 4.4968958360100294e+02,	 3.5503263228214123e+03,	 4.2558410622510286e+02,	 3.8709611706118343e+00 
8.6669620000000003e-01,	 2.7000310000000000e-01,	 2.7445750258655126e-02,	 1.6056881022670916e+03,	 3.6869521638438954e+02,	 4.4959278576442625e+02,	 3.5499675115085456e+03,	 4.2553829925136620e+02,	 3.8715057176360554e+00 
8.6851179999999994e-01,	 2.7022950000000001e-01,	 2.7450027928980963e-02,	 1.6055977808281837e+03,	 3.6909085019646437e+02,	 4.4956244363180485e+02,	 3.5502811886363520e+03,	 4.2552393963776194e+02,	 3.8716376804123516e+00 
8.7028220000000001e-01,	 2.7045019999999997e-01,	 2.7455070178937949e-02,	 1.6055029935033685e+03,	 3.6951618537471160e+02,	 4.4958718289654200e+02,	 3.5511287405056269e+03,	 4.2553564769380785e+02,	 3.8715381353099199e+00 
8.7205270000000001e-01,	 2.7067099999999999e-01,	 2.7460137131516571e-02,	 1.6053969771104912e+03,	 3.6995879119597134e+02,	 4.4965841672155625e+02,	 3.5523468711617688e+03,	 4.2556935787551811e+02,	 3.8712221123049604e+00 
8.7377910000000003e-01,	 2.7088609999999996e-01,	 2.7464044838416919e-02,	 1.6052429475429349e+03,	 3.7039459717190499e+02,	 4.4978352122052638e+02,	 3.5538408656719234e+03,	 4.2562855496453142e+02,	 3.8705611332630321e+00 
8.7550559999999999e-01,	 2.7110119999999999e-01,	 2.7466951461231716e-02,	 1.6050793391269108e+03,	 3.7082337270455230e+02,	 4.4990736635991357e+02,	 3.5551956138625660e+03,	 4.2568714804013990e+02,	 3.8698804876338975e+00 
8.7718920000000000e-01,	 2.7131089999999997e-01,	 2.7468943302118080e-02,	 1.6049030110817737e+03,	 3.7125011456916479e+02,	 4.5002547492448389e+02,	 3.5563867973722422e+03,	 4.2574301954006995e+02,	 3.8691948737753283e+00 
8.7887280000000001e-01,	 2.7152060000000000e-01,	 2.7470728706488538e-02,	 1.6047132134006883e+03,	 3.7168144284204470e+02,	 4.5018404591155104e+02,	 3.5578711625386618e+03,	 4.2581802034408526e+02,	 3.8683075618107909e+00 
8.8051480000000004e-01,	 2.7172499999999999e-01,	 2.7472105441392884e-02,	 1.6045161874782298e+03,	 3.7211185944835216e+02,	 4.5035954705217222e+02,	 3.5594365513550147e+03,	 4.2590101336324147e+02,	 3.8673312777101563e+00 
8.8215679999999996e-01,	 2.7192939999999999e-01,	 2.7473482987857938e-02,	 1.6043148631163999e+03,	 3.7254084609806523e+02,	 4.5054502509336612e+02,	 3.5610810412145752e+03,	 4.2598870680113100e+02,	 3.8663024304341378e+00 
8.8375820000000005e-01,	 2.7212870000000000e-01,	 2.7474733959038086e-02,	 1.6041126937632253e+03,	 3.7296229959747529e+02,	 4.5073505860989604e+02,	 3.5627452726373658e+03,	 4.2607853533449725e+02,	 3.8652490080369164e+00 
8.8535969999999997e-01,	 2.7232800000000001e-01,	 2.7475016616855058e-02,	 1.6039106230031932e+03,	 3.7337883210315010e+02,	 4.5092809114903014e+02,	 3.5643077287294896e+03,	 4.2616976211622756e+02,	 3.8641812553134600e+00 
8.8692170000000004e-01,	 2.7252219999999999e-01,	 2.7474586816823101e-02,	 1.6037117300032601e+03,	 3.7378759603113986e+02,	 4.5111999696534491e+02,	 3.5657688442643889e+03,	 4.2626043705763607e+02,	 3.8631223746419350e+00 
8.8848369999999999e-01,	 2.7271649999999997e-01,	 2.7474022271472155e-02,	 1.6035157157486406e+03,	 3.7419083920619789e+02,	 4.5131056407948972e+02,	 3.5672018358503828e+03,	 4.2635046038299691e+02,	 3.8620737595537213e+00 
8.9000740000000000e-01,	 2.7290589999999998e-01,	 2.7472809231942640e-02,	 1.6033231971091034e+03,	 3.7458632915827741e+02,	 4.5149755916670273e+02,	 3.5685222976957871e+03,	 4.2643877782032183e+02,	 3.8610451506525827e+00 
8.9153110000000002e-01,	 2.7309539999999999e-01,	 2.7471387863683170e-02,	 1.6031358569021370e+03,	 3.7497567642483489e+02,	 4.5168036772293163e+02,	 3.5697824698305944e+03,	 4.2652510028903333e+02,	 3.8600438258041621e+00 
8.9301750000000002e-01,	 2.7327999999999997e-01,	 2.7470711183533850e-02,	 1.6029536610251030e+03,	 3.7535484248883881e+02,	 4.5185727672710749e+02,	 3.5710926754677503e+03,	 4.2660862035005164e+02,	 3.8590748093842917e+00 
8.9450390000000002e-01,	 2.7346470000000000e-01,	 2.7471122254448654e-02,	 1.6027745965841189e+03,	 3.7573015694330456e+02,	 4.5202892809140815e+02,	 3.5725027187724327e+03,	 4.2668964261343655e+02,	 3.8581340823648529e+00 
8.9595400000000003e-01,	 2.7364479999999997e-01,	 2.7471521805101731e-02,	 1.6026026552122523e+03,	 3.7609798900103920e+02,	 4.5219311483679292e+02,	 3.5738523082553365e+03,	 4.2676712706075250e+02,	 3.8572381663624080e+00 
8.9740410000000004e-01,	 2.7382489999999998e-01,	 2.7471770395640728e-02,	 1.6024353765994210e+03,	 3.7646159678811722e+02,	 4.5235116196260833e+02,	 3.5751337653390719e+03,	 4.2684170075841303e+02,	 3.8563774687492862e+00 
8.9881889999999998e-01,	 2.7400059999999998e-01,	 2.7471816398547476e-02,	 1.6022752643499184e+03,	 3.7681715979326685e+02,	 4.5250142871258828e+02,	 3.5763273794794482e+03,	 4.2691259124651441e+02,	 3.8555625810475918e+00 
9.0023379999999997e-01,	 2.7417619999999998e-01,	 2.7471654342394833e-02,	 1.6021193824430432e+03,	 3.7716843199277457e+02,	 4.5264547437426927e+02,	 3.5774447352850893e+03,	 4.2698053579830440e+02,	 3.8547821092046930e+00 
9.0161429999999998e-01,	 2.7434749999999997e-01,	 2.7471675082050302e-02,	 1.6019704614040454e+03,	 3.7751200650755720e+02,	 4.5278141873111196e+02,	 3.5785218614589808e+03,	 4.2704464914971561e+02,	 3.8540483954321281e+00 
9.0299479999999999e-01,	 2.7451880000000001e-01,	 2.7471723746366344e-02,	 1.6018273414303319e+03,	 3.7785072539128953e+02,	 4.5291073185910079e+02,	 3.5795502183943936e+03,	 4.2710562618499574e+02,	 3.8533540001401621e+00 
9.0434199999999998e-01,	 2.7468589999999998e-01,	 2.7471470411898208e-02,	 1.6016891040420999e+03,	 3.7818297522180728e+02,	 4.5303290816990227e+02,	 3.5804828125974309e+03,	 4.2716322988854336e+02,	 3.8526980589536524e+00 
9.0568919999999997e-01,	 2.7485290000000001e-01,	 2.7471836034715903e-02,	 1.6015569285992369e+03,	 3.7851038645493122e+02,	 4.5314835346154160e+02,	 3.5814428839057041e+03,	 4.2721765291336334e+02,	 3.8520823568133862e+00 
9.0700389999999997e-01,	 2.7501589999999998e-01,	 2.7471760509874345e-02,	 1.6014297750284766e+03,	 3.7883047906214699e+02,	 4.5325736987012817e+02,	 3.5822946430753113e+03,	 4.2726903888118301e+02,	 3.8515018558293157e+00 
9.0831870000000003e-01,	 2.7517890000000000e-01,	 2.7472156141416706e-02,	 1.6013075451694758e+03,	 3.7914558742916381e+02,	 4.5336056981794667e+02,	 3.5831618799446073e+03,	 4.2731767750885780e+02,	 3.8509549431226584e+00 
9.0960189999999996e-01,	 2.7533789999999997e-01,	 2.7472430933088435e-02,	 1.6011907901301249e+03,	 3.7945306757649325e+02,	 4.5345765052843893e+02,	 3.5839650114775004e+03,	 4.2736342705780362e+02,	 3.8504426933416647e+00 
9.1088510000000000e-01,	 2.7549679999999999e-01,	 2.7472920109379084e-02,	 1.6010779828378884e+03,	 3.7975615138737766e+02,	 4.5354938730725200e+02,	 3.5847538950234289e+03,	 4.2740665376430638e+02,	 3.8499600426078362e+00 
9.1213770000000005e-01,	 2.7565200000000001e-01,	 2.7473679224650858e-02,	 1.6009707734391973e+03,	 3.8005146987391009e+02,	 4.5363501094702315e+02,	 3.5855297157782074e+03,	 4.2744699599311218e+02,	 3.8495121587801537e+00 
9.1339029999999999e-01,	 2.7580709999999997e-01,	 2.7474346023925591e-02,	 1.6008680265276898e+03,	 3.8034224066888095e+02,	 4.5371575706284489e+02,	 3.5862549708296219e+03,	 4.2748503665142107e+02,	 3.8490929184064742e+00 
9.1461309999999996e-01,	 2.7595839999999999e-01,	 2.7475002477761804e-02,	 1.6007687000729927e+03,	 3.8062658587099418e+02,	 4.5379124948900335e+02,	 3.5869373790727259e+03,	 4.2752059915918801e+02,	 3.8487005021963276e+00 
9.1583590000000004e-01,	 2.7610980000000002e-01,	 2.7475953445766151e-02,	 1.6006743947571385e+03,	 3.8090598825551240e+02,	 4.5386179721770276e+02,	 3.5876191857555909e+03,	 4.2755382967559143e+02,	 3.8483380170580674e+00 
9.1702980000000001e-01,	 2.7625749999999999e-01,	 2.7476344040545862e-02,	 1.6005844127632338e+03,	 3.8117903481650023e+02,	 4.5392765478098192e+02,	 3.5881907753743722e+03,	 4.2758484862473694e+02,	 3.8480020056862165e+00 
9.1822360000000003e-01,	 2.7640519999999996e-01,	 2.7476917809968509e-02,	 1.6004976135009138e+03,	 3.8144823624945923e+02,	 4.5398953713762273e+02,	 3.5887548806834052e+03,	 4.2761399319885726e+02,	 3.8476881808071770e+00 
9.1938940000000002e-01,	 2.7654930000000000e-01,	 2.7477331944411133e-02,	 1.6004146939675497e+03,	 3.8171130003556874e+02,	 4.5404733299675433e+02,	 3.5892658497286479e+03,	 4.2764121137192973e+02,	 3.8473973381192628e+00 
9.2055509999999996e-01,	 2.7669349999999998e-01,	 2.7477820843948279e-02,	 1.6003340836831208e+03,	 3.8197100825743092e+02,	 4.5410179486510845e+02,	 3.5897602442614175e+03,	 4.2766685786218204e+02,	 3.8471242087260409e+00 
9.2169350000000005e-01,	 2.7683419999999997e-01,	 2.7478411278681447e-02,	 1.6002573309142560e+03,	 3.8222449043756205e+02,	 4.5415254571939386e+02,	 3.5902385835811087e+03,	 4.2769075542462025e+02,	 3.8468723380673731e+00 
9.2283199999999999e-01,	 2.7697489999999997e-01,	 2.7478897739756314e-02,	 1.6001834842551191e+03,	 3.8247456394846563e+02,	 4.5420051155326240e+02,	 3.5906813367950140e+03,	 4.2771334034930806e+02,	 3.8466371557147623e+00 
9.2394390000000004e-01,	 2.7711219999999998e-01,	 2.7479345859614729e-02,	 1.6001120619825454e+03,	 3.8271948128712222e+02,	 4.5424574751511386e+02,	 3.5910975114893440e+03,	 4.2773463880906218e+02,	 3.8464163713745054e+00 
9.2505579999999998e-01,	 2.7724959999999998e-01,	 2.7479890097968911e-02,	 1.6000420626884641e+03,	 3.8296191068493169e+02,	 4.5428875617603677e+02,	 3.5915086516417964e+03,	 4.2775488760469722e+02,	 3.8462070208098442e+00 