TITLE = "Final State"
VARIABLES = "X", "Y", "rho", "u", "v", "T", "p", "c", "M"
ZONE I=98, J=27, DATAPACKING=POINT, STRANDID=45000, SOLUTIONTIME=0.001086
1.3750690000000001e+00,	 2.6012380000000002e-01,	 4.6746926936989751e-02,	 1.4933491830503776e+03,	 -3.1347230279028501e+01,	 6.8679746894863831e+02,	 9.2365905005412496e+03,	 5.2594863166916218e+02,	 2.8399696572526407e+00 
1.3782630000000000e+00,	 2.6005629999999996e-01,	 4.6657613769203327e-02,	 1.4937055525610804e+03,	 -3.1294566261233985e+01,	 6.8628050694624892e+02,	 9.2120041424182309e+03,	 5.2575064998299194e+02,	 2.8417146840548022e+00 
1.3814830000000000e+00,	 2.5998830000000001e-01,	 4.6502065741746951e-02,	 1.4943919953845923e+03,	 -3.1253468827945142e+01,	 6.8538019038596258e+02,	 9.1692482505317112e+03,	 5.2540567634927311e+02,	 2.8448850895555853e+00 
1.3847300000000000e+00,	 2.5991969999999998e-01,	 4.6319131978389882e-02,	 1.4951831244774467e+03,	 -3.1225257982201043e+01,	 6.8432452137901578e+02,	 9.1191099466619562e+03,	 5.2500088770778029e+02,	 2.8485840244558531e+00 
1.3880049999999999e+00,	 2.5985049999999998e-01,	 4.6109904754612935e-02,	 1.4960780415102959e+03,	 -3.1202541167237847e+01,	 6.8311635723341283e+02,	 9.0618912763296157e+03,	 5.2453724258580360e+02,	 2.8528067566304816e+00 
1.3913059999999999e+00,	 2.5978069999999998e-01,	 4.5876737308227375e-02,	 1.4970670327142386e+03,	 -3.1175689294549180e+01,	 6.8176746109901183e+02,	 8.9982640057187182e+03,	 5.2401910546272018e+02,	 2.8575133829397985e+00 
1.3946350000000001e+00,	 2.5971040000000001e-01,	 4.5621380600002932e-02,	 1.4981487473101797e+03,	 -3.1148386733272840e+01,	 6.8028205921043582e+02,	 8.9286824796869732e+03,	 5.2344794047654250e+02,	 2.8626963703867307e+00 
1.3979919999999999e+00,	 2.5963939999999996e-01,	 4.5342846645177043e-02,	 1.4993118207736666e+03,	 -3.1139614246487476e+01,	 6.7866615233021605e+02,	 8.8530906091388861e+03,	 5.2282588525145923e+02,	 2.8683261517134242e+00 
1.4013760000000000e+00,	 2.5956789999999996e-01,	 4.5047841205765909e-02,	 1.5005482376470964e+03,	 -3.1113224895315696e+01,	 6.7694113391774408e+02,	 8.7731352659966778e+03,	 5.2216100893319174e+02,	 2.8743447653184417e+00 
1.4047890000000001e+00,	 2.5949580000000000e-01,	 4.4733913433982586e-02,	 1.5018586316388332e+03,	 -3.1098162176372774e+01,	 6.7509995642915146e+02,	 8.6883020422186437e+03,	 5.2145042595413736e+02,	 2.8807734899669666e+00 
1.4082300000000001e+00,	 2.5942309999999996e-01,	 4.4401206546314388e-02,	 1.5032429544426209e+03,	 -3.1103885641716850e+01,	 6.7314423647064018e+02,	 8.5987008652280583e+03,	 5.2069457443265753e+02,	 2.8876135493656379e+00 
1.4116990000000000e+00,	 2.5934970000000002e-01,	 4.4053279745026749e-02,	 1.5046882148563170e+03,	 -3.1106951664518178e+01,	 6.7109407626685061e+02,	 8.5053382489487758e+03,	 5.1990104364841454e+02,	 2.8948003498001382e+00 
1.4151980000000000e+00,	 2.5927580000000000e-01,	 4.3694531726481703e-02,	 1.5061941206047036e+03,	 -3.1084497906276283e+01,	 6.6895989243825636e+02,	 8.4092469666443230e+03,	 5.1907370215373305e+02,	 2.9023139443785588e+00 
1.4187250000000000e+00,	 2.5920129999999997e-01,	 4.3320171256829368e-02,	 1.5077629787064504e+03,	 -3.1088613468480869e+01,	 6.6672798055236763e+02,	 8.3093831283686613e+03,	 5.1820706222613455e+02,	 2.9101947139263156e+00 
1.4222830000000000e+00,	 2.5912609999999997e-01,	 4.2933908775044355e-02,	 1.5093855650257294e+03,	 -3.1105030320308707e+01,	 6.6441494148799438e+02,	 8.2067226602816827e+03,	 5.1730738904084512e+02,	 2.9183925558170660e+00 
1.4258690000000001e+00,	 2.5905030000000001e-01,	 4.2539772558422964e-02,	 1.5110507414839308e+03,	 -3.1113345449562686e+01,	 6.6203896962807482e+02,	 8.1023062607788879e+03,	 5.1638160567483874e+02,	 2.9268490805399869e+00 
1.4294860000000000e+00,	 2.5897389999999998e-01,	 4.2138115752492503e-02,	 1.5127557447240436e+03,	 -3.1129263369988998e+01,	 6.5960304050424861e+02,	 7.9962745698582785e+03,	 5.1543073401524327e+02,	 2.9355564145750588e+00 
1.4331320000000001e+00,	 2.5889679999999998e-01,	 4.1729628469516777e-02,	 1.5144909400221013e+03,	 -3.1156479298053409e+01,	 6.5711586097708630e+02,	 7.8888991751077965e+03,	 5.1445804327459109e+02,	 2.9444799343565711e+00 
1.4368090000000000e+00,	 2.5881909999999997e-01,	 4.1318377098710474e-02,	 1.5162500094431409e+03,	 -3.1176528515867560e+01,	 6.5459281953099173e+02,	 7.7811615038360032e+03,	 5.1346944493194599e+02,	 2.9535749599516166e+00 
1.4405170000000000e+00,	 2.5874069999999999e-01,	 4.0903795044676554e-02,	 1.5180255601368858e+03,	 -3.1201720373455956e+01,	 6.5203872344272736e+02,	 7.6730305895747824e+03,	 5.1246673605667206e+02,	 2.9628190120821936e+00 
1.4442560000000000e+00,	 2.5866169999999999e-01,	 4.0489241958622239e-02,	 1.5198139927901404e+03,	 -3.1216616463556626e+01,	 6.4946397999470366e+02,	 7.5652738445258556e+03,	 5.1145393154898568e+02,	 2.9721827444051097e+00 
1.4480249999999999e+00,	 2.5858209999999998e-01,	 4.0072180279585909e-02,	 1.5216172016474306e+03,	 -3.1250543711570582e+01,	 6.4686201465703493e+02,	 7.4573505576125417e+03,	 5.1042837739206215e+02,	 2.9816878187788358e+00 
1.4518260000000001e+00,	 2.5850170000000000e-01,	 3.9655282129883604e-02,	 1.5234237233128943e+03,	 -3.1284902263533709e+01,	 6.4424830086349925e+02,	 7.3499479460717239e+03,	 5.0939611390582161e+02,	 2.9912770826576858e+00 
1.4556590000000000e+00,	 2.5842080000000001e-01,	 3.9241447659210185e-02,	 1.5252370177151874e+03,	 -3.1303626094144331e+01,	 6.4162770992270271e+02,	 7.2436602035480828e+03,	 5.0835902998130837e+02,	 3.0009464340353063e+00 
1.4595240000000000e+00,	 2.5833909999999999e-01,	 3.8825308822716217e-02,	 1.5270552461141338e+03,	 -3.1356790628602649e+01,	 6.3898882208288023e+02,	 7.1373684600174320e+03,	 5.0731256283295266e+02,	 3.0107221202451675e+00 
1.4634210000000001e+00,	 2.5825670000000001e-01,	 3.8413873252283445e-02,	 1.5288668729074423e+03,	 -3.1391565378760170e+01,	 6.3635916552576214e+02,	 7.0326716369968844e+03,	 5.0626760467545404e+02,	 3.0205154340809917e+00 
1.4673510000000001e+00,	 2.5817370000000001e-01,	 3.8007118432450054e-02,	 1.5306720214956724e+03,	 -3.1416160805945172e+01,	 6.3373880593000706e+02,	 6.9295523949673816e+03,	 5.0522419105188567e+02,	 3.0303267617826544e+00 
1.4713130000000001e+00,	 2.5808999999999999e-01,	 3.7602295049536175e-02,	 1.5324709861137078e+03,	 -3.1467700464022847e+01,	 6.3112116248594714e+02,	 6.8274264969990509e+03,	 5.0417970297387279e+02,	 3.0401740119666680e+00 
1.4753080000000001e+00,	 2.5800550000000000e-01,	 3.7203846887629261e-02,	 1.5342497681162920e+03,	 -3.1519038712047923e+01,	 6.2852950150427796e+02,	 6.7273411690668963e+03,	 5.0314344628015192e+02,	 3.0499721358386052e+00 
1.4793369999999999e+00,	 2.5792039999999999e-01,	 3.6814550702987836e-02,	 1.5360033762323360e+03,	 -3.1559234282553469e+01,	 6.2597743957297257e+02,	 6.6299174872778021e+03,	 5.0212093316206557e+02,	 3.0596763723627518e+00 
1.4833989999999999e+00,	 2.5783449999999997e-01,	 3.6433970425211112e-02,	 1.5377200372114398e+03,	 -3.1610261263452550e+01,	 6.2347358638230469e+02,	 6.5351340167633944e+03,	 5.0111570777341660e+02,	 3.0692410523777314e+00 
1.4874959999999999e+00,	 2.5774799999999998e-01,	 3.6066974829959922e-02,	 1.5393930838178910e+03,	 -3.1656110598171843e+01,	 6.2103799758841217e+02,	 6.4440340581524806e+03,	 5.0013595005796009e+02,	 3.0786000040316597e+00 
1.4916259999999999e+00,	 2.5766069999999996e-01,	 3.5712914560319900e-02,	 1.5410086710131668e+03,	 -3.1728162419555659e+01,	 6.1868218860967261e+02,	 6.3565701687199971e+03,	 4.9918645562870205e+02,	 3.0876944837757416e+00 
1.4957910000000001e+00,	 2.5757269999999999e-01,	 3.5378333428785456e-02,	 1.5425503939801674e+03,	 -3.1802126407010860e+01,	 6.1643999063003571e+02,	 6.2741964595501895e+03,	 4.9828107090119283e+02,	 3.0964013584454984e+00 
1.4999910000000001e+00,	 2.5748389999999999e-01,	 3.5065887460312882e-02,	 1.5439963693369991e+03,	 -3.1889061302600666e+01,	 6.1434077243241859e+02,	 6.1976081142776366e+03,	 4.9743192683454407e+02,	 3.1045969561768971e+00 
1.5042249999999999e+00,	 2.5739439999999997e-01,	 3.4782810423107977e-02,	 1.5453218757576333e+03,	 -3.1970417953211182e+01,	 6.1242781398060583e+02,	 6.1284340031824713e+03,	 4.9665686146097579e+02,	 3.1121135548183236e+00 
1.5084960000000001e+00,	 2.5730419999999998e-01,	 3.4532932969244659e-02,	 1.5465070021726415e+03,	 -3.2066430333358753e+01,	 6.1073264641487503e+02,	 6.0675664143405265e+03,	 4.9596902528960641e+02,	 3.1188226123474245e+00 
1.5128010000000001e+00,	 2.5721319999999998e-01,	 3.4321008556443058e-02,	 1.5475218188641893e+03,	 -3.2194391601457639e+01,	 6.0929868223272888e+02,	 6.0161716368172847e+03,	 4.9538643012486932e+02,	 3.1245439356995641e+00 
1.5171429999999999e+00,	 2.5712140000000000e-01,	 3.4157251327457366e-02,	 1.5483287436300670e+03,	 -3.2324246909339536e+01,	 6.0819134236801563e+02,	 5.9765848057152562e+03,	 4.9493606758174087e+02,	 3.1290225601772823e+00 
1.5215209999999999e+00,	 2.5702890000000000e-01,	 3.4048605094310361e-02,	 1.5488958059077258e+03,	 -3.2460324996806307e+01,	 6.0746255740878519e+02,	 5.9504358296357150e+03,	 4.9463944211440162e+02,	 3.1320508907929061e+00 
1.5259360000000000e+00,	 2.5693559999999999e-01,	 3.4002101553163272e-02,	 1.5492032672192834e+03,	 -3.2612383121627687e+01,	 6.0715183213643104e+02,	 5.9392691611368018e+03,	 4.9451291856736196e+02,	 3.1334803071132784e+00 
1.5303869999999999e+00,	 2.5684160000000000e-01,	 3.4026111426388686e-02,	 1.5492222541355063e+03,	 -3.2780987328850969e+01,	 6.0728182173901746e+02,	 5.9447355316304502e+03,	 4.9456585268869509e+02,	 3.1331905020696351e+00 
1.5348759999999999e+00,	 2.5674669999999999e-01,	 3.4125482766554902e-02,	 1.5489598685534174e+03,	 -3.2970689444164790e+01,	 6.0787828134410825e+02,	 5.9679526443791574e+03,	 4.9480866924047467e+02,	 3.1311309343792910e+00 
1.5394019999999999e+00,	 2.5665099999999996e-01,	 3.4306869990014269e-02,	 1.5483908388518971e+03,	 -3.3139086387125403e+01,	 6.0897292191516374e+02,	 6.0104780611495598e+03,	 4.9525398373915249e+02,	 3.1271740864694739e+00 
1.5439659999999999e+00,	 2.5655459999999997e-01,	 3.4568316323603895e-02,	 1.5475282034047827e+03,	 -3.3289560017768125e+01,	 6.1054875675929770e+02,	 6.0719546061499314e+03,	 4.9589435232093257e+02,	 3.1214031939139169e+00 
1.5485690000000001e+00,	 2.5645730000000000e-01,	 3.4903107864769231e-02,	 1.5463968721851547e+03,	 -3.3426332947770092e+01,	 6.1256428956318075e+02,	 6.1509997897374815e+03,	 4.9671219676516341e+02,	 3.1139925807889237e+00 
1.5532090000000001e+00,	 2.5635930000000001e-01,	 3.5303091479875814e-02,	 1.5450434107987908e+03,	 -3.3523687071329434e+01,	 6.1495553064422563e+02,	 6.2457757516625579e+03,	 4.9768074956597496e+02,	 3.1052176734175578e+00 
1.5578890000000001e+00,	 2.5626040000000000e-01,	 3.5751909491258456e-02,	 1.5435290030438496e+03,	 -3.3592715792973166e+01,	 6.1762280032363060e+02,	 6.3526144747698536e+03,	 4.9875888645723916e+02,	 3.0954726834063235e+00 
1.5626070000000001e+00,	 2.5616069999999996e-01,	 3.6233488129843755e-02,	 1.5419250070407929e+03,	 -3.3618553591660017e+01,	 6.2045897408573728e+02,	 6.4677489278994772e+03,	 4.9990274532491958e+02,	 3.0851830084446226e+00 
1.5673649999999999e+00,	 2.5606010000000001e-01,	 3.6728914295583948e-02,	 1.5403043332082027e+03,	 -3.3599187883923236e+01,	 6.2334839689850492e+02,	 6.5867150425184218e+03,	 5.0106539484305887e+02,	 3.0747897595813849e+00 
1.5721630000000000e+00,	 2.5595869999999998e-01,	 3.7221159787210523e-02,	 1.5387398604753919e+03,	 -3.3529389135455766e+01,	 6.2618050490962344e+02,	 6.7053180332338861e+03,	 5.0220236987373471e+02,	 3.0647109907145063e+00 
1.5770010000000001e+00,	 2.5585649999999999e-01,	 3.7691695821787496e-02,	 1.5372964966677819e+03,	 -3.3434897760118965e+01,	 6.2885333864740085e+02,	 6.8190674474298812e+03,	 5.0327304684289305e+02,	 3.0553196792315411e+00 
1.5818800000000000e+00,	 2.5575339999999996e-01,	 3.8125286495602914e-02,	 1.5360212309573544e+03,	 -3.3333011554596844e+01,	 6.3129356245394490e+02,	 6.9242766957039285e+03,	 5.0424856029852697e+02,	 3.0468760591192154e+00 
1.5867990000000001e+00,	 2.5564939999999997e-01,	 3.8513698428933853e-02,	 1.5349460168201156e+03,	 -3.3212027926691732e+01,	 6.3345544468272499e+02,	 7.0187736386294036e+03,	 5.0511122892779969e+02,	 3.0395390074705770e+00 
1.5917600000000001e+00,	 2.5554460000000001e-01,	 3.8850468972045457e-02,	 1.5340940274862696e+03,	 -3.3078544495694089e+01,	 6.3530889767313715e+02,	 7.1008631175050186e+03,	 5.0584965189764318e+02,	 3.0334124071977260e+00 
1.5967620000000000e+00,	 2.5543889999999997e-01,	 3.9129631601818551e-02,	 1.5334772413726268e+03,	 -3.2959509903404630e+01,	 6.3683488402911792e+02,	 7.1690653857261668e+03,	 5.0645680276210913e+02,	 3.0285532678785922e+00 
1.6018060000000001e+00,	 2.5533230000000001e-01,	 3.9351251476853963e-02,	 1.5330991977577160e+03,	 -3.2847705507943729e+01,	 6.3803677078632791e+02,	 7.2232757500502703e+03,	 5.0693449078725968e+02,	 3.0249491356368954e+00 
1.6068920000000000e+00,	 2.5522479999999997e-01,	 3.9515396867909613e-02,	 1.5329637517568005e+03,	 -3.2743829281365322e+01,	 6.3892561490379944e+02,	 7.2635107755606869e+03,	 5.0728747116631695e+02,	 3.0225729988910208e+00 
1.6120200000000000e+00,	 2.5511639999999997e-01,	 3.9625358292652443e-02,	 1.5330351240494092e+03,	 -3.2638337207351100e+01,	 6.3951875631814653e+02,	 7.2904850872084362e+03,	 5.0752288464839074e+02,	 3.0213071496408945e+00 
1.6171920000000000e+00,	 2.5500719999999999e-01,	 3.9683962087821413e-02,	 1.5333415781428844e+03,	 -3.2543212862897548e+01,	 6.3982491948851475e+02,	 7.3047627347643720e+03,	 5.0764435584926207e+02,	 3.0211837590920383e+00 
1.6224069999999999e+00,	 2.5489699999999998e-01,	 3.9686203511531938e-02,	 1.5338575437183295e+03,	 -3.2486653184297595e+01,	 6.3985422133417433e+02,	 7.3055098739448667e+03,	 5.0765597992470089e+02,	 3.0221283599762518e+00 
1.6276649999999999e+00,	 2.5478580000000001e-01,	 3.9645220220598534e-02,	 1.5345602530724832e+03,	 -3.2427550463446480e+01,	 6.3965447810856881e+02,	 7.2956873886560043e+03,	 5.0757673628266883e+02,	 3.0239818463003432e+00 
1.6329680000000000e+00,	 2.5467380000000001e-01,	 3.9563883935935601e-02,	 1.5354407986117706e+03,	 -3.2331856039722574e+01,	 6.3924126511825796e+02,	 7.2760162271139325e+03,	 5.0741276401998783e+02,	 3.0266900570226332e+00 
1.6383150000000000e+00,	 2.5456079999999998e-01,	 3.9441060582169743e-02,	 1.5364998305227850e+03,	 -3.2302300719159234e+01,	 6.3861900747837581e+02,	 7.2463676194155532e+03,	 5.0716573808328786e+02,	 3.0302507210764240e+00 
1.6437059999999999e+00,	 2.5444679999999997e-01,	 3.9279459781721912e-02,	 1.5377335107249155e+03,	 -3.2302299639247359e+01,	 6.3779289574394306e+02,	 7.2073418435594913e+03,	 5.0683759943874480e+02,	 3.0346461136529643e+00 
1.6491430000000000e+00,	 2.5433190000000000e-01,	 3.9086321814615695e-02,	 1.5391247573276705e+03,	 -3.2266147680126821e+01,	 6.3679230965620093e+02,	 7.1606517169956751e+03,	 5.0643987338079478e+02,	 3.0397743427878408e+00 
1.6546250000000000e+00,	 2.5421610000000000e-01,	 3.8862970160384452e-02,	 1.5406666087993513e+03,	 -3.2241710565794492e+01,	 6.3562624193257102e+02,	 7.1066961180122380e+03,	 5.0597597504713269e+02,	 3.0456069277872877e+00 
1.6601539999999999e+00,	 2.5409929999999997e-01,	 3.8611403484787921e-02,	 1.5423480418166287e+03,	 -3.2235694154329707e+01,	 6.3430947045230312e+02,	 7.0460662316124690e+03,	 5.0545161017434651e+02,	 3.0520921161731231e+00 
1.6657280000000001e+00,	 2.5398149999999997e-01,	 3.8335132580234646e-02,	 1.5441545664432367e+03,	 -3.2238654405986367e+01,	 6.3286331307917590e+02,	 6.9797011450485797e+03,	 5.0487509373284001e+02,	 3.0591548011136527e+00 
1.6713499999999999e+00,	 2.5386270000000000e-01,	 3.8037204988963930e-02,	 1.5460750958804426e+03,	 -3.2243586916751724e+01,	 6.3130510247838629e+02,	 6.9084057029934374e+03,	 5.0425316910056750e+02,	 3.0667358701582539e+00 
1.6770179999999999e+00,	 2.5374289999999999e-01,	 3.7719331358571209e-02,	 1.5480988077179618e+03,	 -3.2254097015823888e+01,	 6.2964857685521588e+02,	 6.8326967948808697e+03,	 5.0359116196015492e+02,	 3.0747854403340078e+00 
1.6827340000000000e+00,	 2.5362209999999996e-01,	 3.7384329137230138e-02,	 1.5502161518415601e+03,	 -3.2265049178533374e+01,	 6.2790892684007872e+02,	 6.7533022356580996e+03,	 5.0289499717464446e+02,	 3.0832517614982740e+00 
1.6884980000000001e+00,	 2.5350030000000001e-01,	 3.7033905481706479e-02,	 1.5524191669478914e+03,	 -3.2280010503760934e+01,	 6.2609668388862156e+02,	 6.6706914782706253e+03,	 5.0216875614424458e+02,	 3.0920974605046170e+00 
1.6943100000000000e+00,	 2.5337749999999998e-01,	 3.6669325785413237e-02,	 1.5547012100005381e+03,	 -3.2305585232078627e+01,	 6.2422073907445906e+02,	 6.5852316368596712e+03,	 5.0141587914792956e+02,	 3.1012915266274854e+00 
1.7001710000000001e+00,	 2.5325359999999997e-01,	 3.6292527289692872e-02,	 1.5570516442032911e+03,	 -3.2338378946680407e+01,	 6.2229502817638945e+02,	 6.4974579979448463e+03,	 5.0064185177699926e+02,	 3.1107815299277566e+00 
1.7060800000000000e+00,	 2.5312869999999998e-01,	 3.5906945725745397e-02,	 1.5594613900612155e+03,	 -3.2362430760997626e+01,	 6.2033437929396518e+02,	 6.4081733780811646e+03,	 4.9985254989841843e+02,	 3.1205145434939587e+00 
1.7120400000000000e+00,	 2.5300279999999997e-01,	 3.5512721805221761e-02,	 1.5619282147805188e+03,	 -3.2391087681275152e+01,	 6.1833968849604003e+02,	 6.3174384533031771e+03,	 4.9904826263578997e+02,	 3.1304868826761938e+00 
1.7180489999999999e+00,	 2.5287579999999998e-01,	 3.5110094203966193e-02,	 1.5644455841032677e+03,	 -3.2435094915720683e+01,	 6.1631584113963186e+02,	 6.2253713507565190e+03,	 4.9823089208657615e+02,	 3.1406759506224025e+00 
1.7241089999999999e+00,	 2.5274769999999996e-01,	 3.4702524063588217e-02,	 1.5670046052434118e+03,	 -3.2474250135227905e+01,	 6.1427754951078600e+02,	 6.1327554150847045e+03,	 4.9740633036569352e+02,	 3.1510275763657503e+00 
1.7302190000000000e+00,	 2.5261859999999997e-01,	 3.4291012489521600e-02,	 1.5696018219558696e+03,	 -3.2510410242541141e+01,	 6.1222816143194746e+02,	 6.0398137772750733e+03,	 4.9657589935512448e+02,	 3.1615277224786644e+00 
1.7363810000000000e+00,	 2.5248840000000000e-01,	 3.3875511937547835e-02,	 1.5722345084859976e+03,	 -3.2555269524825000e+01,	 6.1016786290040409e+02,	 5.9465508166954678e+03,	 4.9573964511739132e+02,	 3.1721722048721865e+00 
1.7425940000000000e+00,	 2.5235710000000000e-01,	 3.3457754407890367e-02,	 1.5748975586096371e+03,	 -3.2603459510196529e+01,	 6.0810323470411618e+02,	 5.8533438885223313e+03,	 4.9490021600254784e+02,	 3.1829345577380335e+00 
1.7488600000000001e+00,	 2.5222469999999997e-01,	 3.3039165412263233e-02,	 1.5775880364320433e+03,	 -3.2651459005708276e+01,	 6.0603783681643779e+02,	 5.7604809546621527e+03,	 4.9405904692496625e+02,	 3.1938002247589989e+00 
1.7551779999999999e+00,	 2.5209120000000002e-01,	 3.2619730013946142e-02,	 1.5803038151124410e+03,	 -3.2708546465476928e+01,	 6.0397180573594733e+02,	 5.6679624609442553e+03,	 4.9321618471606411e+02,	 3.2047656232194517e+00 
1.7615490000000000e+00,	 2.5195649999999997e-01,	 3.2201621287078638e-02,	 1.5830379180235736e+03,	 -3.2763059557473440e+01,	 6.0191401994776152e+02,	 5.5762486964078198e+03,	 4.9237525206520979e+02,	 3.2157930612256607e+00 
1.7679730000000000e+00,	 2.5182080000000001e-01,	 3.1786316629355812e-02,	 1.5857911450865827e+03,	 -3.2812109959386902e+01,	 5.9986538838056390e+02,	 5.4855976062852678e+03,	 4.9153663126928785e+02,	 3.2268817230913855e+00 
1.7744510000000000e+00,	 2.5168390000000002e-01,	 3.1372581074597131e-02,	 1.5885616911193583e+03,	 -3.2878301675660609e+01,	 5.9782262738324448e+02,	 5.3957589116009631e+03,	 4.9069898655585462e+02,	 3.2380378555412510e+00 
1.7809839999999999e+00,	 2.5154579999999999e-01,	 3.0963371057377558e-02,	 1.5913439187339200e+03,	 -3.2942705223415047e+01,	 5.9579699270822107e+02,	 5.3073347590369067e+03,	 4.8986695021892098e+02,	 3.2492187072864498e+00 
1.7875710000000000e+00,	 2.5140659999999998e-01,	 3.0559761542957170e-02,	 1.5941352173037139e+03,	 -3.3004907811891719e+01,	 5.9379354182514794e+02,	 5.2205392877322874e+03,	 4.8904263353021639e+02,	 3.2604045894568756e+00 
1.7942140000000000e+00,	 2.5126620000000000e-01,	 3.0162681679876367e-02,	 1.5969322352559698e+03,	 -3.3070256863233638e+01,	 5.9181716022096248e+02,	 5.1355556775957057e+03,	 4.8822809077167295e+02,	 3.2715745946888655e+00 
1.8009120000000001e+00,	 2.5112469999999998e-01,	 2.9773215872802156e-02,	 1.5997335334114539e+03,	 -3.3142951380032031e+01,	 5.8987355191156882e+02,	 5.0525963962920150e+03,	 4.8742572762725825e+02,	 3.2827089961035401e+00 
1.8076669999999999e+00,	 2.5098189999999998e-01,	 2.9392769571722419e-02,	 1.6025310537057949e+03,	 -3.3223494315359481e+01,	 5.8797586696215080e+02,	 4.9719865893405040e+03,	 4.8664104622978192e+02,	 3.2937530074937658e+00 
1.8144780000000000e+00,	 2.5083800000000001e-01,	 2.9024557518569780e-02,	 1.6053198320169913e+03,	 -3.3299382798480643e+01,	 5.8614033716573613e+02,	 4.8943740260183067e+03,	 4.8588085996333768e+02,	 3.3046478965355268e+00 
1.8213459999999999e+00,	 2.5069290000000000e-01,	 2.8668624654107071e-02,	 1.6080954398359331e+03,	 -3.3392031902431526e+01,	 5.8437614102683597e+02,	 4.8198028296326329e+03,	 4.8514909398639116e+02,	 3.3153562780075450e+00 
1.8282719999999999e+00,	 2.5054650000000001e-01,	 2.8327955424418572e-02,	 1.6108466941383540e+03,	 -3.3495034815684633e+01,	 5.8270791817905240e+02,	 4.7489334921012005e+03,	 4.8445611973816887e+02,	 3.3257808690240167e+00 
1.8352560000000000e+00,	 2.5039889999999998e-01,	 2.8006229334439144e-02,	 1.6135621804843408e+03,	 -3.3597785977096954e+01,	 5.8116393501106961e+02,	 4.6825587387483438e+03,	 4.8381386981195470e+02,	 3.3358116247853862e+00 
1.8422980000000000e+00,	 2.5025009999999998e-01,	 2.7705614554418882e-02,	 1.6162310895740529e+03,	 -3.3712233034661338e+01,	 5.7976948694966916e+02,	 4.6211820768981988e+03,	 4.8323308834035822e+02,	 3.3453475857779944e+00 
1.8493999999999999e+00,	 2.5009999999999999e-01,	 2.7534106272378712e-02,	 1.6177377876759797e+03,	 -3.3795191281976329e+01,	 5.7901327858973423e+02,	 4.5865849890214067e+03,	 4.8291783879248311e+02,	 3.3506543282152137e+00 
1.3750690000000001e+00,	 2.6096219999999998e-01,	 4.7889194928523213e-02,	 1.5050183726833507e+03,	 -3.0948030947300463e+01,	 6.7063726362268119e+02,	 9.2396422207822015e+03,	 5.1972406562950800e+02,	 2.8964149137236839e+00 
1.3782630000000000e+00,	 2.6089599999999996e-01,	 4.7798083599955049e-02,	 1.5053534258948716e+03,	 -3.0805417685297883e+01,	 6.7015043444797709e+02,	 9.2153689068679178e+03,	 5.1953539226921555e+02,	 2.8981059134016744e+00 
1.3814839999999999e+00,	 2.6082929999999999e-01,	 4.7638803613616901e-02,	 1.5060012701512178e+03,	 -3.0615576756718415e+01,	 6.6930039812992050e+02,	 9.1730100013408319e+03,	 5.1920579158557598e+02,	 2.9011857248704431e+00 
1.3847309999999999e+00,	 2.6076210000000000e-01,	 4.7450602339728365e-02,	 1.5067498460372278e+03,	 -3.0442534042312122e+01,	 6.6829910822093507e+02,	 9.1231023852429626e+03,	 5.1881727388598790e+02,	 2.9047940818706781e+00 
1.3880049999999999e+00,	 2.6069429999999999e-01,	 4.7234798460037038e-02,	 1.5075955777191505e+03,	 -3.0280726832480703e+01,	 6.6715256667834456e+02,	 9.0660302815960767e+03,	 5.1837203843659097e+02,	 2.9089139385817142e+00 
1.3913070000000001e+00,	 2.6062589999999997e-01,	 4.6993390770893928e-02,	 1.5085287228453035e+03,	 -3.0125640223782007e+01,	 6.6587196302969551e+02,	 9.0023822346586967e+03,	 5.1787429023091556e+02,	 2.9135053217575253e+00 
1.3946360000000000e+00,	 2.6055689999999998e-01,	 4.6729112346263174e-02,	 1.5095466168968273e+03,	 -2.9975676463956134e+01,	 6.6446558063849545e+02,	 8.9328482889157694e+03,	 5.1732710225466121e+02,	 2.9185484397327186e+00 
1.3979919999999999e+00,	 2.6048739999999998e-01,	 4.6441763509822591e-02,	 1.5106424824059984e+03,	 -2.9848944830665499e+01,	 6.6293499362425337e+02,	 8.8574678438673454e+03,	 5.1673093092765805e+02,	 2.9240311686919629e+00 
1.4013770000000001e+00,	 2.6041729999999996e-01,	 4.6135597546683206e-02,	 1.5118060859750281e+03,	 -2.9720194192288169e+01,	 6.6129859652757682e+02,	 8.7773554987422594e+03,	 5.1609278430957818e+02,	 2.9298960079039666e+00 
1.4047890000000001e+00,	 2.6034669999999999e-01,	 4.5810702633804760e-02,	 1.5130374038899663e+03,	 -2.9601144127554775e+01,	 6.5955697053481003e+02,	 8.6925901809210609e+03,	 5.1541273357304340e+02,	 2.9361458046929854e+00 
1.4082300000000001e+00,	 2.6027539999999999e-01,	 4.5467121663361372e-02,	 1.5143374598024586e+03,	 -2.9504514168120785e+01,	 6.5770940427525409e+02,	 8.6032283612039046e+03,	 5.1469033427537204e+02,	 2.9427886177176745e+00 
1.4117000000000000e+00,	 2.6020349999999998e-01,	 4.5106821583152101e-02,	 1.5156974484926145e+03,	 -2.9419661234912489e+01,	 6.5576565549080715e+02,	 8.5098289550469071e+03,	 5.1392923146251803e+02,	 2.9497892829508459e+00 
1.4151980000000000e+00,	 2.6013110000000000e-01,	 4.4733954953779416e-02,	 1.5171120067515103e+03,	 -2.9321243187287624e+01,	 6.5374293392835057e+02,	 8.4134523868063534e+03,	 5.1313600709574587e+02,	 2.9571016364767555e+00 
1.4187259999999999e+00,	 2.6005800000000001e-01,	 4.4347003921782931e-02,	 1.5185842524366346e+03,	 -2.9242400159839733e+01,	 6.5163477490264711e+02,	 8.3137789742803689e+03,	 5.1230797074573138e+02,	 2.9647514075869394e+00 
1.4222830000000000e+00,	 2.5998440000000000e-01,	 4.3947612995839526e-02,	 1.5201080785590066e+03,	 -2.9186464738744409e+01,	 6.4944729037972570e+02,	 8.2112474139226251e+03,	 5.1144735995741286e+02,	 2.9727169706556080e+00 
1.4258700000000000e+00,	 2.5991009999999998e-01,	 4.3538982048000011e-02,	 1.5216708875925788e+03,	 -2.9137538461697119e+01,	 6.4719926907013405e+02,	 8.1067396638598702e+03,	 5.1056142106064038e+02,	 2.9809338654130544e+00 
1.4294860000000000e+00,	 2.5983519999999999e-01,	 4.3123077079127228e-02,	 1.5232706619549374e+03,	 -2.9100463741224960e+01,	 6.4489638905245283e+02,	 8.0007301992597168e+03,	 5.0965226562627697e+02,	 2.9893884635435355e+00 
1.4331330000000000e+00,	 2.5975969999999998e-01,	 4.2700406865496379e-02,	 1.5248995801753231e+03,	 -2.9082538584558833e+01,	 6.4254450082071753e+02,	 7.8934190903347044e+03,	 5.0872208519304149e+02,	 2.9980551801076465e+00 
1.4368099999999999e+00,	 2.5968350000000001e-01,	 4.2274096822657065e-02,	 1.5265502279391278e+03,	 -2.9069558621742146e+01,	 6.4015788031130273e+02,	 7.7855871638915287e+03,	 5.0777642611802355e+02,	 3.0068882779978132e+00 
1.4405180000000000e+00,	 2.5960669999999997e-01,	 4.1844860216126767e-02,	 1.5282179233556210e+03,	 -2.9067027612998746e+01,	 6.3774081341181602e+02,	 7.6774371571050551e+03,	 5.0681690477180126e+02,	 3.0158708489587891e+00 
1.4442560000000000e+00,	 2.5952929999999996e-01,	 4.1414845411643052e-02,	 1.5298965295774719e+03,	 -2.9062316259853290e+01,	 6.3530423265496609e+02,	 7.5695093693702211e+03,	 5.0584779468915877e+02,	 3.0249663207797108e+00 
1.4480260000000000e+00,	 2.5945119999999999e-01,	 4.0983608981628242e-02,	 1.5315894234079794e+03,	 -2.9074580986889657e+01,	 6.3284459158072650e+02,	 7.4616901310356079e+03,	 5.0486762601588356e+02,	 3.0341921029895822e+00 
1.4518270000000000e+00,	 2.5937250000000001e-01,	 4.0551830211507836e-02,	 1.5332874145354772e+03,	 -2.9096091043037912e+01,	 6.3036897716903923e+02,	 7.3541964875959138e+03,	 5.0387916667799101e+02,	 3.0435143163001346e+00 
1.4556600000000000e+00,	 2.5929310000000000e-01,	 4.0122508528277409e-02,	 1.5349898186824792e+03,	 -2.9108133397590620e+01,	 6.2788811369869813e+02,	 7.2477011457060435e+03,	 5.0288666243773827e+02,	 3.0529061485780216e+00 
1.4595250000000000e+00,	 2.5921309999999997e-01,	 3.9693050559948574e-02,	 1.5366993634172381e+03,	 -2.9147632819782373e+01,	 6.2539154481606170e+02,	 7.1416147737001929e+03,	 5.0188589362724622e+02,	 3.0624008159328571e+00 
1.4634220000000000e+00,	 2.5913239999999998e-01,	 3.9266617702622991e-02,	 1.5384034421302229e+03,	 -2.9187072799864211e+01,	 6.2289778056637408e+02,	 7.0367191065812858e+03,	 5.0088425290731203e+02,	 3.0719278584625656e+00 
1.4673510000000001e+00,	 2.5905099999999998e-01,	 3.8845073088518270e-02,	 1.5401003949403132e+03,	 -2.9220448927664094e+01,	 6.2041461835826385e+02,	 6.9334262856480891e+03,	 4.9988487633827907e+02,	 3.0814646409150788e+00 
1.4713130000000001e+00,	 2.5896900000000000e-01,	 3.8427281191000320e-02,	 1.5417924174252062e+03,	 -2.9277707866795357e+01,	 6.1793674898146742e+02,	 6.8314614109760359e+03,	 4.9888563436005796e+02,	 3.0910298256084814e+00 
1.4753090000000000e+00,	 2.5888620000000001e-01,	 3.8015218786267825e-02,	 1.5434665714004866e+03,	 -2.9350885929405564e+01,	 6.1547906314411648e+02,	 6.7313274219757468e+03,	 4.9789255074783341e+02,	 3.1005597797687283e+00 
1.4793369999999999e+00,	 2.5880280000000000e-01,	 3.7612423971795081e-02,	 1.5451169938848273e+03,	 -2.9426866043686534e+01,	 6.1305800726218536e+02,	 6.6338069586498359e+03,	 4.9691232776600202e+02,	 3.1099996931737941e+00 
1.4834000000000001e+00,	 2.5871859999999997e-01,	 3.7219353863152491e-02,	 1.5467334158114727e+03,	 -2.9523392984323877e+01,	 6.1068298839325371e+02,	 6.5390489592740532e+03,	 4.9594886152287273e+02,	 3.1193037734137237e+00 
1.4874959999999999e+00,	 2.5863379999999997e-01,	 3.6840041233927603e-02,	 1.5483079095663643e+03,	 -2.9632584928296147e+01,	 6.0837245800358073e+02,	 6.4479192459432861e+03,	 4.9500975655228717e+02,	 3.1284059102532082e+00 
1.4916259999999999e+00,	 2.5854830000000001e-01,	 3.6475339135112826e-02,	 1.5498288742549621e+03,	 -2.9781393576676454e+01,	 6.0613918058018885e+02,	 6.3606519725170456e+03,	 4.9410035433784725e+02,	 3.1372472671426315e+00 
1.4957910000000001e+00,	 2.5846199999999997e-01,	 3.6130206132887248e-02,	 1.5512797564292828e+03,	 -2.9960982198073729e+01,	 6.0401181679391652e+02,	 6.2783541819552693e+03,	 4.9323252138472338e+02,	 3.1457152381217526e+00 