TITLE = "Final State"
VARIABLES = "X", "Y", "rho", "u", "v", "T", "p", "c", "M"
ZONE I=102, J=27, DATAPACKING=POINT, STRANDID=37000, SOLUTIONTIME=0.000893
1.0000000000000000e+00,	 2.6805000000000001e-01,	 2.4705821993761083e-02,	 1.5915456160004831e+03,	 4.0021672257388309e+02,	 4.6094272657942895e+02,	 3.2762437985451056e+03,	 4.3087616414072943e+02,	 3.8087379848740901e+00 
1.0004999999999999e+00,	 2.6803939999999998e-01,	 1.9218455686499939e-02,	 1.6062976072175329e+03,	 3.2683170269056524e+02,	 4.5850061247651786e+02,	 2.5350605929668122e+03,	 4.2973323886319093e+02,	 3.8144837813787920e+00 
1.0009999999999999e+00,	 2.6802890000000001e-01,	 1.4488621495026145e-02,	 1.6232364939947474e+03,	 2.3514167346704244e+02,	 4.5006726085581181e+02,	 1.8760068797501626e+03,	 4.2576278470518366e+02,	 3.8523314286450225e+00 
1.0014989999999999e+00,	 2.6801829999999999e-01,	 1.2143308292621748e-02,	 1.6365627948170527e+03,	 1.6439142082125159e+02,	 4.3596145998056954e+02,	 1.5230531414639979e+03,	 4.1903764054714867e+02,	 3.9251809532312958e+00 
1.0019990000000001e+00,	 2.6800770000000002e-01,	 1.0729945946005357e-02,	 1.6479744387972087e+03,	 1.1736544944907956e+02,	 4.2078431451195212e+02,	 1.2989337882668235e+03,	 4.1167904153142075e+02,	 4.0131953602305099e+00 
1.0024999999999999e+00,	 2.6799719999999999e-01,	 9.7539437236346203e-03,	 1.6577219963245630e+03,	 8.4764459649877836e+01,	 4.0678342532730227e+02,	 1.1414934715480119e+03,	 4.0477213831580804e+02,	 4.1007953838049227e+00 
1.0029999999999999e+00,	 2.6798659999999996e-01,	 9.0278846495419028e-03,	 1.6658129439706481e+03,	 6.1090608267038860e+01,	 3.9474181554161606e+02,	 1.0252483360587141e+03,	 3.9873609718720320e+02,	 4.1805413953394472e+00 
1.0035000000000001e+00,	 2.6797599999999999e-01,	 8.4743196385827987e-03,	 1.6723006154896075e+03,	 4.3056260391328564e+01,	 3.8481826503042475e+02,	 9.3818925694787504e+02,	 3.9369221336350415e+02,	 4.2491437363509670e+00 
1.0040009999999999e+00,	 2.6796539999999996e-01,	 8.0554365245297035e-03,	 1.6772404531845095e+03,	 2.8675660247590329e+01,	 3.7698369436827710e+02,	 8.7365825220230431e+02,	 3.8966398679161540e+02,	 4.3049540758009863e+00 
1.0045020000000000e+00,	 2.6795490000000000e-01,	 7.7557329571825923e-03,	 1.6806205595445977e+03,	 1.6561830741077735e+01,	 3.7118382442340157e+02,	 8.2821258746296724e+02,	 3.8665489052749001e+02,	 4.3467759073653225e+00 
1.0050030000000001e+00,	 2.6794429999999997e-01,	 7.5669630899610520e-03,	 1.6822296028736491e+03,	 5.7933046491501328e+00,	 3.6786776644346145e+02,	 8.0083544816874848e+02,	 3.8492387956213821e+02,	 4.3703175295901433e+00 
1.0055050000000001e+00,	 2.6793370000000000e-01,	 7.5384101117116952e-03,	 1.6814463050393415e+03,	 -9.6348461633623792e+00,	 3.6790724128575960e+02,	 7.9789920798912669e+02,	 3.8494453155073637e+02,	 4.3680940272831581e+00 
1.0060070000000001e+00,	 2.6792309999999997e-01,	 7.7103453332149959e-03,	 1.6776853451948814e+03,	 -2.9197695210473533e+01,	 3.7257680847280801e+02,	 8.2645571167139008e+02,	 3.8737973315986466e+02,	 4.3315105417931079e+00 
1.0065100000000000e+00,	 2.6791239999999999e-01,	 8.1375321805690834e-03,	 1.6703147323905669e+03,	 -5.0176296359986353e+01,	 3.8329479545455126e+02,	 8.9733700686406735e+02,	 3.9291214006381949e+02,	 4.2530327792143341e+00 
1.0070129999999999e+00,	 2.6790179999999997e-01,	 8.8730047107858732e-03,	 1.6591022503643087e+03,	 -7.2835684077988233e+01,	 4.0101680411688920e+02,	 1.0236776493399109e+03,	 4.0189284310930577e+02,	 4.1321966205011842e+00 
1.0075160000000001e+00,	 2.6789120000000000e-01,	 9.9451667928600329e-03,	 1.6443757964939057e+03,	 -9.2468523371150980e+01,	 4.2559848449973288e+02,	 1.2177049780882685e+03,	 4.1402734247094605e+02,	 3.9779344894187005e+00 
1.0080199999999999e+00,	 2.6788049999999997e-01,	 1.1362956587718622e-02,	 1.6270121195092238e+03,	 -1.0529699874907965e+02,	 4.5554136387244489e+02,	 1.4891865415395864e+03,	 4.2834420466311258e+02,	 3.8063217569058745e+00 
1.0085249999999999e+00,	 2.6786989999999999e-01,	 1.3108247468332751e-02,	 1.6081415292219631e+03,	 -1.1009045543864350e+02,	 4.8486162755568876e+02,	 1.8284891354980355e+03,	 4.4191413601133024e+02,	 3.6475534265358593e+00 
1.0090300000000001e+00,	 2.6785919999999996e-01,	 1.5130632157748881e-02,	 1.5891978762508609e+03,	 -1.0797551032165504e+02,	 5.1582802330270533e+02,	 2.2453908211646713e+03,	 4.5580748509233894e+02,	 3.4945932582633978e+00 
1.0095360000000000e+00,	 2.6784849999999999e-01,	 1.7375989796746573e-02,	 1.5713245261769566e+03,	 -1.0058744325161939e+02,	 5.4886719268475736e+02,	 2.7437640591294671e+03,	 4.7017834489942271e+02,	 3.3488159878508754e+00 
1.0100420000000001e+00,	 2.6783780000000001e-01,	 1.9793870444501326e-02,	 1.5549916714076937e+03,	 -9.2426963840278574e+01,	 5.7709944664772820e+02,	 3.2863311149746983e+03,	 4.8211907596526618e+02,	 3.2310194821052640e+00 
1.0105489999999999e+00,	 2.6782709999999998e-01,	 2.2292893341610460e-02,	 1.5406318664844957e+03,	 -8.6562747003528642e+01,	 6.0143823865661352e+02,	 3.8573354820020786e+03,	 4.9218061525927016e+02,	 3.1351535031183726e+00 
1.0110570000000001e+00,	 2.6781630000000001e-01,	 2.4798494021963546e-02,	 1.5284991249803509e+03,	 -8.1394271655328993e+01,	 6.2191233780570974e+02,	 4.4369488043367091e+03,	 5.0048788920966007e+02,	 3.0583452494520524e+00 
1.0115660000000000e+00,	 2.6780559999999998e-01,	 2.7243548823285398e-02,	 1.5185989031879426e+03,	 -7.5855026099933241e+01,	 6.3851594550467235e+02,	 5.0045538201238223e+03,	 5.0712481257812260e+02,	 2.9982603685356835e+00 
1.0120750000000001e+00,	 2.6779480000000000e-01,	 2.9475483144394930e-02,	 1.5108815306319821e+03,	 -6.9873438949047468e+01,	 6.5150193069519605e+02,	 5.5246729923562179e+03,	 5.1225574776907115e+02,	 2.9526196353700902e+00 
1.0125860000000000e+00,	 2.6778399999999997e-01,	 3.1521728704309915e-02,	 1.5046663330657216e+03,	 -6.4477146559085384e+01,	 6.6181519657783906e+02,	 6.0017333948856722e+03,	 5.1629432829520010e+02,	 2.9170321787520166e+00 
1.0130969999999999e+00,	 2.6777319999999999e-01,	 3.3361210193317219e-02,	 1.4996933429110713e+03,	 -5.9557840787670798e+01,	 6.6998932045227366e+02,	 6.4304240645452146e+03,	 5.1947293655016915e+02,	 2.8892275072609412e+00 
1.0136090000000000e+00,	 2.6776240000000001e-01,	 3.4987443873974851e-02,	 1.4957475136052199e+03,	 -5.5123738844046535e+01,	 6.7644258013477520e+02,	 6.8088393850377633e+03,	 5.2196869287936170e+02,	 2.8675339048977140e+00 
1.0141220000000000e+00,	 2.6775159999999998e-01,	 3.6399604340102108e-02,	 1.4926287636587576e+03,	 -5.1228577696147838e+01,	 6.8150532323027119e+02,	 7.1366739018102953e+03,	 5.2391835376510244e+02,	 2.8506495398250307e+00 
1.0146360000000001e+00,	 2.6774070000000000e-01,	 3.7609822609716119e-02,	 1.4901622264588918e+03,	 -4.7902082205536260e+01,	 6.8545496013907837e+02,	 7.4166903251697222e+03,	 5.2543433444437653e+02,	 2.8375228820866716e+00 
1.0151509999999999e+00,	 2.6772979999999996e-01,	 3.8650880976590023e-02,	 1.4881565690666730e+03,	 -4.5053596898314780e+01,	 6.8862032003688000e+02,	 7.6571855067500001e+03,	 5.2664613768467632e+02,	 2.8270185613414918e+00 
1.0156670000000001e+00,	 2.6771889999999998e-01,	 3.9548496503243602e-02,	 1.4864871331934182e+03,	 -4.2668337076958792e+01,	 6.9121617083909700e+02,	 7.8645486814142341e+03,	 5.2763783718730599e+02,	 2.8184092976105655e+00 
1.0161849999999999e+00,	 2.6770800000000000e-01,	 4.0322412297703857e-02,	 1.4850886340907505e+03,	 -4.0739945604402870e+01,	 6.9336465938751223e+02,	 8.0433718240094204e+03,	 5.2845722218001049e+02,	 2.8112915660425943e+00 
1.0167029999999999e+00,	 2.6769699999999996e-01,	 4.0984944943313381e-02,	 1.4839151325096559e+03,	 -3.9230730509773906e+01,	 6.9514816904647978e+02,	 8.1965610261790571e+03,	 5.2913644863962782e+02,	 2.8053890888035835e+00 
1.0172230000000000e+00,	 2.6768599999999998e-01,	 4.1562764563841323e-02,	 1.4829060762918762e+03,	 -3.7943848279068945e+01,	 6.9669772241636656e+02,	 8.3306474440975271e+03,	 5.2972586884440079e+02,	 2.8003001704736699e+00 
1.0177430000000001e+00,	 2.6767500000000000e-01,	 4.2060813091199835e-02,	 1.4820402314627668e+03,	 -3.6855580680636692e+01,	 6.9803558232751573e+02,	 8.4466629107718090e+03,	 5.3023423788369394e+02,	 2.7959311555973181e+00 
1.0182650000000000e+00,	 2.6766400000000001e-01,	 4.2490215743386281e-02,	 1.4812951994020759e+03,	 -3.5942657135897420e+01,	 6.9918860651297246e+02,	 8.5469904050159748e+03,	 5.3067198107014258e+02,	 2.7921790684292631e+00 
1.0187889999999999e+00,	 2.6765289999999997e-01,	 4.2859278034152987e-02,	 1.4806523899502095e+03,	 -3.5195087040032135e+01,	 7.0018136033139763e+02,	 8.6334689948293708e+03,	 5.3104858886775867e+02,	 2.7889550133407175e+00 
1.0193129999999999e+00,	 2.6764189999999999e-01,	 4.3180169861123524e-02,	 1.4800805320561503e+03,	 -3.4577525252065655e+01,	 7.0106241289768354e+02,	 8.7090536745333902e+03,	 5.3138259849353790e+02,	 2.7860987165825657e+00 
1.0198389999999999e+00,	 2.6763070000000000e-01,	 4.3451269473024426e-02,	 1.4795794615432164e+03,	 -3.4117554461286545e+01,	 7.0182071569628670e+02,	 8.7732113128895780e+03,	 5.3166990530161797e+02,	 2.7836308808661383e+00 
1.0203670000000000e+00,	 2.6761960000000001e-01,	 4.3698891261053821e-02,	 1.4791107403657275e+03,	 -3.3677118606199713e+01,	 7.0254195692900078e+02,	 8.8322757923773588e+03,	 5.3194302618676181e+02,	 2.7813017681078942e+00 
1.0208950000000001e+00,	 2.6760839999999997e-01,	 4.3912482493339705e-02,	 1.4786826075184845e+03,	 -3.3379154379401584e+01,	 7.0319034285067005e+02,	 8.8836374228169207e+03,	 5.3218843845241236e+02,	 2.7792022451271481e+00 
1.0214259999999999e+00,	 2.6759719999999998e-01,	 4.4110349048315692e-02,	 1.4782743409924176e+03,	 -3.3089941488212268e+01,	 7.0382316884207501e+02,	 8.9316971924311965e+03,	 5.3242785224911790e+02,	 2.7771737218015384e+00 
1.0219570000000000e+00,	 2.6758599999999999e-01,	 4.4284821266431851e-02,	 1.4779019488172908e+03,	 -3.2863738978220368e+01,	 7.0439888850571833e+02,	 8.9743601802914727e+03,	 5.3264556781946408e+02,	 2.7753301339130547e+00 
1.0224910000000000e+00,	 2.6757470000000000e-01,	 4.4439316677118257e-02,	 1.4775604702065596e+03,	 -3.2686366127586098e+01,	 7.0492443650783594e+02,	 9.0123878970845963e+03,	 5.3284423268417606e+02,	 2.7736473001300732e+00 
1.0230260000000000e+00,	 2.6756340000000001e-01,	 4.4581075606212918e-02,	 1.4772406222753134e+03,	 -3.2506483355415455e+01,	 7.0542175407602804e+02,	 9.0475153464356863e+03,	 5.3303215784558267e+02,	 2.7720620747983480e+00 
1.0235620000000001e+00,	 2.6755210000000001e-01,	 4.4707861860628598e-02,	 1.4769474564241718e+03,	 -3.2360581509901834e+01,	 7.0587409211982549e+02,	 9.0790640516699859e+03,	 5.3320302873428125e+02,	 2.7706180417317019e+00 
1.0241000000000000e+00,	 2.6754069999999996e-01,	 4.4820498417740981e-02,	 1.4766830565349264e+03,	 -3.2261866194211066e+01,	 7.0627670808460505e+02,	 9.1071293151201298e+03,	 5.3335507103988982e+02,	 2.7693285685535507e+00 
1.0246400000000000e+00,	 2.6752929999999997e-01,	 4.4925951655314433e-02,	 1.4764301880857702e+03,	 -3.2162400434437586e+01,	 7.0666396520457192e+02,	 9.1335617412863867e+03,	 5.3350127240932875e+02,	 2.7680917255305335e+00 
1.0251820000000000e+00,	 2.6751779999999997e-01,	 4.5023580464709070e-02,	 1.4761927304256787e+03,	 -3.2072964971079188e+01,	 7.0703118946708901e+02,	 9.1581665813174441e+03,	 5.3363987376398450e+02,	 2.7669242565690695e+00 
1.0257250000000000e+00,	 2.6750639999999998e-01,	 4.5116687117417578e-02,	 1.4759659116415783e+03,	 -3.1965237128839547e+01,	 7.0738494089082906e+02,	 9.1816968538993897e+03,	 5.3377335603541826e+02,	 2.7658031120820992e+00 
1.0262700000000000e+00,	 2.6749479999999998e-01,	 4.5194627315999859e-02,	 1.4757586769548084e+03,	 -3.1933501184794025e+01,	 7.0769281047902325e+02,	 9.2015614445513111e+03,	 5.3388949839116310e+02,	 2.7648120832408125e+00 
1.0268170000000001e+00,	 2.6748329999999998e-01,	 4.5279802370094838e-02,	 1.4755444447675236e+03,	 -3.1830851092652221e+01,	 7.0802766540967173e+02,	 9.2232650188851530e+03,	 5.3401579216281471e+02,	 2.7637529796608566e+00 
1.0273660000000000e+00,	 2.6747169999999998e-01,	 4.5352255275150050e-02,	 1.4753568172520220e+03,	 -3.1814593778851254e+01,	 7.0830811027024356e+02,	 9.2416824235888143e+03,	 5.3412154167283165e+02,	 2.7628539334056419e+00 
1.0279170000000000e+00,	 2.6745999999999998e-01,	 4.5422661264579625e-02,	 1.4751654760162983e+03,	 -3.1787591129694032e+01,	 7.0859703637767416e+02,	 9.2598050742681298e+03,	 5.3423046738013124e+02,	 2.7619314391165899e+00 
1.0284690000000001e+00,	 2.6744839999999998e-01,	 4.5495601395794297e-02,	 1.4749777585461215e+03,	 -3.1734351368366617e+01,	 7.0889001251745890e+02,	 9.2785092570605430e+03,	 5.3434089728391461e+02,	 2.7610072727664496e+00 
1.0290239999999999e+00,	 2.6743659999999997e-01,	 4.5558541068491457e-02,	 1.4748004025971418e+03,	 -3.1721704817849314e+01,	 7.0915727003470420e+02,	 9.2948482780965987e+03,	 5.3444161330597763e+02,	 2.7601546733897218e+00 
1.0295810000000001e+00,	 2.6742489999999997e-01,	 4.5630136476243095e-02,	 1.4746171531876962e+03,	 -3.1642218787844548e+01,	 7.0944936518831287e+02,	 9.3132896411911606e+03,	 5.3455166769039124e+02,	 2.7592404839193132e+00 
1.0301400000000001e+00,	 2.6741310000000001e-01,	 4.5689559941942112e-02,	 1.4744521709946318e+03,	 -3.1640926477185502e+01,	 7.0969668664650612e+02,	 9.3286691415516125e+03,	 5.3464483471845597e+02,	 2.7584510959851540e+00 
1.0307010000000001e+00,	 2.6740120000000001e-01,	 4.5746111879570582e-02,	 1.4742962899931044e+03,	 -3.1658490531631529e+01,	 7.0992784980954116e+02,	 9.3432579424444757e+03,	 5.3473190017266734e+02,	 2.7577112225216753e+00 
1.0312640000000000e+00,	 2.6738930000000000e-01,	 4.5807862142074718e-02,	 1.4741285152815403e+03,	 -3.1616040648328784e+01,	 7.1018952566994471e+02,	 9.3593184402490897e+03,	 5.3483044084720927e+02,	 2.7568877959458629e+00 
1.0318290000000001e+00,	 2.6737739999999999e-01,	 4.5868804220143375e-02,	 1.4739619380137528e+03,	 -3.1571501354445097e+01,	 7.1044992745162176e+02,	 9.3752062359881438e+03,	 5.3492848371503510e+02,	 2.7560693938107774e+00 
1.0323970000000000e+00,	 2.6736539999999998e-01,	 4.5922137462851502e-02,	 1.4738155211349936e+03,	 -3.1602462900589622e+01,	 7.1066753534031341e+02,	 9.3889820380206074e+03,	 5.3501040063925632e+02,	 2.7553750360794669e+00 
1.0329660000000001e+00,	 2.6735330000000002e-01,	 4.5973881197176693e-02,	 1.4736718243727782e+03,	 -3.1622859821710840e+01,	 7.1088048671380750e+02,	 9.4023778475273866e+03,	 5.3509055251084067e+02,	 2.7546946376808830e+00 
1.0335390000000000e+00,	 2.6734120000000000e-01,	 4.6034234495182569e-02,	 1.4735081908482998e+03,	 -3.1573285118694400e+01,	 7.1113926011702483e+02,	 9.4181481704245962e+03,	 5.3518793498724801e+02,	 2.7538857298981809e+00 
1.0341130000000001e+00,	 2.6732909999999999e-01,	 4.6092023936591418e-02,	 1.4733438292049525e+03,	 -3.1538826430339817e+01,	 7.1139442950222679e+02,	 9.4333549584703906e+03,	 5.3528394383940622e+02,	 2.7530834282415677e+00 
1.0346900000000001e+00,	 2.6731689999999997e-01,	 4.6147848483554854e-02,	 1.4731861745881979e+03,	 -3.1528083795593510e+01,	 7.1163441931380601e+02,	 9.4479664142206766e+03,	 5.3537422558400556e+02,	 2.7523243301143645e+00 
1.0352690000000000e+00,	 2.6730470000000001e-01,	 4.6206117142896172e-02,	 1.4730269822748037e+03,	 -3.1513051548465963e+01,	 7.1187945068783029e+02,	 9.4631531551872158e+03,	 5.3546638820863177e+02,	 2.7515527804843067e+00 
1.0358510000000001e+00,	 2.6729239999999999e-01,	 4.6258733471973429e-02,	 1.4728743842020258e+03,	 -3.1547637058789434e+01,	 7.1210567801127740e+02,	 9.4769398478859202e+03,	 5.3555146406326287e+02,	 2.7508321893248007e+00 
1.0364350000000000e+00,	 2.6727999999999996e-01,	 4.6311092809554352e-02,	 1.4727195867699766e+03,	 -3.1571238020157310e+01,	 7.1233635187155619e+02,	 9.4907399664428376e+03,	 5.3563819818473564e+02,	 2.7500987701830710e+00 
1.0370220000000001e+00,	 2.6726759999999999e-01,	 4.6372741772658849e-02,	 1.4725512560426766e+03,	 -3.1519822605349496e+01,	 7.1260377455567891e+02,	 9.5069416865418516e+03,	 5.3573873240778664e+02,	 2.7492665132256664e+00 
1.0376120000000000e+00,	 2.6725519999999997e-01,	 4.6435024305910844e-02,	 1.4723832697320333e+03,	 -3.1473988036376070e+01,	 7.1287015098080360e+02,	 9.5232688534919562e+03,	 5.3583885455110908e+02,	 2.7484375502876968e+00 
1.0382039999999999e+00,	 2.6724270000000000e-01,	 4.6488480672548800e-02,	 1.4722266040843851e+03,	 -3.1507900258352173e+01,	 7.1310262229606337e+02,	 9.5373412871855016e+03,	 5.3592621759277972e+02,	 2.7476986117980569e+00 
1.0387980000000001e+00,	 2.6723009999999997e-01,	 4.6542903995189136e-02,	 1.4720715098903634e+03,	 -3.1519217349557955e+01,	 7.1333478674632443e+02,	 9.5516152027710777e+03,	 5.3601345110333068e+02,	 2.7469626081354850e+00 
1.0393960000000000e+00,	 2.6721750000000000e-01,	 4.6603052066964086e-02,	 1.4719065010337138e+03,	 -3.1504211409333259e+01,	 7.1359224119932901e+02,	 9.5674106867153114e+03,	 5.3611017048609881e+02,	 2.7461587122610336e+00 
1.0399959999999999e+00,	 2.6720479999999996e-01,	 4.6656553298633746e-02,	 1.4717540210579300e+03,	 -3.1540377019718917e+01,	 7.1382098561420412e+02,	 9.5814646514679407e+03,	 5.3619608956860077e+02,	 2.7454358086856128e+00 
1.0405990000000001e+00,	 2.6719199999999999e-01,	 4.6711844428560072e-02,	 1.4715981164740042e+03,	 -3.1552858642720302e+01,	 7.1405828435442049e+02,	 9.5960083109661900e+03,	 5.3628520720891561e+02,	 2.7446894370900479e+00 
1.0412049999999999e+00,	 2.6717920000000001e-01,	 4.6774928249405323e-02,	 1.4714241828518620e+03,	 -3.1491659863576835e+01,	 7.1433580075720033e+02,	 9.6127021059746294e+03,	 5.3638940982603106e+02,	 2.7438295986545223e+00 
1.0418140000000000e+00,	 2.6716639999999997e-01,	 4.6835270643709445e-02,	 1.4712569972411020e+03,	 -3.1481604008309510e+01,	 7.1459687765713034e+02,	 9.6286208563647560e+03,	 5.3648742121719886e+02,	 2.7430163660858282e+00 
1.0424260000000001e+00,	 2.6715339999999999e-01,	 4.6886311814531359e-02,	 1.4711123416332548e+03,	 -3.1526537050416202e+01,	 7.1480880330145283e+02,	 9.6419727868284117e+03,	 5.3656696747442868e+02,	 2.7423419728033389e+00 
1.0430400000000000e+00,	 2.6714040000000000e-01,	 4.6946329804783207e-02,	 1.4709471396461252e+03,	 -3.1497130737204916e+01,	 7.1506745775520687e+02,	 9.6578086600091865e+03,	 5.3666403740598514e+02,	 2.7415370132765049e+00 
1.0436580000000000e+00,	 2.6712740000000001e-01,	 4.7009510177595915e-02,	 1.4707747553897998e+03,	 -3.1436258669337715e+01,	 7.1534330179730898e+02,	 9.6745367443801169e+03,	 5.3676753904205123e+02,	 2.7406848746572581e+00 
1.0442790000000000e+00,	 2.6711429999999997e-01,	 4.7065535166113948e-02,	 1.4706214074873249e+03,	 -3.1436431529606423e+01,	 7.1557808442312501e+02,	 9.6892457238862116e+03,	 5.3685561797778655e+02,	 2.7399496568777630e+00 
1.0449029999999999e+00,	 2.6710109999999998e-01,	 4.7117893724766782e-02,	 1.4704802108295389e+03,	 -3.1472030624963907e+01,	 7.1578948284513331e+02,	 9.7028902421147704e+03,	 5.3693491194462695e+02,	 2.7392835340964976e+00 
1.0455300000000001e+00,	 2.6708779999999999e-01,	 4.7171068086672679e-02,	 1.4703378241943692e+03,	 -3.1479394840588405e+01,	 7.1600792017530796e+02,	 9.7168046989699451e+03,	 5.3701683385374577e+02,	 2.7386008669345925e+00 
1.0461600000000000e+00,	 2.6707449999999999e-01,	 4.7227442928302193e-02,	 1.4701867968011165e+03,	 -3.1453462153956728e+01,	 7.1624712337350707e+02,	 9.7316674558754330e+03,	 5.3710652938203020e+02,	 2.7378613712692856e+00 
1.0467930000000001e+00,	 2.6706110000000000e-01,	 4.7282148692375806e-02,	 1.4700393458012506e+03,	 -3.1424578529234207e+01,	 7.1647990241812784e+02,	 9.7461065413607375e+03,	 5.3719380162644120e+02,	 2.7371410089949531e+00 
1.0474300000000001e+00,	 2.6704770000000000e-01,	 4.7340132843050817e-02,	 1.4698870744352253e+03,	 -3.1365026070101344e+01,	 7.1672467758024800e+02,	 9.7613923165836768e+03,	 5.3728555609909995e+02,	 2.7363878653854052e+00 
1.0480700000000001e+00,	 2.6703420000000000e-01,	 4.7391480040116674e-02,	 1.4697528221987391e+03,	 -3.1356221265354016e+01,	 7.1693199762806762e+02,	 9.7748066000021008e+03,	 5.3736325819074625e+02,	 2.7357420591014572e+00 
1.0487139999999999e+00,	 2.6702060000000000e-01,	 4.7439638456886458e-02,	 1.4696255685570950e+03,	 -3.1371146130950741e+01,	 7.1712523859213115e+02,	 9.7873769589911626e+03,	 5.3743567342544429e+02,	 2.7351373064488396e+00 
1.0493610000000000e+00,	 2.6700689999999999e-01,	 4.7483922009832799e-02,	 1.4695070220430066e+03,	 -3.1410427280707772e+01,	 7.1730343765206294e+02,	 9.7989475408422040e+03,	 5.3750244320137642e+02,	 2.7345786018129505e+00 
1.0500110000000000e+00,	 2.6699309999999998e-01,	 4.7530234077777782e-02,	 1.4693913751190589e+03,	 -3.1411829569879956e+01,	 7.1748505082883935e+02,	 9.8109880637499591e+03,	 5.3757048368673998e+02,	 2.7340174612610646e+00 
1.0506650000000000e+00,	 2.6697929999999997e-01,	 4.7580936187359910e-02,	 1.4692645409270403e+03,	 -3.1370198817642880e+01,	 7.1769258244371440e+02,	 9.8242946195092918e+03,	 5.3764822384611523e+02,	 2.7333846359315199e+00 
1.0513220000000001e+00,	 2.6696539999999996e-01,	 4.7628694130975979e-02,	 1.4691407109324937e+03,	 -3.1331985993654456e+01,	 7.1789132523309718e+02,	 9.8368787273685066e+03,	 5.3772266122633437e+02,	 2.7327745016400824e+00 
1.0519829999999999e+00,	 2.6695150000000001e-01,	 4.7676732686913179e-02,	 1.4690203610555868e+03,	 -3.1302287421299397e+01,	 7.1808437247688812e+02,	 9.8494481464673481e+03,	 5.3779495552519734e+02,	 2.7321822322080460e+00 
1.0526480000000000e+00,	 2.6693739999999999e-01,	 4.7716493174569594e-02,	 1.4689192214011046e+03,	 -3.1325666539406193e+01,	 7.1823707410774944e+02,	 9.8597584376169616e+03,	 5.3785213390460603e+02,	 2.7317047028646071e+00 
1.0533159999999999e+00,	 2.6692329999999997e-01,	 4.7761572699103555e-02,	 1.4688085615087602e+03,	 -3.1304805089887395e+01,	 7.1841477914494521e+02,	 9.8715151036379393e+03,	 5.3791866703526443e+02,	 2.7311603301031457e+00 
1.0539879999999999e+00,	 2.6690910000000001e-01,	 4.7803048392039096e-02,	 1.4687051052974980e+03,	 -3.1300013992639393e+01,	 7.1857848166221504e+02,	 9.8823387719044331e+03,	 5.3797995031242453e+02,	 2.7306567625171105e+00 
1.0546640000000000e+00,	 2.6689479999999999e-01,	 4.7842546474706191e-02,	 1.4686075302945731e+03,	 -3.1308507128669067e+01,	 7.1873136423075630e+02,	 9.8926084961254110e+03,	 5.3803717675636631e+02,	 2.7301853496799047e+00 
1.0553440000000001e+00,	 2.6688039999999996e-01,	 4.7883158200059506e-02,	 1.4685045185161066e+03,	 -3.1296239578906338e+01,	 7.1889595692454350e+02,	 9.9032733313335648e+03,	 5.3809877968847763e+02,	 2.7296809121250534e+00 
1.0560270000000000e+00,	 2.6686599999999999e-01,	 4.7928149856609870e-02,	 1.4683979650848273e+03,	 -3.1245487606146533e+01,	 7.1907324451651380e+02,	 9.9150231296546408e+03,	 5.3816512611534074e+02,	 2.7291444329564789e+00 
1.0567150000000001e+00,	 2.6685149999999996e-01,	 4.7964352148982946e-02,	 1.4683218091388169e+03,	 -3.1210858423870167e+01,	 7.1922011755046890e+02,	 9.9245390988541276e+03,	 5.3822008429221148e+02,	 2.7287229253914558e+00 
1.0000000000000000e+00,	 2.6872979999999996e-01,	 2.7969599099499448e-02,	 1.5886997638775672e+03,	 4.1979248268750587e+02,	 4.5997917446882707e+02,	 3.7013005215920248e+03,	 4.3042557797394068e+02,	 3.8176780903465311e+00 
1.0004999999999999e+00,	 2.6871940000000000e-01,	 2.5448305956686686e-02,	 1.5983034389142715e+03,	 3.8911154516829180e+02,	 4.5673333628998762e+02,	 3.3438864868862347e+03,	 4.2890424263198508e+02,	 3.8353242250482276e+00 
1.0009999999999999e+00,	 2.6870909999999998e-01,	 2.2487779513017066e-02,	 1.6126114047586266e+03,	 3.4959796961825123e+02,	 4.4967756069214954e+02,	 2.9092277961269842e+03,	 4.2557841697488885e+02,	 3.8772431296828556e+00 
1.0014989999999999e+00,	 2.6869870000000001e-01,	 1.9333422995037177e-02,	 1.6272622722837209e+03,	 3.0248647962299174e+02,	 4.4024942888389734e+02,	 2.4487107717225654e+03,	 4.2109335407138059e+02,	 3.9305717216101179e+00 
1.0019990000000001e+00,	 2.6868839999999999e-01,	 1.6707110687833718e-02,	 1.6398849828250695e+03,	 2.5454269959389728e+02,	 4.2993242613008624e+02,	 2.0664813439178201e+03,	 4.1613005831490858e+02,	 3.9879898388561346e+00 
1.0024999999999999e+00,	 2.6867799999999997e-01,	 1.4690327554013317e-02,	 1.6501982419003180e+03,	 2.1069174614324621e+02,	 4.1976575147163948e+02,	 1.7740604690063637e+03,	 4.1118047836669166e+02,	 4.0458975157004415e+00 
1.0029999999999999e+00,	 2.6866770000000001e-01,	 1.3187021673846108e-02,	 1.6583860466091041e+03,	 1.7177028074959676e+02,	 4.1048355675003495e+02,	 1.5573004969402143e+03,	 4.0660888927152951e+02,	 4.1003973722544567e+00 
1.0035000000000001e+00,	 2.6865729999999999e-01,	 1.2085124014332541e-02,	 1.6646250964391238e+03,	 1.3677722960096347e+02,	 4.0251298840221426e+02,	 1.3994614756529409e+03,	 4.0264187149105140e+02,	 4.1481898642740473e+00 
1.0040009999999999e+00,	 2.6864689999999997e-01,	 1.1312637501496333e-02,	 1.6687550753047419e+03,	 1.0395228901864519e+02,	 3.9718538492329719e+02,	 1.2926682083452611e+03,	 3.9996834072792768e+02,	 4.1803051306202450e+00 
1.0045020000000000e+00,	 2.6863660000000000e-01,	 1.0834004003021588e-02,	 1.6706402715129084e+03,	 7.1155221314314659e+01,	 3.9452149362237469e+02,	 1.2296728882395960e+03,	 3.9862480600851626e+02,	 4.1948089196667580e+00 
1.0050040000000000e+00,	 2.6862619999999998e-01,	 1.0646335867548040e-02,	 1.6698027931269487e+03,	 3.4302688934240976e+01,	 3.9579886080031758e+02,	 1.2122847456092143e+03,	 3.9926961086486045e+02,	 4.1830258298298126e+00 
1.0055050000000001e+00,	 2.6861580000000002e-01,	 1.0713631897633217e-02,	 1.6661032623811348e+03,	 -6.1170472769799096e+00,	 4.0107857468767520e+02,	 1.2362210121442058e+03,	 4.0192379467311525e+02,	 4.1453492271452470e+00 
1.0060070000000001e+00,	 2.6860539999999999e-01,	 1.1033256151617711e-02,	 1.6594840137968538e+03,	 -4.7681509480819869e+01,	 4.0997671600371245e+02,	 1.3013461477647254e+03,	 4.0635778346656855e+02,	 4.0854856238486885e+00 
1.0065100000000000e+00,	 2.6859499999999997e-01,	 1.1585742827207594e-02,	 1.6501862299835857e+03,	 -9.0196295508751660e+01,	 4.2176035394640775e+02,	 1.4057871674483581e+03,	 4.1215622452660318e+02,	 4.0097644516206641e+00 
1.0070129999999999e+00,	 2.6858460000000001e-01,	 1.2352679624944176e-02,	 1.6388984732210938e+03,	 -1.2994356507441773e+02,	 4.3529521887541949e+02,	 1.5469454960954868e+03,	 4.1871732915556959e+02,	 3.9263763750948386e+00 
1.0075160000000001e+00,	 2.6857409999999998e-01,	 1.3312166562763491e-02,	 1.6265433034554785e+03,	 -1.6449299199037173e+02,	 4.4962327633960024e+02,	 1.7219774754386560e+03,	 4.2555272862827934e+02,	 3.8416855459051593e+00 
1.0080199999999999e+00,	 2.6856370000000002e-01,	 1.4443822585766510e-02,	 1.6140010048538500e+03,	 -1.9229682052290744e+02,	 4.6425811312133726e+02,	 1.9291748199271440e+03,	 4.3242295232868497e+02,	 3.7588570024668302e+00 
1.0085249999999999e+00,	 2.6855329999999999e-01,	 1.5728008072774639e-02,	 1.6020366419408047e+03,	 -2.1286391408935151e+02,	 4.8074572466033248e+02,	 2.1752996579389096e+03,	 4.4003447378795880e+02,	 3.6727042250834234e+00 
1.0090300000000001e+00,	 2.6854279999999997e-01,	 1.7143994334905880e-02,	 1.5910019155753632e+03,	 -2.2696353806070181e+02,	 4.9625114283071207e+02,	 2.4476170618512615e+03,	 4.4707434251842471e+02,	 3.5947244361080033e+00 
1.0095360000000000e+00,	 2.6853230000000000e-01,	 1.8676625158120113e-02,	 1.5809560579015686e+03,	 -2.3598340687911394e+02,	 5.0981708701227103e+02,	 2.7393197404437715e+03,	 4.5314394387734507e+02,	 3.5275131371521806e+00 
1.0100420000000001e+00,	 2.6852179999999998e-01,	 2.0308000169159915e-02,	 1.5719459956812964e+03,	 -2.3884968858491916e+02,	 5.2416129208773305e+02,	 3.0624008886885040e+03,	 4.5947454855167075e+02,	 3.4604495319097377e+00 
1.0105489999999999e+00,	 2.6851130000000001e-01,	 2.2037889594972139e-02,	 1.5638054769269306e+03,	 -2.3377677831749190e+02,	 5.3891919958683206e+02,	 3.4168317702037766e+03,	 4.6589796620635855e+02,	 3.3938393120559054e+00 
1.0110570000000001e+00,	 2.6850079999999998e-01,	 2.3838647437366238e-02,	 1.5562780283535856e+03,	 -2.2226554106311278e+02,	 5.5417114021289694e+02,	 3.8006287848520851e+03,	 4.7244465409125331e+02,	 3.3275214946997438e+00 
1.0115660000000000e+00,	 2.6849030000000002e-01,	 2.5595158275958044e-02,	 1.5492980919982981e+03,	 -2.0664984681376643e+02,	 5.6991422705739308e+02,	 4.1965969009927803e+03,	 4.7910834557212837e+02,	 3.2623499967633625e+00 
1.0120750000000001e+00,	 2.6847969999999999e-01,	 2.7438437916620644e-02,	 1.5425127493061616e+03,	 -1.8850972042359257e+02,	 5.8545652658896199e+02,	 4.6215108016926488e+03,	 4.8559735496447684e+02,	 3.2001593141934128e+00 
1.0125860000000000e+00,	 2.6846919999999996e-01,	 2.9392720670650116e-02,	 1.5360697493008961e+03,	 -1.6947814868877015e+02,	 5.9994748602302570e+02,	 5.0732114355168815e+03,	 4.9157026599698992e+02,	 3.1437843865062596e+00 
1.0130969999999999e+00,	 2.6845859999999999e-01,	 3.1254570758017824e-02,	 1.5303089545069884e+03,	 -1.5085952461330768e+02,	 6.1304490716765770e+02,	 5.5123370585064713e+03,	 4.9690701861648927e+02,	 3.0945969090085574e+00 
1.0136090000000000e+00,	 2.6844799999999996e-01,	 3.3023837735914149e-02,	 1.5251452047582791e+03,	 -1.3337616384637943e+02,	 6.2452353125912373e+02,	 5.9334363219500856e+03,	 5.0153747587880707e+02,	 3.0525457021659186e+00 
1.0141220000000000e+00,	 2.6843729999999999e-01,	 3.4683357106233395e-02,	 1.5205927948778369e+03,	 -1.1749681873889597e+02,	 6.3431620430969940e+02,	 6.3293173417907756e+03,	 5.0545429311555176e+02,	 3.0173362321040402e+00 
1.0146360000000001e+00,	 2.6842669999999996e-01,	 3.6218849382621571e-02,	 1.5166429274914994e+03,	 -1.0362876145385978e+02,	 6.4250026854636826e+02,	 6.6948045146004333e+03,	 5.0870457487112731e+02,	 2.9883339737467161e+00 