TITLE = "Final State"
VARIABLES = "X", "Y", "rho", "u", "v", "T", "p", "c", "M"
ZONE I=77, J=27, DATAPACKING=POINT, STRANDID=85000, SOLUTIONTIME=0.002051
2.5077519999999998e-01,	 6.7296190000000006e-02,	 2.6598094311111032e-02,	 1.5933326833307578e+03,	 4.1239019645208725e+02,	 4.5175552968103784e+02,	 3.4568770732962921e+03,	 4.2656058680831472e+02,	 3.8583864004059936e+00 
2.5481999999999999e-01,	 6.8379999999999996e-02,	 2.6613919578930317e-02,	 1.5932581601373199e+03,	 4.1255864422509228e+02,	 4.5181901790853328e+02,	 3.4594199445136596e+03,	 4.2659055946207849e+02,	 3.8580451489378977e+00 
2.5886480000000001e-01,	 6.9463810000000001e-02,	 2.6637359715409915e-02,	 1.5931323895359967e+03,	 4.1280263999122280e+02,	 4.5191670887516921e+02,	 3.4632154634120498e+03,	 4.2663667504159582e+02,	 3.8574861578471284e+00 
2.6290950000000002e-01,	 7.0547620000000005e-02,	 2.6660258818135649e-02,	 1.5930068507688334e+03,	 4.1304734624464390e+02,	 4.5201371366959353e+02,	 3.4669366800754688e+03,	 4.2668246177784192e+02,	 3.8569313060788306e+00 
2.6695429999999998e-01,	 7.1631429999999996e-02,	 2.6682514705685181e-02,	 1.5928827183348535e+03,	 4.1328915237488116e+02,	 4.5210929459093450e+02,	 3.4705645821264320e+03,	 4.2672757163388906e+02,	 3.8563842761411848e+00 
2.7099899999999999e-01,	 7.2715240000000000e-02,	 2.6704221896860000e-02,	 1.5927604386899170e+03,	 4.1352725455301584e+02,	 4.5220347206237568e+02,	 3.4741115425708754e+03,	 4.2677201446167862e+02,	 3.8558455096003801e+00 
2.7504380000000000e-01,	 7.3799050000000005e-02,	 2.6725242655959314e-02,	 1.5926407521290923e+03,	 4.1375941216740750e+02,	 4.5229567206981960e+02,	 3.4775551545715284e+03,	 4.2681551963120387e+02,	 3.8553178001030086e+00 
2.7908860000000002e-01,	 7.4882860000000009e-02,	 2.6745790565208136e-02,	 1.5925229207999728e+03,	 4.1398698487932268e+02,	 4.5238678613452390e+02,	 3.4809299849124359e+03,	 4.2685850803563517e+02,	 3.8547964613344310e+00 
2.8313329999999998e-01,	 7.5966670000000000e-02,	 2.6765847661958584e-02,	 1.5924073602244916e+03,	 4.1420888574076650e+02,	 4.5247665614444105e+02,	 3.4842324213506081e+03,	 4.2690090524362398e+02,	 3.8542824572955001e+00 
2.8717809999999999e-01,	 7.7050480000000005e-02,	 2.6785316173199361e-02,	 1.5922946160721344e+03,	 4.1442339581751753e+02,	 4.5256483987545141e+02,	 3.4874462664677940e+03,	 4.2694250283773044e+02,	 3.8537778814174772e+00 
2.9122290000000001e-01,	 7.8134290000000009e-02,	 2.6804425373024639e-02,	 1.5921837175503606e+03,	 4.1463250801565357e+02,	 4.5265235468339608e+02,	 3.4906091496046192e+03,	 4.2698378088422731e+02,	 3.8532773638914501e+00 
2.9526760000000002e-01,	 7.9218100000000000e-02,	 2.6823131353840228e-02,	 1.5920750212704820e+03,	 4.1483548080112507e+02,	 4.5273899128682604e+02,	 3.4937136986297523e+03,	 4.2702464077837811e+02,	 3.8527821567528884e+00 
2.9931239999999998e-01,	 8.0301900000000009e-02,	 2.6841397159673642e-02,	 1.5919684920376703e+03,	 4.1503189266761393e+02,	 4.5282465018316623e+02,	 3.4967542864178104e+03,	 4.2706503571909656e+02,	 3.8522923442523855e+00 
3.0335709999999999e-01,	 8.1385710000000000e-02,	 2.6859396760964400e-02,	 1.5918637096640164e+03,	 4.1522328187748360e+02,	 4.5290986845418854e+02,	 3.4997576833706280e+03,	 4.2710521907908554e+02,	 3.8518055889374168e+00 
3.0740190000000001e-01,	 8.2469520000000004e-02,	 2.6876936282387524e-02,	 1.5917612436031363e+03,	 4.1540802263997375e+02,	 4.5299394418501441e+02,	 3.5026931691079694e+03,	 4.2714485998734654e+02,	 3.8513251965473043e+00 
3.1144670000000002e-01,	 8.3553330000000009e-02,	 2.6894235522591382e-02,	 1.5916601201314941e+03,	 4.1558842774327263e+02,	 4.5307776200966100e+02,	 3.5055961877698269e+03,	 4.2718437563369406e+02,	 3.8508465589048644e+00 
3.1549139999999998e-01,	 8.4637140000000000e-02,	 2.6911252260102499e-02,	 1.5915606488128230e+03,	 4.1576412073907591e+02,	 4.5316103602625526e+02,	 3.5084590001382426e+03,	 4.2722363128399877e+02,	 3.8503713638894679e+00 
3.1953619999999999e-01,	 8.5720950000000004e-02,	 2.6927850179736590e-02,	 1.5914633234527946e+03,	 4.1593383557758989e+02,	 4.5324317798516608e+02,	 3.5112592459199859e+03,	 4.2726234974503558e+02,	 3.8499024721461659e+00 
3.2358100000000001e-01,	 8.6804760000000009e-02,	 2.6944244257077320e-02,	 1.5913671394017335e+03,	 4.1609990779691833e+02,	 4.5332510628457169e+02,	 3.5140320351055675e+03,	 4.2730096400078855e+02,	 3.8494350824526831e+00 
3.2762570000000002e-01,	 8.7888569999999999e-02,	 2.6960385454686694e-02,	 1.5912723473042215e+03,	 4.1626201781549622e+02,	 4.5340659039727097e+02,	 3.5167691656645534e+03,	 4.2733936544264679e+02,	 3.8489705474427636e+00 
3.3167049999999998e-01,	 8.8972380000000004e-02,	 2.6976199604974549e-02,	 1.5911792066913065e+03,	 4.1641932821364139e+02,	 4.5348671008413845e+02,	 3.5194537954584325e+03,	 4.2737712050011135e+02,	 3.8485128580988031e+00 
3.3571519999999999e-01,	 9.0056190000000008e-02,	 2.6991792553889577e-02,	 1.5910877380849911e+03,	 4.1657237636936486e+02,	 4.5356313115852930e+02,	 3.5220815690517798e+03,	 4.2741312954086783e+02,	 3.8480722717776117e+00 
3.3976000000000001e-01,	 9.1139999999999999e-02,	 2.7006998201204557e-02,	 1.5909984321824975e+03,	 4.1671960212063698e+02,	 4.5363589795502770e+02,	 3.5246310891296953e+03,	 4.2744741389375093e+02,	 3.8476487691466077e+00 
3.4380480000000002e-01,	 9.2223810000000003e-02,	 2.7022031828335978e-02,	 1.5909098853935152e+03,	 4.1686425419666011e+02,	 4.5371347123999817e+02,	 3.5271961581653154e+03,	 4.2748395981390888e+02,	 3.8472052115190172e+00 
3.4784949999999998e-01,	 9.3307620000000008e-02,	 2.7036844000124009e-02,	 1.5908221287001388e+03,	 4.1700718447556574e+02,	 4.5379656065496818e+02,	 3.5297758928653684e+03,	 4.2752310099920174e+02,	 3.8467391820490247e+00 
3.5189429999999999e-01,	 9.4391429999999998e-02,	 2.7051339179967333e-02,	 1.5907356582387749e+03,	 4.1714726963528716e+02,	 4.5387840064535311e+02,	 3.5323052198417863e+03,	 4.2756165011145839e+02,	 3.8462798227155850e+00 
3.5593900000000001e-01,	 9.5475240000000003e-02,	 2.7065612509758412e-02,	 1.5906505945349315e+03,	 4.1728459067308529e+02,	 4.5395660663148703e+02,	 3.5347779589359011e+03,	 4.2759848425048045e+02,	 3.8458375478299693e+00 
3.5998380000000002e-01,	 9.6559050000000007e-02,	 2.7079487882823189e-02,	 1.5905674792960019e+03,	 4.1741749059019412e+02,	 4.5403176293057754e+02,	 3.5371755992138924e+03,	 4.2763387903170866e+02,	 3.8454101089374189e+00 
3.6402859999999998e-01,	 9.7642859999999998e-02,	 2.7093176907342423e-02,	 1.5904852676773894e+03,	 4.1754843942059364e+02,	 4.5410624484592586e+02,	 3.5395442377739996e+03,	 4.2766895332257536e+02,	 3.8449865392280738e+00 
3.6807329999999999e-01,	 9.8726670000000002e-02,	 2.7106620065105350e-02,	 1.5904043838451244e+03,	 4.1767675750612602e+02,	 4.5417983097707042e+02,	 3.5418743511766961e+03,	 4.2770360295493373e+02,	 3.8445683273797000e+00 
3.7211810000000001e-01,	 9.9810480000000007e-02,	 2.7119687930371079e-02,	 1.5903253178993587e+03,	 4.1780122445269274e+02,	 4.5425194905262902e+02,	 3.5441445343998967e+03,	 4.2773755859793204e+02,	 3.8441582728252834e+00 
3.7616290000000002e-01,	 1.0089430000000001e-01,	 2.7132552482562498e-02,	 1.5902473278290076e+03,	 4.1792387640201139e+02,	 4.5432326676716013e+02,	 3.5463824381325285e+03,	 4.2777113475310500e+02,	 3.8437530753548357e+00 
3.8020759999999998e-01,	 1.0197810000000000e-01,	 2.7145089061298262e-02,	 1.5901710225570419e+03,	 4.1804333112934876e+02,	 4.5439324298950010e+02,	 3.5485675186633835e+03,	 4.2780407677664942e+02,	 3.8433555743546872e+00 
3.8425239999999999e-01,	 1.0306190000000000e-01,	 2.7157321074360093e-02,	 1.5900962051508418e+03,	 4.1815984872987815e+02,	 4.5446196488771864e+02,	 3.5507034831787264e+03,	 4.2783642584562506e+02,	 3.8429651038423489e+00 
3.8829710000000001e-01,	 1.0414570000000001e-01,	 2.7169340525277391e-02,	 1.5900225922457407e+03,	 4.1827456754528907e+02,	 4.5452975891506856e+02,	 3.5528048829277473e+03,	 4.2786833574676740e+02,	 3.8425803140386945e+00 
3.9234190000000002e-01,	 1.0522950000000000e-01,	 2.7180978904042981e-02,	 1.5899507407015114e+03,	 4.1838574039595062e+02,	 4.5459601445229282e+02,	 3.5548448824435177e+03,	 4.2789951919833425e+02,	 3.8422040003724915e+00 
3.9638669999999998e-01,	 1.0631330000000000e-01,	 2.7192469530090135e-02,	 1.5898794237921475e+03,	 4.1849595753307597e+02,	 4.5466190220995674e+02,	 3.5568631219198614e+03,	 4.2793052729941638e+02,	 3.8418299779744052e+00 
4.0043139999999999e-01,	 1.0739710000000001e-01,	 2.7204006702160104e-02,	 1.5898074476383979e+03,	 4.1860757194916152e+02,	 4.5472839814221203e+02,	 3.5588926460957118e+03,	 4.2796181934176280e+02,	 3.8414528248837856e+00 
4.0447620000000001e-01,	 1.0848100000000001e-01,	 2.7215258857739181e-02,	 1.5897373685638393e+03,	 4.1871591722381436e+02,	 4.5479345015069856e+02,	 3.5608740142892402e+03,	 4.2799242968017700e+02,	 3.8410842084756309e+00 
4.0852100000000002e-01,	 1.0956480000000000e-01,	 2.7225870126837963e-02,	 1.5896705915138416e+03,	 4.1881701619692507e+02,	 4.5485555817629802e+02,	 3.5627488780286212e+03,	 4.2802165267944150e+02,	 3.8407312618585094e+00 
4.1256569999999998e-01,	 1.1064860000000000e-01,	 2.7236396821747375e-02,	 1.5896048411584889e+03,	 4.1891681132527020e+02,	 4.5491708102774368e+02,	 3.5646084669046872e+03,	 4.2805059837626681e+02,	 3.8403824131698117e+00 
4.1661049999999999e-01,	 1.1173240000000001e-01,	 2.7246694134362238e-02,	 1.5895400192150150e+03,	 4.1901433416636013e+02,	 4.5497790200960912e+02,	 3.5664329018313833e+03,	 4.2807921192876239e+02,	 3.8400373534540448e+00 
4.2065520000000001e-01,	 1.1281620000000001e-01,	 2.7256889722559581e-02,	 1.5894760883293584e+03,	 4.1911011620315935e+02,	 4.5503826682533293e+02,	 3.5682408031222235e+03,	 4.2810760898449416e+02,	 3.8396952749165445e+00 
4.2470000000000002e-01,	 1.1390000000000000e-01,	 2.7266804732687729e-02,	 1.5894134602239919e+03,	 4.1920275761970947e+02,	 4.5509765506162069e+02,	 3.5700046620057960e+03,	 4.2813554479582064e+02,	 3.8393584664040445e+00 
4.2874479999999998e-01,	 1.1498380000000000e-01,	 2.7276695181556395e-02,	 1.5893510713266123e+03,	 4.1929440748202001e+02,	 4.5515715633757600e+02,	 3.5717665305653281e+03,	 4.2816353195231915e+02,	 3.8390212067594471e+00 
4.3278949999999999e-01,	 1.1606760000000001e-01,	 2.7286506171826246e-02,	 1.5892892958037746e+03,	 4.1938441135846381e+02,	 4.5521651954376523e+02,	 3.5735172477448673e+03,	 4.2819145234309099e+02,	 3.8386850095383060e+00 
4.3683430000000001e-01,	 1.1715140000000000e-01,	 2.7296144751515442e-02,	 1.5892283105027436e+03,	 4.1947195808823022e+02,	 4.5527542739007174e+02,	 3.5752421418142844e+03,	 4.2821915676417854e+02,	 3.8383511268809851e+00 
4.4087900000000002e-01,	 1.1823520000000000e-01,	 2.7305743307476309e-02,	 1.5891677132401555e+03,	 4.1955819400180997e+02,	 4.5533445443056547e+02,	 3.5769630559570442e+03,	 4.2824691544470033e+02,	 3.8380169101604249e+00 
4.4492379999999998e-01,	 1.1931900000000001e-01,	 2.7315399938948132e-02,	 1.5891064128064454e+03,	 4.1964452849359407e+02,	 4.5539434779694068e+02,	 3.5786987127755615e+03,	 4.2827507969381224e+02,	 3.8376775877498170e+00 
4.4896860000000000e-01,	 1.2040290000000001e-01,	 2.7325166046850199e-02,	 1.5890452708217431e+03,	 4.1973067440031133e+02,	 4.5545466265101288e+02,	 3.5804523606353928e+03,	 4.2830344027163420e+02,	 3.8373368101695227e+00 
4.5301330000000001e-01,	 1.2148670000000000e-01,	 2.7334330555876502e-02,	 1.5889873495190070e+03,	 4.1980914302088144e+02,	 4.5551234129768278e+02,	 3.5821067778024199e+03,	 4.2833055952493044e+02,	 3.8370099027467672e+00 
4.5705810000000002e-01,	 1.2257050000000000e-01,	 2.7343382557214278e-02,	 1.5889306396599350e+03,	 4.1988499467413317e+02,	 4.5556936947556602e+02,	 3.5837416364328842e+03,	 4.2835737125387692e+02,	 3.8366869762118228e+00 
4.6110289999999998e-01,	 1.2365430000000001e-01,	 2.7352488148690259e-02,	 1.5888735560612113e+03,	 4.1996132106414944e+02,	 4.5562698793169801e+02,	 3.5853884616997848e+03,	 4.2838445879719256e+02,	 3.8363610707345641e+00 
4.6514759999999999e-01,	 1.2473810000000000e-01,	 2.7361557885086797e-02,	 1.5888166814906585e+03,	 4.2003703832674114e+02,	 4.5568468202472570e+02,	 3.5870314837274323e+03,	 4.2841158018280510e+02,	 3.8360350228402114e+00 
4.6919240000000001e-01,	 1.2582189999999999e-01,	 2.7370473601404502e-02,	 1.5887604421337696e+03,	 4.2011104741240160e+02,	 4.5574187211617357e+02,	 3.5886506439737977e+03,	 4.2843846294815211e+02,	 3.8357115775935173e+00 
4.7323710000000002e-01,	 1.2690569999999998e-01,	 2.7379333999859215e-02,	 1.5887047112081268e+03,	 4.2018455742298488e+02,	 4.5579873794389800e+02,	 3.5902602895732489e+03,	 4.2846519161778383e+02,	 3.8353904121616074e+00 
4.7728189999999998e-01,	 1.2798949999999998e-01,	 2.7387916045649476e-02,	 1.5886501434625088e+03,	 4.2025585645220690e+02,	 4.5585446735924631e+02,	 3.5918247659006815e+03,	 4.2849138452136492e+02,	 3.8350753970521954e+00 
4.8132670000000000e-01,	 1.2907330000000000e-01,	 2.7396454637495037e-02,	 1.5885954411394446e+03,	 4.2032795799817580e+02,	 4.5591019067696908e+02,	 3.5933837698374082e+03,	 4.2851757295828918e+02,	 3.8347606456084593e+00 
4.8537140000000001e-01,	 1.3015710000000000e-01,	 2.7405134495436790e-02,	 1.5885394709697057e+03,	 4.2040339071601045e+02,	 4.5596671994344820e+02,	 3.5949679329255659e+03,	 4.2854413853384011e+02,	 3.8344416967499670e+00 
4.8941620000000002e-01,	 1.3124100000000000e-01,	 2.7413528303868936e-02,	 1.5884852761943125e+03,	 4.2047706624560345e+02,	 4.5602145081603430e+02,	 3.5965006667238486e+03,	 4.2856985739645773e+02,	 3.8341333286983987e+00 
4.9346099999999998e-01,	 1.3232479999999999e-01,	 2.7421187680320314e-02,	 1.5884344982362313e+03,	 4.2054476053380188e+02,	 4.5607248152735519e+02,	 3.5979081097622352e+03,	 4.2859383610713712e+02,	 3.8338447086949481e+00 
4.9750570000000000e-01,	 1.3340859999999999e-01,	 2.7428715353683110e-02,	 1.5883847537757713e+03,	 4.2061312483730615e+02,	 4.5612219909170130e+02,	 3.5992881330040232e+03,	 4.2861719649588349e+02,	 3.8335643910473798e+00 
5.0155050000000001e-01,	 1.3449239999999998e-01,	 2.7435895120571836e-02,	 1.5883361091641846e+03,	 4.2068111637583439e+02,	 4.5617016623563620e+02,	 3.6006088968666731e+03,	 4.2863973322211740e+02,	 3.8332937364364104e+00 
5.0559520000000002e-01,	 1.3557619999999998e-01,	 2.7442824338881646e-02,	 1.5882887053346089e+03,	 4.2074935246121231e+02,	 4.5621635957267404e+02,	 3.6018829697290030e+03,	 4.2866143542876534e+02,	 3.8330335252302428e+00 
5.0963999999999998e-01,	 1.3665999999999998e-01,	 2.7449254604092265e-02,	 1.5882431961659613e+03,	 4.2081615433073682e+02,	 4.5625992685370045e+02,	 3.6030709944292253e+03,	 4.2868190287473243e+02,	 3.8327878042500219e+00 
5.1368480000000005e-01,	 1.3774380000000000e-01,	 2.7455442691401318e-02,	 1.5881985395671168e+03,	 4.2088395403011145e+02,	 4.5630184138539323e+02,	 3.6042143336403719e+03,	 4.2870159295434047e+02,	 3.8325515831537200e+00 
5.1772949999999995e-01,	 1.3882760000000000e-01,	 2.7461285502516204e-02,	 1.5881553353569684e+03,	 4.2095189207712286e+02,	 4.5634158139812507e+02,	 3.6052953121427227e+03,	 4.2872026068071938e+02,	 3.8323278882779550e+00 
5.2177430000000002e-01,	 1.3991139999999999e-01,	 2.7466648136848064e-02,	 1.5881139331463366e+03,	 4.2101886515038575e+02,	 4.5637862284751907e+02,	 3.6062920540625173e+03,	 4.2873766003489334e+02,	 3.8321190440245791e+00 
5.2581900000000004e-01,	 1.4099519999999999e-01,	 2.7471662995744127e-02,	 1.5880739632115074e+03,	 4.2108611358222214e+02,	 4.5641350176669232e+02,	 3.6072261532767739e+03,	 4.2875404294563742e+02,	 3.8319227026300520e+00 
5.2986380000000000e-01,	 1.4207899999999998e-01,	 2.7476429206197597e-02,	 1.5880342866500928e+03,	 4.2115499388016258e+02,	 4.5644698143611129e+02,	 3.6081166405440331e+03,	 4.2876976802863106e+02,	 3.8317338999753985e+00 
5.3390859999999996e-01,	 1.4316289999999998e-01,	 2.7481001231698776e-02,	 1.5879960034774222e+03,	 4.2122487761470359e+02,	 4.5647850631110805e+02,	 3.6089662632035652e+03,	 4.2878457443606521e+02,	 3.8315570696567751e+00 
5.3795329999999997e-01,	 1.4424669999999998e-01,	 2.7484568864974898e-02,	 1.5879625233248305e+03,	 4.2128725744475662e+02,	 4.5650471522900682e+02,	 3.6096420230451595e+03,	 4.2879688368858041e+02,	 3.8314089116666801e+00 
5.4199810000000004e-01,	 1.4533050000000000e-01,	 2.7487726265218462e-02,	 1.5879314383586302e+03,	 4.2134776035271727e+02,	 4.5652808606066429e+02,	 3.6102415125990428e+03,	 4.2880785971050511e+02,	 3.8312769571788716e+00 
5.4604290000000000e-01,	 1.4641430000000000e-01,	 2.7490698369824471e-02,	 1.5879009281366277e+03,	 4.2140947992487366e+02,	 4.5655021788245062e+02,	 3.6108069074158170e+03,	 4.2881825357717537e+02,	 3.8311522400331701e+00 
5.5008760000000001e-01,	 1.4749809999999999e-01,	 2.7493412919782939e-02,	 1.5878715737693042e+03,	 4.2147095069997761e+02,	 4.5657075721092917e+02,	 3.6113259134368800e+03,	 4.2882789932868889e+02,	 3.8310366751737215e+00 
5.5413239999999997e-01,	 1.4858189999999999e-01,	 2.7497118696021748e-02,	 1.5878647306653450e+03,	 4.2143680387264988e+02,	 4.5660410258305910e+02,	 3.6120764626370728e+03,	 4.2884355863732731e+02,	 3.8308609340288400e+00 
5.5817709999999998e-01,	 1.4966569999999998e-01,	 2.7498824579809601e-02,	 1.5879733119604423e+03,	 4.2096382092777242e+02,	 4.5663826436448522e+02,	 3.6125708126862328e+03,	 4.2885960074670049e+02,	 3.8306795931886946e+00 
2.4943370000000001e-01,	 7.1991070000000004e-02,	 2.6472610222235168e-02,	 1.5975201038787020e+03,	 3.9611788009965568e+02,	 4.5148090069469112e+02,	 3.4384766974477720e+03,	 4.2643091079664958e+02,	 3.8597058660119807e+00 
2.5348749999999998e-01,	 7.3053199999999999e-02,	 2.6492527549843436e-02,	 1.5973830500199854e+03,	 3.9651836672805746e+02,	 4.5156296128200944e+02,	 3.4416891643395443e+03,	 4.2646966280255157e+02,	 3.8592693572721424e+00 
2.5754129999999997e-01,	 7.4115330000000007e-02,	 2.6521416580302163e-02,	 1.5971638686354061e+03,	 3.9709754877547016e+02,	 4.5168427280701070e+02,	 3.4463677987064270e+03,	 4.2652694408488696e+02,	 3.8585797435159095e+00 
2.6159510000000002e-01,	 7.5177469999999996e-02,	 2.6549227373756021e-02,	 1.5969510035806948e+03,	 3.9765966136205742e+02,	 4.5180192099050009e+02,	 3.4508803179566357e+03,	 4.2658248825155300e+02,	 3.8579112626079572e+00 
2.6564900000000002e-01,	 7.6239600000000005e-02,	 2.6575998289408577e-02,	 1.5967441332517812e+03,	 3.9820513894695688e+02,	 4.5191612893308002e+02,	 3.4552332176485229e+03,	 4.2663640129132369e+02,	 3.8572624088056200e+00 
2.6970280000000002e-01,	 7.7301729999999999e-02,	 2.6601860089538326e-02,	 1.5965429227730501e+03,	 3.9873459428077314e+02,	 4.5202736544482565e+02,	 3.4594469086826466e+03,	 4.2668890508797455e+02,	 3.8566307047807409e+00 
2.7375660000000002e-01,	 7.8363870000000002e-02,	 2.6626829517468545e-02,	 1.5963473469526277e+03,	 3.9924769915118941e+02,	 4.5213570821570136e+02,	 3.4635240104991012e+03,	 4.2674003682479162e+02,	 3.8560155174913344e+00 
2.7781040000000001e-01,	 7.9425999999999997e-02,	 2.6651034974062165e-02,	 1.5961567458595323e+03,	 3.9974536375312277e+02,	 4.5224176082080481e+02,	 3.4674857109259387e+03,	 4.2679008179828145e+02,	 3.8554132359240292e+00 
2.8186430000000001e-01,	 8.0488130000000005e-02,	 2.6674565184692002e-02,	 1.5959709752529475e+03,	 4.0022805527693026e+02,	 4.5234585221515420e+02,	 3.4713459630627403e+03,	 4.2683919559375840e+02,	 3.8548223477625432e+00 
2.8591810000000001e-01,	 8.1550270000000008e-02,	 2.6697402749849948e-02,	 1.5957901354524956e+03,	 4.0069537743078791e+02,	 4.5244787822499745e+02,	 3.4751016014630645e+03,	 4.2688732938833931e+02,	 3.8542432534845026e+00 
2.8997190000000000e-01,	 8.2612400000000002e-02,	 2.6719648269704115e-02,	 1.5956135721717505e+03,	 4.0114861729631025e+02,	 4.5254828593576792e+02,	 3.4787690588432611e+03,	 4.2693469440405607e+02,	 3.8536732531464835e+00 
2.9402570000000000e-01,	 8.3674529999999997e-02,	 2.6741355581617870e-02,	 1.5954412031855359e+03,	 4.0158854807231387e+02,	 4.5264720769990163e+02,	 3.4823562819491463e+03,	 4.2698135332067085e+02,	 3.8531120000307095e+00 
2.9807960000000000e-01,	 8.4736670000000000e-02,	 2.6762492794211685e-02,	 1.5952728926335508e+03,	 4.0201533370216475e+02,	 4.5274452511571991e+02,	 3.4858581314643525e+03,	 4.2702725053159139e+02,	 3.8525597476203188e+00 
3.0213340000000000e-01,	 8.5798800000000008e-02,	 2.6783163096823739e-02,	 1.5951082468662614e+03,	 4.0243035681106153e+02,	 4.5284056125950048e+02,	 3.4892904630691496e+03,	 4.2707253862854628e+02,	 3.8520149853131835e+00 
3.0618719999999999e-01,	 8.6860930000000003e-02,	 2.6803310733811064e-02,	 1.5949474155663479e+03,	 4.0283351097634602e+02,	 4.5293504549209393e+02,	 3.4926438629459940e+03,	 4.2711709019914895e+02,	 3.8514791128651318e+00 
3.1024109999999999e-01,	 8.7923070000000006e-02,	 2.6823010058083522e-02,	 1.5947898289192447e+03,	 4.0322593760424900e+02,	 4.5302831402486447e+02,	 3.4959305466141800e+03,	 4.2716106398097600e+02,	 3.8509500325755863e+00 
3.1429489999999999e-01,	 8.8985200000000000e-02,	 2.6842306002068189e-02,	 1.5946354111866208e+03,	 4.0360832248722932e+02,	 4.5312048600510064e+02,	 3.4991572347935203e+03,	 4.2720451631881662e+02,	 3.8504274343759808e+00 
3.1834869999999998e-01,	 9.0047330000000009e-02,	 2.6861143374132715e-02,	 1.5944843540596628e+03,	 4.0398028738688998e+02,	 4.5321128317801754e+02,	 3.5023145306268211e+03,	 4.2724731621484824e+02,	 3.8499126939772412e+00 
3.2240249999999998e-01,	 9.1109469999999998e-02,	 2.6879598182554372e-02,	 1.5943361083345114e+03,	 4.0434288904139657e+02,	 4.5330105023976358e+02,	 3.5054149537538428e+03,	 4.2728962632351710e+02,	 3.8494036848881450e+00 
3.2645639999999998e-01,	 9.2171600000000006e-02,	 2.6897709430374003e-02,	 1.5941906155084209e+03,	 4.0469678398583022e+02,	 4.5338989762045384e+02,	 3.5084644001179581e+03,	 4.2733149883190271e+02,	 3.8489001627985919e+00 
3.3051019999999998e-01,	 9.3233730000000001e-02,	 2.6915428670316464e-02,	 1.5940479333563076e+03,	 4.0504172095140052e+02,	 4.5347790054969306e+02,	 3.5114570909735144e+03,	 4.2737296931809698e+02,	 3.8484017756886870e+00 
3.3456399999999997e-01,	 9.4295870000000004e-02,	 2.6932813099972499e-02,	 1.5939079071955680e+03,	 4.0537844328145820e+02,	 4.5356645389540563e+02,	 3.5144112551982648e+03,	 4.2741469512090327e+02,	 3.8479026659749365e+00 
3.3861780000000002e-01,	 9.5357999999999998e-02,	 2.6949796500362742e-02,	 1.5937708155631933e+03,	 4.0570646208123509e+02,	 4.5365491082027961e+02,	 3.5173132178658975e+03,	 4.2745637142441149e+02,	 3.8474059143974437e+00 
3.4267170000000002e-01,	 9.6420130000000007e-02,	 2.6966446931567328e-02,	 1.5936361416257812e+03,	 4.0602703788531869e+02,	 4.5373981569702556e+02,	 3.5201450224414757e+03,	 4.2749637036599830e+02,	 3.8469257114614770e+00 
3.4672550000000002e-01,	 9.7482270000000010e-02,	 2.6982795475398110e-02,	 1.5935036712204385e+03,	 4.0634129109852415e+02,	 4.5382081140919610e+02,	 3.5229078793498015e+03,	 4.2753452420074092e+02,	 3.8464637067416314e+00 
3.5077930000000002e-01,	 9.8544400000000004e-02,	 2.6998787038647786e-02,	 1.5933734525155735e+03,	 4.0664895258916550e+02,	 4.5390079824239581e+02,	 3.5256170456695145e+03,	 4.2757219945176411e+02,	 3.8460075414053483e+00 
3.5483310000000001e-01,	 9.9606529999999999e-02,	 2.7014471084949941e-02,	 1.5932454420215927e+03,	 4.0695050305078183e+02,	 4.5398113266546397e+02,	 3.5282894854493416e+03,	 4.2761003508282204e+02,	 3.8455516359744655e+00 
3.5888700000000001e-01,	 1.0066870000000000e-01,	 2.7029774436858528e-02,	 1.5931199961610005e+03,	 4.0724519206975145e+02,	 4.5406085096680812e+02,	 3.5309081287598779e+03,	 4.2764757722593060e+02,	 3.8451004357186029e+00 
3.6294080000000001e-01,	 1.0173080000000000e-01,	 2.7044759259775279e-02,	 1.5929965964330722e+03,	 4.0753402119310425e+02,	 4.5413951962848915e+02,	 3.5334776903420475e+03,	 4.2768462182627263e+02,	 3.8446551688760082e+00 
3.6699460000000000e-01,	 1.0279290000000001e-01,	 2.7059457824718428e-02,	 1.5928753644005437e+03,	 4.0781715754230407e+02,	 4.5421710432590976e+02,	 3.5360020848068702e+03,	 4.2772115285195741e+02,	 3.8442163405042256e+00 
3.7104850000000000e-01,	 1.0385510000000001e-01,	 2.7073790312958475e-02,	 1.5927565009297552e+03,	 4.0809415163718859e+02,	 4.5429327777497463e+02,	 3.5384682979437212e+03,	 4.2775701635123397e+02,	 3.8437855170036745e+00 
3.7510230000000000e-01,	 1.0491720000000000e-01,	 2.7087817758707017e-02,	 1.5926396160661993e+03,	 4.0836589452541267e+02,	 4.5436828704690259e+02,	 3.5408861919635447e+03,	 4.2779232880202545e+02,	 3.8433612739409377e+00 
3.7915610000000000e-01,	 1.0597930000000000e-01,	 2.7101530499852679e-02,	 1.5925250380075240e+03,	 4.0863193016591168e+02,	 4.5444198667953856e+02,	 3.5432533356405870e+03,	 4.2782702186929555e+02,	 3.8429446930447013e+00 
3.8320989999999999e-01,	 1.0704150000000000e-01,	 2.7114897403095247e-02,	 1.5924126158878726e+03,	 4.0889232392183453e+02,	 4.5451432210446768e+02,	 3.5455651967658046e+03,	 4.2786107001948358e+02,	 3.8425356889861702e+00 
3.8726379999999999e-01,	 1.0810360000000001e-01,	 2.7127991219391398e-02,	 1.5923021892038710e+03,	 4.0914781197926442e+02,	 4.5458549845841304e+02,	 3.5478328534657885e+03,	 4.2789456995262458e+02,	 3.8421334475382967e+00 
3.9131759999999999e-01,	 1.0916570000000000e-01,	 2.7140743524262149e-02,	 1.5921940721070109e+03,	 4.0939752140922559e+02,	 4.5465526319940307e+02,	 3.5500453539464202e+03,	 4.2792740294960333e+02,	 3.8417392282336258e+00 
3.9537139999999998e-01,	 1.1022790000000000e-01,	 2.7153231650097379e-02,	 1.5920876831744206e+03,	 4.0964233308703353e+02,	 4.5472403263653155e+02,	 3.5522160309339883e+03,	 4.2795976506689789e+02,	 3.8413504576792294e+00 
3.9942519999999998e-01,	 1.1129000000000000e-01,	 2.7165572023714987e-02,	 1.5919820906605037e+03,	 4.0988408135995786e+02,	 4.5479252402638156e+02,	 3.5543656969929757e+03,	 4.2799199390609289e+02,	 3.8409630581570591e+00 
4.0347909999999998e-01,	 1.1235210000000000e-01,	 2.7177739369953602e-02,	 1.5918783335034600e+03,	 4.1012172047413452e+02,	 4.5486029579404260e+02,	 3.5564875802979282e+03,	 4.2802388173618289e+02,	 3.8405806304028269e+00 
4.0753289999999998e-01,	 1.1341430000000001e-01,	 2.7189468568265630e-02,	 1.5917774794645525e+03,	 4.1035207850214772e+02,	 4.5492616848315663e+02,	 3.5585377383173932e+03,	 4.2805487373925433e+02,	 3.8402087106490015e+00 
4.1158670000000003e-01,	 1.1447640000000001e-01,	 2.7200959483191133e-02,	 1.5916785594877399e+03,	 4.1057727903462921e+02,	 4.5499094450181224e+02,	 3.5605485679938238e+03,	 4.2808534758913993e+02,	 3.8398429454981375e+00 
4.1564050000000002e-01,	 1.1553850000000000e-01,	 2.7212207460705656e-02,	 1.5915814623866024e+03,	 4.1079719630684883e+02,	 4.5505479210454934e+02,	 3.5625207530685366e+03,	 4.2811538254340047e+02,	 3.8394822909508268e+00 
4.1969440000000002e-01,	 1.1660070000000000e-01,	 2.7223285820717674e-02,	 1.5914859444823696e+03,	 4.1101260488721823e+02,	 4.5511801866283088e+02,	 3.5644662785587298e+03,	 4.2814512327186435e+02,	 3.8391253432650050e+00 
4.2374820000000002e-01,	 1.1766280000000000e-01,	 2.7234133484372473e-02,	 1.5913922651125913e+03,	 4.1122278087332063e+02,	 4.5518038041557617e+02,	 3.5663752209553945e+03,	 4.2817445518650874e+02,	 3.8387732869892970e+00 
4.2780200000000002e-01,	 1.1872490000000001e-01,	 2.7244836016351474e-02,	 1.5912998644630677e+03,	 4.1142854336219818e+02,	 4.5524233195140800e+02,	 3.5682623292979765e+03,	 4.2820359216575304e+02,	 3.8384234106492219e+00 
4.3185590000000001e-01,	 1.1978710000000001e-01,	 2.7255429532500961e-02,	 1.5912086914647512e+03,	 4.1163037298028695e+02,	 4.5530404184122563e+02,	 3.5701336445766233e+03,	 4.2823261352340751e+02,	 3.8380751637495782e+00 
4.3590970000000001e-01,	 1.2084920000000000e-01,	 2.7265858055373491e-02,	 1.5911188533025154e+03,	 4.1182775190034943e+02,	 4.5536530027632506e+02,	 3.5719801796299239e+03,	 4.2826142062266769e+02,	 3.8377293650752202e+00 
4.3996350000000001e-01,	 1.2191130000000000e-01,	 2.7276195751084420e-02,	 1.5910301666902092e+03,	 4.1202124845989294e+02,	 4.5542638273892226e+02,	 3.5738138009043996e+03,	 4.2829014304069398e+02,	 3.8373847667958603e+00 
4.4401730000000000e-01,	 1.2297350000000000e-01,	 2.7286453887740220e-02,	 1.5909419347563021e+03,	 4.1221156654115180e+02,	 4.5548762058430259e+02,	 3.5756385798053884e+03,	 4.2831893658994107e+02,	 3.8370388062267655e+00 
4.4807120000000000e-01,	 1.2403560000000001e-01,	 2.7296758276550998e-02,	 1.5908542143160471e+03,	 4.1240005162618229e+02,	 4.5554925639890951e+02,	 3.5774729071817105e+03,	 4.2834791530675142e+02,	 3.8366913762061841e+00 
4.5212500000000000e-01,	 1.2509770000000001e-01,	 2.7306770301737119e-02,	 1.5907688485973713e+03,	 4.1258269323666707e+02,	 4.5560964808452633e+02,	 3.5792595042170560e+03,	 4.2837630718203633e+02,	 3.8363512042151582e+00 
4.5617880000000000e-01,	 1.2615989999999999e-01,	 2.7316560599837933e-02,	 1.5906851792270318e+03,	 4.1276056492467382e+02,	 4.5566904548748732e+02,	 3.5810095683629193e+03,	 4.2840422978091641e+02,	 3.8360163713069797e+00 
4.6023259999999999e-01,	 1.2722200000000000e-01,	 2.7326243553229435e-02,	 1.5906022518315651e+03,	 4.1293575900184413e+02,	 4.5572815053459334e+02,	 3.5827435947545418e+03,	 4.2843201313748926e+02,	 3.8356829874818161e+00 
4.6428649999999999e-01,	 1.2828409999999998e-01,	 2.7335849161025692e-02,	 1.5905201729154801e+03,	 4.1310864495868714e+02,	 4.5578702494597724e+02,	 3.5844659945523226e+03,	 4.2845968628865182e+02,	 3.8353512473429752e+00 
4.6834029999999999e-01,	 1.2934630000000000e-01,	 2.7345285020805292e-02,	 1.5904390620841812e+03,	 4.1327890727963518e+02,	 4.5584532151338823e+02,	 3.5861619124014537e+03,	 4.2848708607077208e+02,	 3.8350226936681735e+00 
4.7239409999999998e-01,	 1.3040839999999998e-01,	 2.7354600043607642e-02,	 1.5903588434011722e+03,	 4.1344738749958088e+02,	 4.5590305558253982e+02,	 3.5878378710089405e+03,	 4.2851421974819101e+02,	 3.8346975806275077e+00 