TITLE = "Final State"
VARIABLES = "X", "Y", "rho", "u", "v", "T", "p", "c", "M"
ZONE I=75, J=50, DATAPACKING=POINT, STRANDID=27000, SOLUTIONTIME=0.000970
5.0621919999999998e-01,	 1.0000000000000000e-04,	 1.5156765288934371e+00,	 3.4024694545781512e+02,	 -2.4418480110487861e-01,	 3.4529364619984784e+02,	 1.5056535406016372e+05,	 3.7292652987027407e+02,	 9.1237014754121826e-01 
5.1081560000000004e-01,	 1.0000000000000000e-04,	 1.5161146278692508e+00,	 3.4131247464863088e+02,	 -2.2203790980414717e-01,	 3.4376631348324895e+02,	 1.4994268805099904e+05,	 3.7210083534882796e+02,	 9.1725821187982304e-01 
5.1545609999999997e-01,	 1.0000000000000000e-04,	 1.5111766264887552e+00,	 3.4172814148607915e+02,	 -1.6856462525680910e-01,	 3.4086064012730208e+02,	 1.4819106542368769e+05,	 3.7052491319376520e+02,	 9.2228125799843819e-01 
5.2014119999999997e-01,	 1.0000000000000000e-04,	 1.4998118635133264e+00,	 3.3987661903143203e+02,	 -1.1905216369663005e-01,	 3.3791505944427627e+02,	 1.4580562165724215e+05,	 3.6892047574146818e+02,	 9.2127345113920334e-01 
5.2487130000000004e-01,	 1.0000000000000000e-04,	 1.4840559346718767e+00,	 3.3608258451628512e+02,	 -7.4702897655600134e-02,	 3.3500986090723859e+02,	 1.4303351058331845e+05,	 3.6733116978341599e+02,	 9.1493077763249264e-01 
5.2964690000000003e-01,	 1.0000000000000000e-04,	 1.4662172480743116e+00,	 3.3088402408703104e+02,	 -3.6734711781179347e-02,	 3.3226076981935796e+02,	 1.4015459104544247e+05,	 3.6582090521063606e+02,	 9.0449731388547439e-01 
5.3446839999999995e-01,	 1.0000000000000000e-04,	 1.4483944438981764e+00,	 3.2486725304728384e+02,	 -5.4886264094806819e-03,	 3.2977705507878778e+02,	 1.3741597482099649e+05,	 3.6445104873825090e+02,	 8.9138789480331260e-01 
5.3933629999999999e-01,	 1.0000000000000000e-04,	 1.4322784471402710e+00,	 3.1858362986447139e+02,	 2.3607766623352983e-02,	 3.2764759388827747e+02,	 1.3500951502632507e+05,	 3.6327246268879531e+02,	 8.7698260523558291e-01 
5.4425100000000004e-01,	 1.0000000000000000e-04,	 1.4188736545133473e+00,	 3.1246662147659686e+02,	 4.6628634029817505e-02,	 3.2592020123024281e+02,	 1.3304082891943236e+05,	 3.6231359184049938e+02,	 8.6242037834808094e-01 
5.4921310000000001e-01,	 1.0000000000000000e-04,	 1.4085549100607959e+00,	 3.0679571090801431e+02,	 5.7781378152527402e-02,	 3.2459597529012922e+02,	 1.3153667211331826e+05,	 3.6157679584921129e+02,	 8.4849392956394365e-01 
5.5422289999999996e-01,	 1.0000000000000000e-04,	 1.4012461794048496e+00,	 3.0169913692617888e+02,	 6.4673431391034389e-02,	 3.2363597483194633e+02,	 1.3046714834808382e+05,	 3.6104171386146737e+02,	 8.3563514207604550e-01 
5.5928100000000003e-01,	 1.0000000000000000e-04,	 1.3965135735106466e+00,	 2.9718867363098798e+02,	 6.8498035774990501e-02,	 3.2297595941217423e+02,	 1.2976133222588069e+05,	 3.6067337607887316e+02,	 8.2398286437405555e-01 
5.6438790000000005e-01,	 1.0000000000000000e-04,	 1.3937520169845237e+00,	 2.9320169388590745e+02,	 7.0014810402191319e-02,	 3.2254045315667031e+02,	 1.2933010737342671e+05,	 3.6043012500484235e+02,	 8.1347723706925756e-01 
5.6954400000000005e-01,	 1.0000000000000000e-04,	 1.3922359938881628e+00,	 2.8964553817562688e+02,	 7.0009662946333817e-02,	 3.2225503259502074e+02,	 1.2907510985804192e+05,	 3.6027061487753809e+02,	 8.0396661474883857e-01 
5.7474979999999998e-01,	 1.0000000000000000e-04,	 1.3916926565502745e+00,	 2.8640432502724673e+02,	 6.9043916061290955e-02,	 3.2205805253360904e+02,	 1.2894586965793122e+05,	 3.6016048940456869e+02,	 7.9521308354228715e-01 
5.8000589999999996e-01,	 1.0000000000000000e-04,	 1.3909901833231633e+00,	 2.8331684002955194e+02,	 6.7484961191826592e-02,	 3.2189097741409279e+02,	 1.2881392280524077e+05,	 3.6006705646210474e+02,	 7.8684468068434965e-01 
5.8531279999999997e-01,	 1.0000000000000000e-04,	 1.3895116156328835e+00,	 2.8023176547926835e+02,	 6.5391773396587388e-02,	 3.2168596051022911e+02,	 1.2859504249152746e+05,	 3.5995237230466080e+02,	 7.7852459011335917e-01 
5.9067090000000000e-01,	 1.0000000000000000e-04,	 1.3871033837062645e+00,	 2.7706068320218117e+02,	 6.2799022544938216e-02,	 3.2138928681747620e+02,	 1.2825377724634095e+05,	 3.5978635164277136e+02,	 7.7007004032864534e-01 
5.9608070000000002e-01,	 1.0000000000000000e-04,	 1.3833540778061477e+00,	 2.7372819602806629e+02,	 5.9836647639169023e-02,	 3.2096750159226997e+02,	 1.2773924760649650e+05,	 3.5955018572875582e+02,	 7.6130735967600149e-01 
6.0154280000000004e-01,	 1.0000000000000000e-04,	 1.3779783369688370e+00,	 2.7016585155342864e+02,	 5.6631162065688558e-02,	 3.2039545696326547e+02,	 1.2701607171839236e+05,	 3.5922963851427716e+02,	 7.5207006472573679e-01 
6.0705770000000003e-01,	 1.0000000000000000e-04,	 1.3708128833448454e+00,	 2.6632845421730457e+02,	 5.3217688537993940e-02,	 3.1965671277454123e+02,	 1.2606424986135085e+05,	 3.5881525692517295e+02,	 7.4224396648166324e-01 
6.1262600000000000e-01,	 1.0000000000000000e-04,	 1.3617975773917235e+00,	 2.6219253478688313e+02,	 4.9642985821551779e-02,	 3.1874330267993849e+02,	 1.2487731806677983e+05,	 3.5830223791031415e+02,	 7.3176361112252231e-01 
6.1824809999999997e-01,	 1.0000000000000000e-04,	 1.3509468824006490e+00,	 2.5774965902606385e+02,	 4.5966073360117661e-02,	 3.1765369450378120e+02,	 1.2345881999073924e+05,	 3.5768929441523164e+02,	 7.2059652650815664e-01 
6.2392470000000000e-01,	 1.0000000000000000e-04,	 1.3383276240540753e+00,	 2.5300161135077821e+02,	 4.2267417631307452e-02,	 3.1639124184269508e+02,	 1.2181950565113011e+05,	 3.5697780361843297e+02,	 7.0873206209729855e-01 
6.2965610000000005e-01,	 1.0000000000000000e-04,	 1.3240603119152099e+00,	 2.4796108840133414e+02,	 3.8089345606669774e-02,	 3.1496517959883374e+02,	 1.1997762184838210e+05,	 3.5617239653200534e+02,	 6.9618278603605388e-01 
6.3544310000000004e-01,	 1.0000000000000000e-04,	 1.3083506436077184e+00,	 2.4266150611055889e+02,	 3.2469368376247115e-02,	 3.1339430049526823e+02,	 1.1796283022273329e+05,	 3.5528308688231749e+02,	 6.8300889415324750e-01 
6.4128609999999997e-01,	 1.0000000000000000e-04,	 1.2915500270345688e+00,	 2.3717195026625552e+02,	 2.5987522284492422e-02,	 3.1171226018724280e+02,	 1.1582306529279661e+05,	 3.5432837186869040e+02,	 6.6935636691804989e-01 
6.4718569999999997e-01,	 1.0000000000000000e-04,	 1.2741819119675148e+00,	 2.3160936767686943e+02,	 1.9820529485721865e-02,	 3.0997087587362603e+02,	 1.1362718918006399e+05,	 3.5333725584099500e+02,	 6.5549093591531860e-01 
6.5314249999999996e-01,	 1.0000000000000000e-04,	 1.2569113823467131e+00,	 2.2613892729902352e+02,	 1.4065450459501649e-02,	 3.0823805250187803e+02,	 1.1146046451970536e+05,	 3.5234824494630624e+02,	 6.4180517706539963e-01 
6.5915710000000005e-01,	 1.0000000000000000e-04,	 1.2404726634681664e+00,	 2.2095574562763912e+02,	 8.9309569521067687e-03,	 3.0658937342348020e+02,	 1.0941433708613238e+05,	 3.5140467545586012e+02,	 6.2877861690797698e-01 
6.6522990000000004e-01,	 1.0000000000000000e-04,	 1.2255531834407076e+00,	 2.1625100321429338e+02,	 5.4512163385461538e-03,	 3.0509506479291258e+02,	 1.0757151433608789e+05,	 3.5054726080210997e+02,	 6.1689543027146199e-01 
6.7136169999999995e-01,	 1.0000000000000000e-04,	 1.2126599246102174e+00,	 2.1217465434704974e+02,	 3.6079109744597358e-03,	 3.0380699520662563e+02,	 1.0599044908309057e+05,	 3.4980649685717162e+02,	 6.0654863841581930e-01 
6.7755290000000001e-01,	 1.0000000000000000e-04,	 1.2020455992629340e+00,	 2.0880812462074533e+02,	 2.2636522793823949e-03,	 3.0275088113253554e+02,	 1.0469749626411189e+05,	 3.4919795723537550e+02,	 5.9796490874735841e-01 
6.8380430000000003e-01,	 1.0000000000000000e-04,	 1.1937136210225070e+00,	 2.0615697189490760e+02,	 1.3340373998140553e-03,	 3.0192577127198302e+02,	 1.0368842347474309e+05,	 3.4872178478288760e+02,	 5.9117893087056816e-01 
6.9011630000000002e-01,	 1.0000000000000000e-04,	 1.1874632642946361e+00,	 2.0416287021861046e+02,	 7.3105228718676660e-04,	 3.0130988720209143e+02,	 1.0293510299138335e+05,	 3.4836593269891131e+02,	 5.8605865573076854e-01 
6.9648960000000004e-01,	 1.0000000000000000e-04,	 1.1829702813500402e+00,	 2.0272695228614600e+02,	 3.5352924559183007e-04,	 3.0086932324954523e+02,	 1.0239569098117189e+05,	 3.4811115576981086e+02,	 5.8236269917332906e-01 
7.0292480000000002e-01,	 1.0000000000000000e-04,	 1.1798665321148278e+00,	 2.0173465260442958e+02,	 1.3107138878163868e-04,	 3.0056635972522321e+02,	 1.0202419837142549e+05,	 3.4793584453400246e+02,	 5.7980416727301975e-01 
7.0942249999999996e-01,	 1.0000000000000000e-04,	 1.1778006040881344e+00,	 2.0107514953173899e+02,	 9.0546998163821830e-06,	 3.0036554050214511e+02,	 1.0177750889185177e+05,	 3.4781959087045226e+02,	 5.7810185167698325e-01 
7.1598329999999999e-01,	 1.0000000000000000e-04,	 1.1764719314664682e+00,	 2.0065299087913755e+02,	 -7.1624521476484638e-05,	 3.0023690438086567e+02,	 1.0161915545204487e+05,	 3.4774510337364399e+02,	 5.7701169314109191e-01 
7.2260789999999997e-01,	 1.0000000000000000e-04,	 1.1756434653661401e+00,	 2.0039253651664399e+02,	 -1.2891125957703548e-04,	 3.0015706316422461e+02,	 1.0152059142494503e+05,	 3.4769886282525914e+02,	 5.7633934977059587e-01 
7.2929679999999997e-01,	 1.0000000000000000e-04,	 1.1751401752252439e+00,	 2.0023767502981832e+02,	 -1.6465976055051352e-04,	 3.0010888646889464e+02,	 1.0146084312174538e+05,	 3.4767095801067279e+02,	 5.7594018256692903e-01 
7.3605080000000001e-01,	 1.0000000000000000e-04,	 1.1748397905761578e+00,	 2.0014904254096666e+02,	 -1.8518553036433270e-04,	 3.0008045272654800e+02,	 1.0142529767998857e+05,	 3.4765448762100732e+02,	 5.7571252397939177e-01 
7.4287049999999999e-01,	 1.0000000000000000e-04,	 1.1746610471181189e+00,	 2.0010033976754013e+02,	 -1.8749933746562428e-04,	 3.0006386206750091e+02,	 1.0140425986269537e+05,	 3.4764487703700894e+02,	 5.7558834599575037e-01 
7.4975660000000000e-01,	 1.0000000000000000e-04,	 1.1745523884912721e+00,	 2.0007476919478194e+02,	 -1.7918955407526650e-04,	 3.0005407707673254e+02,	 1.0139157329855213e+05,	 3.4763920869424084e+02,	 5.7552417618932605e-01 
7.5670959999999998e-01,	 1.0000000000000000e-04,	 1.1744825557058576e+00,	 2.0006205186579083e+02,	 -1.7517943788016238e-04,	 3.0004801318662021e+02,	 1.0138349614879682e+05,	 3.4763569589976152e+02,	 5.7549340940970040e-01 
7.6373029999999997e-01,	 1.0000000000000000e-04,	 1.1744334624284742e+00,	 2.0005615181668736e+02,	 -1.7251965693510464e-04,	 3.0004388909631894e+02,	 1.0137786489234818e+05,	 3.4763330680557448e+02,	 5.7548039241432591e-01 
7.7081929999999999e-01,	 1.0000000000000000e-04,	 1.1743951358420399e+00,	 2.0005369503890171e+02,	 -1.6918653812451098e-04,	 3.0004070950104375e+02,	 1.0137348223995761e+05,	 3.4763146484813370e+02,	 5.7547637445985711e-01 
7.7797729999999998e-01,	 1.0000000000000000e-04,	 1.1743626233748845e+00,	 2.0005279454926551e+02,	 -1.6375089631253488e-04,	 3.0003797728506822e+02,	 1.0136975267559105e+05,	 3.4762988205224292e+02,	 5.7547640429618752e-01 
7.8520500000000004e-01,	 1.0000000000000000e-04,	 1.1743333653828072e+00,	 2.0005314474125419e+02,	 -1.5586843555182812e-04,	 3.0003544601686428e+02,	 1.0136637197246199e+05,	 3.4762841566066965e+02,	 5.7547983918723344e-01 
7.9250310000000002e-01,	 1.0000000000000000e-04,	 1.1743056525802380e+00,	 2.0005353294467673e+02,	 -1.4486860056578724e-04,	 3.0003294658819652e+02,	 1.0136313544550618e+05,	 3.4762696770802120e+02,	 5.7548335292778008e-01 
7.9987229999999998e-01,	 1.0000000000000000e-04,	 1.1742786526988382e+00,	 2.0005457738491233e+02,	 -1.3014470494153202e-04,	 3.0003038702821402e+02,	 1.0135994018117277e+05,	 3.4762548491424280e+02,	 5.7548881214594205e-01 
8.0731330000000001e-01,	 1.0000000000000000e-04,	 1.1742514634578745e+00,	 2.0005653179409958e+02,	 -1.1234426737854851e-04,	 3.0002767344400627e+02,	 1.0135667657869114e+05,	 3.4762391288487549e+02,	 5.7549703682319731e-01 
8.1482670000000001e-01,	 1.0000000000000000e-04,	 1.1742222946231622e+00,	 2.0005986486862895e+02,	 -9.1270149051662084e-05,	 3.0002462258813193e+02,	 1.0135312821383774e+05,	 3.4762214545932335e+02,	 5.7550955105091139e-01 
8.2241339999999996e-01,	 1.0000000000000000e-04,	 1.1741886185417547e+00,	 2.0006526607068184e+02,	 -6.6180426590070133e-05,	 3.0002097046404333e+02,	 1.0134898774842483e+05,	 3.4762002969451760e+02,	 5.7552859150983515e-01 
8.3007410000000004e-01,	 1.0000000000000000e-04,	 1.1741471001747397e+00,	 2.0007362740762929e+02,	 -3.6653828953816718e-05,	 3.0001637020205334e+02,	 1.0134385018682694e+05,	 3.4761736463191028e+02,	 5.7555705716683425e-01 
8.3780940000000004e-01,	 1.0000000000000000e-04,	 1.1740937367405326e+00,	 2.0008600146576862e+02,	 -2.9627240849752349e-06,	 3.0001041268926690e+02,	 1.0133723191974578e+05,	 3.4761391324495082e+02,	 5.7559836888569926e-01 
8.4562020000000004e-01,	 1.0000000000000000e-04,	 1.1740242424109710e+00,	 2.0010350252945079e+02,	 3.4405629991812685e-05,	 3.0000267409248335e+02,	 1.0132862001190001e+05,	 3.4760942996513046e+02,	 5.7565613956309125e-01 
8.5350709999999996e-01,	 1.0000000000000000e-04,	 1.1739346671603865e+00,	 2.0012714293254436e+02,	 7.4619042809499745e-05,	 2.9999278498078183e+02,	 1.0131754899759212e+05,	 3.4760370072151517e+02,	 5.7573363723446469e-01 
8.6147090000000004e-01,	 1.0000000000000000e-04,	 1.1738221304176222e+00,	 2.0015762939443101e+02,	 1.1647548788060603e-04,	 2.9998050892383549e+02,	 1.0130369077127753e+05,	 3.4759658847299772e+02,	 5.7583312389158769e-01 
8.6951250000000002e-01,	 1.0000000000000000e-04,	 1.1736855603912795e+00,	 2.0019514603052815e+02,	 1.5922781848171070e-04,	 2.9996581826885557e+02,	 1.0128694397712231e+05,	 3.4758807711322430e+02,	 5.7595515845435452e-01 
8.7763250000000004e-01,	 1.0000000000000000e-04,	 1.1735263168883532e+00,	 2.0023916134247668e+02,	 2.0097782333938432e-04,	 2.9994895208923504e+02,	 1.0126750726161267e+05,	 3.4757830505755112e+02,	 5.7609798548681701e-01 
8.8583170000000000e-01,	 1.0000000000000000e-04,	 1.1733485430158583e+00,	 2.0028830529793993e+02,	 2.4029704602820021e-04,	 2.9993044214261511e+02,	 1.0124591825624763e+05,	 3.4756758030741139e+02,	 5.7625715586285708e-01 
8.9411099999999999e-01,	 1.0000000000000000e-04,	 1.1731590686232245e+00,	 2.0034036005330398e+02,	 2.7735916081988727e-04,	 2.9991108662735854e+02,	 1.0122303620387797e+05,	 3.4755636527686403e+02,	 5.7642552422800397e-01 
9.0247100000000002e-01,	 1.0000000000000000e-04,	 1.1729666963058611e+00,	 2.0039241204107429e+02,	 3.1187869475548369e-04,	 2.9989185634564501e+02,	 1.0119994849842598e+05,	 3.4754522245111468e+02,	 5.7659377570498460e-01 
9.1091270000000002e-01,	 1.0000000000000000e-04,	 1.1727809270339482e+00,	 2.0044116144025173e+02,	 3.4681807768854308e-04,	 2.9987374905514525e+02,	 1.0117781147417377e+05,	 3.4753473000664206e+02,	 5.7675145570838626e-01 
9.1943680000000005e-01,	 1.0000000000000000e-04,	 1.1726104685777590e+00,	 2.0048330884098527e+02,	 3.8534834611916359e-04,	 2.9985763327409222e+02,	 1.0115766903616776e+05,	 3.4752539129512411e+02,	 5.7688823281146095e-01 
9.2804410000000004e-01,	 1.0000000000000000e-04,	 1.1724619848427933e+00,	 2.0051591705731835e+02,	 4.2936188122438850e-04,	 2.9984412289995214e+02,	 1.0114030260049054e+05,	 3.4751756216151801e+02,	 5.7699506122969102e-01 
9.3673550000000005e-01,	 1.0000000000000000e-04,	 1.1723393707284488e+00,	 2.0053670595185662e+02,	 4.7922337819419799e-04,	 2.9983350863212735e+02,	 1.0112614559665891e+05,	 3.4751141117031739e+02,	 5.7706509630023350e-01 
9.4551180000000001e-01,	 1.0000000000000000e-04,	 1.1722436225383523e+00,	 2.0054430629027871e+02,	 5.2872111904552453e-04,	 2.9982572180651971e+02,	 1.0111526026352044e+05,	 3.4750689861877316e+02,	 5.7709446082386873e-01 
9.5437390000000000e-01,	 1.0000000000000000e-04,	 1.1721732601579031e+00,	 2.0053853546911347e+02,	 5.6740736589499835e-04,	 2.9982034923640293e+02,	 1.0110737917988378e+05,	 3.4750378512081937e+02,	 5.7708302486602658e-01 
9.6332249999999997e-01,	 1.0000000000000000e-04,	 1.1721250189955015e+00,	 2.0052085045806541e+02,	 5.8293322464580911e-04,	 2.9981664297979188e+02,	 1.0110196827695894e+05,	 3.4750163726430378e+02,	 5.7703569985312042e-01 
9.7235850000000001e-01,	 1.0000000000000000e-04,	 1.1720936501579264e+00,	 2.0049522312883255e+02,	 5.5473795252046097e-04,	 2.9981340289867609e+02,	 1.0109816998204493e+05,	 3.4749975955577600e+02,	 5.7696507009357856e-01 
9.8148290000000005e-01,	 1.0000000000000000e-04,	 1.1720703859254655e+00,	 2.0046935771489089e+02,	 4.5012976068931607e-04,	 2.9980880537038900e+02,	 1.0109461306842379e+05,	 3.4749709515504588e+02,	 5.7689506044921335e-01 
9.9069640000000003e-01,	 1.0000000000000000e-04,	 1.1720084922381051e+00,	 2.0045372801264870e+02,	 3.9776663781758512e-04,	 2.9980067995293524e+02,	 1.0108653482957845e+05,	 3.4749238619046110e+02,	 5.7685789956610556e-01 
1.0000000000000000e+00,	 1.0000000000000000e-04,	 1.1719539661017104e+00,	 2.0044813708692368e+02,	 7.8181178284277876e-04,	 2.9979523288467169e+02,	 1.0107999536065057e+05,	 3.4748922938750349e+02,	 5.7684705060287811e-01 
5.0621930000000004e-01,	 7.0671750000000000e-04,	 1.5155886941326568e+00,	 3.4024972965284292e+02,	 -7.1072823259065432e-01,	 3.4546337391607619e+02,	 1.5063063417920936e+05,	 3.7301817388490218e+02,	 9.1215521326537863e-01 
5.1081569999999998e-01,	 7.0830680000000007e-04,	 1.5162418656738206e+00,	 3.4131755190957170e+02,	 -6.6301279777032729e-01,	 3.4390559852693184e+02,	 1.5001602970304975e+05,	 3.7217621043692384e+02,	 9.1708762218520234e-01 
5.1545620000000003e-01,	 7.0991130000000002e-04,	 1.5112214615240764e+00,	 3.4173759623393892e+02,	 -5.4407921291456185e-01,	 3.4095026087902005e+02,	 1.4823442637605223e+05,	 3.7057362010637127e+02,	 9.2218660693888921e-01 
5.2014130000000003e-01,	 7.1153120000000002e-04,	 1.4998757763819459e+00,	 3.3989237039091296e+02,	 -4.0244942448302445e-01,	 3.3796674713839809e+02,	 1.4583413847435208e+05,	 3.6894868981337794e+02,	 9.2124628176019263e-01 
5.2487139999999999e-01,	 7.1316670000000002e-04,	 1.4841308289692821e+00,	 3.3610377612000917e+02,	 -2.5622233063108030e-01,	 3.3503709938434940e+02,	 1.4305235904588425e+05,	 3.6734610268458869e+02,	 9.1495151664013952e-01 
5.2964699999999998e-01,	 7.1481790000000006e-04,	 1.4662941530238927e+00,	 3.3090872247053130e+02,	 -1.1882901804610460e-01,	 3.3227360043355770e+02,	 1.4016735483824898e+05,	 3.6582796843027410e+02,	 9.0454741671643557e-01 
5.3446850000000001e-01,	 7.1648500000000000e-04,	 1.4484659151883412e+00,	 3.2489129759051525e+02,	 7.9262252538618225e-04,	 3.2978197719197931e+02,	 1.3742480675161420e+05,	 3.6445376854939821e+02,	 8.9144721670629734e-01 
5.3933640000000005e-01,	 7.1816810000000007e-04,	 1.4322975509066294e+00,	 3.1860508055395292e+02,	 9.9768648879698496e-02,	 3.2764775642299315e+02,	 1.3501138276114620e+05,	 3.6327255279227876e+02,	 8.7704147678069266e-01 
5.4425109999999999e-01,	 7.1986740000000004e-04,	 1.4188416777862973e+00,	 3.1248602165592257e+02,	 1.7542959629090138e-01,	 3.2591721489936299e+02,	 1.3303661162379911e+05,	 3.6231193193917704e+02,	 8.6247800128053487e-01 
5.4921319999999996e-01,	 7.2158310000000007e-04,	 1.4085206362129918e+00,	 3.0681347419324703e+02,	 2.2742189565830595e-01,	 3.2459175051085941e+02,	 1.3153175950588423e+05,	 3.6157444278996468e+02,	 8.4854879706851816e-01 
5.5422300000000002e-01,	 7.2331530000000008e-04,	 1.4012138874098594e+00,	 3.0171637902319941e+02,	 2.6215684390275751e-01,	 3.2363194835111636e+02,	 1.3046251855183329e+05,	 3.6103946792440479e+02,	 8.3568839343190604e-01 
5.5928109999999998e-01,	 7.2506420000000005e-04,	 1.3964825311402660e+00,	 2.9720583486808613e+02,	 2.8274864414321216e-01,	 3.2297252412676715e+02,	 1.2975706767275129e+05,	 3.6067145794960669e+02,	 8.2403517887166411e-01 
5.6438800000000000e-01,	 7.2682990000000000e-04,	 1.3937220210445251e+00,	 2.9321773961513628e+02,	 2.9233003844611188e-01,	 3.2253756126878511e+02,	 1.2932616442227946e+05,	 3.6042850919845569e+02,	 8.1352578348946203e-01 
5.6954410000000000e-01,	 7.2861270000000003e-04,	 1.3922067401900831e+00,	 2.8965956468326232e+02,	 2.9420193551504614e-01,	 3.2225255825400461e+02,	 1.2907140668389837e+05,	 3.6026923175861009e+02,	 8.0400902590835954e-01 
5.7474990000000004e-01,	 7.3041270000000008e-04,	 1.3916630688294491e+00,	 2.8641681570483695e+02,	 2.9078450255490440e-01,	 3.2205588123955056e+02,	 1.2894225891167815e+05,	 3.6015927531344033e+02,	 7.9525083191299806e-01 
5.8000600000000002e-01,	 7.3223000000000006e-04,	 1.3909595173977070e+00,	 2.8332840347068935e+02,	 2.8352082141279400e-01,	 3.2188891354501703e+02,	 1.2881025706076460e+05,	 3.6006590213889234e+02,	 7.8687968964650046e-01 
5.8531290000000002e-01,	 7.3406490000000007e-04,	 1.3894796245428127e+00,	 2.8024280675802902e+02,	 2.7303888927610365e-01,	 3.2168382328991856e+02,	 1.2859122747284097e+05,	 3.5995117657514021e+02,	 7.7855819901612189e-01 
5.9067090000000000e-01,	 7.3591750000000006e-04,	 1.3870693321780438e+00,	 2.7707148957936136e+02,	 2.5977970312827681e-01,	 3.2138697866431073e+02,	 1.2824970771787378e+05,	 3.5978505968387367e+02,	 7.7010315994312095e-01 
5.9608079999999997e-01,	 7.3778800000000007e-04,	 1.3833172631982293e+00,	 2.7373903214729808e+02,	 2.4442438206997644e-01,	 3.2096495743576759e+02,	 1.2773483563553907e+05,	 3.5954876073440107e+02,	 7.6134080037617813e-01 
6.0154289999999999e-01,	 7.3967660000000008e-04,	 1.3779384701787820e+00,	 2.7017689407346586e+02,	 2.2763920823821210e-01,	 3.2039264512058827e+02,	 1.2701128228897725e+05,	 3.5922806218193108e+02,	 7.5210435490985406e-01 
6.0705779999999998e-01,	 7.4158340000000001e-04,	 1.3707700246202770e+00,	 2.6633979751610536e+02,	 2.0984753428926434e-01,	 3.1965361736119974e+02,	 1.2605908772676652e+05,	 3.5881351961733947e+02,	 7.4227938921850689e-01 
6.1262609999999995e-01,	 7.4350870000000006e-04,	 1.3617519706070043e+00,	 2.6220419850940414e+02,	 1.9143137392788531e-01,	 3.1873992596775520e+02,	 1.2487181302383516e+05,	 3.5830034000888969e+02,	 7.3180022208040485e-01 
6.1824820000000003e-01,	 7.4545260000000006e-04,	 1.3508989372843974e+00,	 2.5776161568865427e+02,	 1.7276774900404812e-01,	 3.1765005477662254e+02,	 1.2345302387535055e+05,	 3.5768724517860835e+02,	 7.2063423301477381e-01 
6.2392479999999995e-01,	 7.4741540000000000e-04,	 1.3382764358006152e+00,	 2.5301393738314991e+02,	 1.5400590299970110e-01,	 3.1638734675638369e+02,	 1.2181334664775725e+05,	 3.5697560623833522e+02,	 7.0877107520001481e-01 
6.2965620000000000e-01,	 7.4939710000000010e-04,	 1.3240079917701095e+00,	 2.4797384832899888e+02,	 1.3506427428794246e-01,	 3.1496100936498652e+02,	 1.1997129246446602e+05,	 3.5617003860929475e+02,	 6.9622331535820436e-01 
6.3544319999999999e-01,	 7.5139800000000002e-04,	 1.3083098710125478e+00,	 2.4267459429029756e+02,	 1.1592024654747031e-01,	 3.1338989447344011e+02,	 1.1795749571319197e+05,	 3.5528058940464246e+02,	 6.8305060623552438e-01 
6.4128620000000003e-01,	 7.5341830000000005e-04,	 1.2915293988861105e+00,	 2.3718517866930645e+02,	 9.7055302310537286e-02,	 3.1170771558274788e+02,	 1.1581952679683756e+05,	 3.5432578889652916e+02,	 6.6939863244305131e-01 
6.4718580000000003e-01,	 7.5545810000000001e-04,	 1.2741795985405704e+00,	 2.3162243496216121e+02,	 7.9161573173595456e-02,	 3.0996630460670542e+02,	 1.1362530717309729e+05,	 3.5333465042708320e+02,	 6.5553278799493531e-01 
6.5314260000000002e-01,	 7.5751770000000000e-04,	 1.2569253268223934e+00,	 2.2615144583678421e+02,	 6.2578727688311089e-02,	 3.0823362614012245e+02,	 1.1146010047584820e+05,	 3.5234571504063337e+02,	 6.4184533780645958e-01 
6.5915720000000000e-01,	 7.5959730000000009e-04,	 1.2405005253871983e+00,	 2.2096730174341405e+02,	 4.7678428312498536e-02,	 3.0658529576710714e+02,	 1.0941533936210473e+05,	 3.5140233859685083e+02,	 6.2881569818105731e-01 
6.6522999999999999e-01,	 7.6169710000000002e-04,	 1.2255844681459471e+00,	 2.1626123158474229e+02,	 3.5198079339989544e-02,	 3.0509149620264395e+02,	 1.0757300205643557e+05,	 3.5054521068176064e+02,	 6.1692822454631713e-01 
6.7136180000000001e-01,	 7.6381720000000004e-04,	 1.2126858508407992e+00,	 2.1218329140055729e+02,	 2.5438691012447417e-02,	 3.0380402966607244e+02,	 1.0599168049758849e+05,	 3.4980478957606869e+02,	 6.0657629411715164e-01 
6.7755299999999996e-01,	 7.6595790000000003e-04,	 1.2020665538379343e+00,	 2.0881509553751465e+02,	 1.7775111317107677e-02,	 3.0274852506776813e+02,	 1.0469850660584684e+05,	 3.4919659847037127e+02,	 5.9798720035863628e-01 
6.8380439999999998e-01,	 7.6811930000000004e-04,	 1.1937297967145868e+00,	 2.0616234409163121e+02,	 1.1979293543588222e-02,	 3.0192397690281206e+02,	 1.0368921229166914e+05,	 3.4872074854052426e+02,	 5.9119609401649509e-01 
6.9011639999999996e-01,	 7.7030180000000009e-04,	 1.1874752076573634e+00,	 2.0416683489061816e+02,	 7.7599973267608235e-03,	 3.0130857887191530e+02,	 1.0293569133699036e+05,	 3.4836517637099740e+02,	 5.8607130932242968e-01 
6.9648969999999999e-01,	 7.7250540000000007e-04,	 1.1829787417914930e+00,	 2.0272975880743226e+02,	 4.7934078366805620e-03,	 3.0086840471851883e+02,	 1.0239611069268474e+05,	 3.4811062439104182e+02,	 5.8237165044514416e-01 
7.0292489999999996e-01,	 7.7473040000000009e-04,	 1.1798722982889882e+00,	 2.0173656353517271e+02,	 2.7878932268691568e-03,	 3.0056573532185939e+02,	 1.0202448502965679e+05,	 3.4793548312891249e+02,	 5.7981026177686945e-01 
7.0942249999999996e-01,	 7.7697710000000002e-04,	 1.1778043924158024e+00,	 2.0107640396331104e+02,	 1.4774031330110023e-03,	 3.0036512504084305e+02,	 1.0177769547569373e+05,	 3.4781935032083760e+02,	 5.7810585806471237e-01 
7.1598340000000005e-01,	 7.7924560000000001e-04,	 1.1764743379048008e+00,	 2.0065378646055282e+02,	 6.3629418433420418e-04,	 3.0023664972715625e+02,	 1.0161927711990800e+05,	 3.4774495589910305e+02,	 5.7701422567803018e-01 
7.2260800000000003e-01,	 7.8153610000000003e-04,	 1.1756449503118143e+00,	 2.0039302461047848e+02,	 1.0515471849873074e-04,	 3.0015693819466753e+02,	 1.0152067738690739e+05,	 3.4769879044352513e+02,	 5.7634087353276209e-01 
7.2929690000000003e-01,	 7.8384890000000006e-04,	 1.1751410679554832e+00,	 2.0023796557858503e+02,	 -2.2445494649528613e-04,	 3.0010885078672123e+02,	 1.0146090813605516e+05,	 3.4767093734208157e+02,	 5.7594105250647398e-01 
7.3605089999999995e-01,	 7.8618410000000003e-04,	 1.1748403174008373e+00,	 2.0014921077176376e+02,	 -4.2658146766461899e-04,	 3.0008047310589302e+02,	 1.0142535004947431e+05,	 3.4765449942612582e+02,	 5.7571298833354723e-01 
7.4287060000000005e-01,	 7.8854210000000007e-04,	 1.1746613577516078e+00,	 2.0010043488631109e+02,	 -5.4423311614456616e-04,	 3.0006389434552040e+02,	 1.0140429758667605e+05,	 3.4764489573517494e+02,	 5.7558858864846241e-01 
7.4975670000000005e-01,	 7.9092300000000002e-04,	 1.1745525767700138e+00,	 2.0007482206563151e+02,	 -6.0854890221985892e-04,	 3.0005409574013174e+02,	 1.0139159585801704e+05,	 3.4763921950584069e+02,	 5.7552431037832186e-01 
7.5670970000000004e-01,	 7.9332710000000006e-04,	 1.1744826771895325e+00,	 2.0006208113333486e+02,	 -6.4445621210916862e-04,	 3.0004802539478527e+02,	 1.0138351076051967e+05,	 3.4763570297195287e+02,	 5.7549348189507965e-01 
7.6373040000000003e-01,	 7.9575460000000007e-04,	 1.1744335488349584e+00,	 2.0005617414277000e+02,	 -6.6061221097440384e-04,	 3.0004389785739193e+02,	 1.0137787531117584e+05,	 3.4763331188089990e+02,	 5.7548044823851774e-01 
7.7081940000000004e-01,	 7.9820570000000010e-04,	 1.1743952047124675e+00,	 2.0005372508035975e+02,	 -6.6023238573373842e-04,	 3.0004071656381859e+02,	 1.0137349057110491e+05,	 3.4763146893964972e+02,	 5.7547645410714920e-01 
7.7797740000000004e-01,	 8.0068070000000003e-04,	 1.1743626810946524e+00,	 2.0005284362476155e+02,	 -6.4559239956584337e-04,	 3.0003798334914359e+02,	 1.0136975970668782e+05,	 3.4762988556522117e+02,	 5.7547653965519030e-01 
7.8520509999999999e-01,	 8.0317980000000006e-04,	 1.1743334164308146e+00,	 2.0005320267404062e+02,	 -6.1726403991499879e-04,	 3.0003545148630587e+02,	 1.0136637822667531e+05,	 3.4762841882918411e+02,	 5.7548000059596394e-01 
7.9250319999999996e-01,	 8.0570320000000002e-04,	 1.1743056972843431e+00,	 2.0005359720603423e+02,	 -5.7464326496814043e-04,	 3.0003295159271784e+02,	 1.0136314099498065e+05,	 3.4762697060721376e+02,	 5.7548353298772537e-01 
7.9987240000000004e-01,	 8.0825120000000002e-04,	 1.1742786887898773e+00,	 2.0005464188745009e+02,	 -5.1791902093336608e-04,	 3.0003039139396901e+02,	 1.0135994477132754e+05,	 3.4762548744339944e+02,	 5.7548899351257587e-01 
8.0731339999999996e-01,	 8.1082400000000003e-04,	 1.1742514947004024e+00,	 2.0005659733632027e+02,	 -4.4643882179047162e-04,	 3.0002767704112262e+02,	 1.0135668049061464e+05,	 3.4762391496875603e+02,	 5.7549722191811581e-01 
8.1482679999999996e-01,	 8.1342190000000003e-04,	 1.1742223249242594e+00,	 2.0005993003488666e+02,	 -3.5965172375760230e-04,	 3.0002462521205757e+02,	 1.0135313171568450e+05,	 3.4762214697942301e+02,	 5.7550973599806987e-01 
8.2241359999999997e-01,	 8.1604520000000001e-04,	 1.1741886486898707e+00,	 2.0006532944920519e+02,	 -2.5630025616888894e-04,	 3.0002097188981855e+02,	 1.0134899083226707e+05,	 3.4762003052050653e+02,	 5.7552877246401157e-01 
8.3007419999999998e-01,	 8.1869400000000002e-04,	 1.1741471305671154e+00,	 2.0007368781193833e+02,	 -1.3563550813932348e-04,	 3.0001637020402927e+02,	 1.0134385281074354e+05,	 3.4761736463305499e+02,	 5.7555723093172328e-01 
8.3780949999999998e-01,	 8.2136870000000008e-04,	 1.1740937682564838e+00,	 2.0008605823641511e+02,	 1.7873342457447481e-06,	 3.0001041112116815e+02,	 1.0133723411024886e+05,	 3.4761391233649408e+02,	 5.7559853370520342e-01 
8.4562029999999999e-01,	 8.2407000000000010e-04,	 1.1740242767299272e+00,	 2.0010355530209739e+02,	 1.5395920956390435e-04,	 3.0000267074461055e+02,	 1.0132862184315342e+05,	 3.4760942802556082e+02,	 5.7565629459118806e-01 
8.5350720000000002e-01,	 8.2679760000000009e-04,	 1.1739347060684551e+00,	 2.0012719169214915e+02,	 3.1734569820203229e-04,	 2.9999277971902814e+02,	 1.0131755057852059e+05,	 3.4760369767310010e+02,	 5.7573378255776808e-01 