TITLE = "Final State"
VARIABLES = "X", "Y", "rho", "u", "v", "T", "p", "c", "M"
ZONE I=73, J=21, DATAPACKING=POINT, STRANDID=57000, SOLUTIONTIME=0.001375
5.2554400000000001e-01,	 3.0203999999999998e-01,	 1.1640831489982701e-02,	 1.7357269544031171e+03,	 2.0048336844069699e+00,	 3.0045150707270608e+02,	 1.0062092994571485e+03,	 3.4786936142369592e+02,	 4.9895975464191302e+00 
5.3004200000000001e-01,	 3.0203999999999998e-01,	 1.1658066034461685e-02,	 1.7356702088297068e+03,	 2.5732976766480595e+00,	 3.0059663354614469e+02,	 1.0081857644745991e+03,	 3.4795336659175382e+02,	 4.9882319961728729e+00 
5.3454000000000002e-01,	 3.0203999999999998e-01,	 1.1669880480300932e-02,	 1.7356142961646642e+03,	 2.8705558041552686e+00,	 3.0067788630759401e+02,	 1.0094802677011577e+03,	 3.4800039017496687e+02,	 4.9873986322711250e+00 
5.3903800000000002e-01,	 3.0203999999999998e-01,	 1.1672013096857344e-02,	 1.7356127903166462e+03,	 2.8345948418851004e+00,	 3.0066861129201595e+02,	 1.0096336003955590e+03,	 3.4799502274676763e+02,	 4.9874710601873566e+00 
5.4353600000000002e-01,	 3.0203999999999998e-01,	 1.1668223993194581e-02,	 1.7356460339241455e+03,	 2.6192249615068586e+00,	 3.0060660304229845e+02,	 1.0090976877626499e+03,	 3.4795913660146283e+02,	 4.9880800003769536e+00 
5.4803400000000002e-01,	 3.0203999999999998e-01,	 1.1661186358170778e-02,	 1.7356973899488194e+03,	 2.3171914229900819e+00,	 3.0051677940208788e+02,	 1.0081877106478969e+03,	 3.4790714624074900e+02,	 4.9889717858682614e+00 
5.5253200000000002e-01,	 3.0203999999999998e-01,	 1.1652542439733578e-02,	 1.7357560181253627e+03,	 1.9870235499636184e+00,	 3.0041636840936167e+02,	 1.0071037721892314e+03,	 3.4784901867035603e+02,	 4.9899728396306111e+00 
5.5703000000000003e-01,	 3.0203999999999998e-01,	 1.1643505035132050e-02,	 1.7358147990059124e+03,	 1.6628058878685528e+00,	 3.0031664022293666e+02,	 1.0059886235893007e+03,	 3.4779127675793546e+02,	 4.9909693297101967e+00 
5.6152800000000003e-01,	 3.0203999999999998e-01,	 1.1635004077056796e-02,	 1.7358698262028852e+03,	 1.3657407855189336e+00,	 3.0022360811696069e+02,	 1.0049427405794903e+03,	 3.4773740318457476e+02,	 4.9919000589864240e+00 
5.6602600000000003e-01,	 3.0203999999999998e-01,	 1.1627380481401262e-02,	 1.7359193590126110e+03,	 1.1061292369201920e+00,	 3.0014005227753466e+02,	 1.0040047682576705e+03,	 3.4768901006734188e+02,	 4.9927367882280276e+00 
5.7052400000000003e-01,	 3.0203999999999998e-01,	 1.1620823604499411e-02,	 1.7359622382175905e+03,	 8.8682715072794094e-01,	 3.0006779745806523e+02,	 1.0031970281451165e+03,	 3.4764715674152524e+02,	 4.9934608440616515e+00 
5.7502200000000003e-01,	 3.0203999999999998e-01,	 1.1615352249040655e-02,	 1.7359981763003696e+03,	 7.0646176970450258e-01,	 3.0000726692727812e+02,	 1.0025224270461258e+03,	 3.4761209078570386e+02,	 4.9940677153181490e+00 
5.7952000000000004e-01,	 3.0203999999999998e-01,	 1.1610903624728591e-02,	 1.7360275423765897e+03,	 5.6153041070201870e-01,	 2.9995781790768331e+02,	 1.0019732872077196e+03,	 3.4758344183725484e+02,	 4.9945636766118557e+00 
5.8401800000000004e-01,	 3.0203999999999998e-01,	 1.1607370386757486e-02,	 1.7360510249576573e+03,	 4.4759737793490151e-01,	 2.9991828476266915e+02,	 1.0015363677175997e+03,	 3.4756053608422320e+02,	 4.9949603088362844e+00 
5.8851600000000004e-01,	 3.0203999999999998e-01,	 1.1604625393067922e-02,	 1.7360694341644528e+03,	 3.5986450884417520e-01,	 2.9988728996781691e+02,	 1.0011960388285122e+03,	 3.4754257644922131e+02,	 4.9952713396993271e+00 
5.9301400000000004e-01,	 3.0203999999999998e-01,	 1.1602541171348849e-02,	 1.7360835964316525e+03,	 2.9366086910870659e-01,	 2.9986344058434020e+02,	 1.0009366127041202e+03,	 3.4752875652210344e+02,	 4.9955106985738009e+00 
5.9751200000000004e-01,	 3.0203999999999998e-01,	 1.1600998285587246e-02,	 1.7360942960911516e+03,	 2.4478749696149402e-01,	 2.9984542222487283e+02,	 1.0007433730606704e+03,	 3.4751831511564524e+02,	 4.9956915587911253e+00 
6.0201000000000005e-01,	 3.0203999999999998e-01,	 1.1599888942841766e-02,	 1.7361022292699326e+03,	 2.0962230587312577e-01,	 2.9983206109745316e+02,	 1.0006030882979696e+03,	 3.4751057231240128e+02,	 4.9958256820009792e+00 
6.0650800000000005e-01,	 3.0203999999999998e-01,	 1.1599121537689452e-02,	 1.7361079924577275e+03,	 1.8513419151785529e-01,	 2.9982235412424461e+02,	 1.0005045000676345e+03,	 3.4750494699150426e+02,	 4.9959231296102784e+00 
6.1100600000000005e-01,	 3.0203999999999998e-01,	 1.1598620788220111e-02,	 1.7361120825789408e+03,	 1.6886446938523408e-01,	 2.9981546946032267e+02,	 1.0004383338908636e+03,	 3.4750095718141728e+02,	 4.9959922553104130e+00 
6.1550400000000005e-01,	 3.0203999999999998e-01,	 1.1598325208281595e-02,	 1.7361148933196969e+03,	 1.5884699818577502e-01,	 2.9981073990514540e+02,	 1.0003970572615930e+03,	 3.4749821627642700e+02,	 4.9960397471668259e+00 
6.2000200000000005e-01,	 3.0203999999999998e-01,	 1.1598186857532930e-02,	 1.7361167398948805e+03,	 1.5355385817472172e-01,	 2.9980763954809203e+02,	 1.0003747789844691e+03,	 3.4749641952402999e+02,	 4.9960708920786265e+00 
6.2450000000000006e-01,	 3.0203999999999998e-01,	 1.1598171457053850e-02,	 1.7361178557470628e+03,	 1.5194136479420017e-01,	 2.9980577538320182e+02,	 1.0003672304598274e+03,	 3.4749533917859134e+02,	 4.9960896353306135e+00 
6.2899799999999995e-01,	 3.0203999999999998e-01,	 1.1598248818518019e-02,	 1.7361184404001110e+03,	 1.5304223168795461e-01,	 2.9980481768255152e+02,	 1.0003707074544762e+03,	 3.4749478415796563e+02,	 4.9960992978714316e+00 
6.3349599999999995e-01,	 3.0203999999999998e-01,	 1.1598391664572176e-02,	 1.7361187425657067e+03,	 1.5602620258905142e-01,	 2.9980445109618893e+02,	 1.0003818049760650e+03,	 3.4749457170826440e+02,	 4.9961032226838347e+00 
6.3799399999999995e-01,	 3.0203999999999998e-01,	 1.1598588906751878e-02,	 1.7361186506835870e+03,	 1.6006780255250277e-01,	 2.9980451596368596e+02,	 1.0003990339154083e+03,	 3.4749460930127179e+02,	 4.9961024188361440e+00 
6.4249199999999995e-01,	 3.0203999999999998e-01,	 1.1598828765689753e-02,	 1.7361184315984210e+03,	 1.6594933222361138e-01,	 2.9980489373106548e+02,	 1.0004209827522482e+03,	 3.4749482823074015e+02,	 4.9960986422994216e+00 
6.4698999999999995e-01,	 3.0203999999999998e-01,	 1.1599119411635429e-02,	 1.7361179907318256e+03,	 1.7348921887834004e-01,	 2.9980566491772413e+02,	 1.0004486249588609e+03,	 3.4749527516007447e+02,	 4.9960909500148318e+00 
6.5148799999999996e-01,	 3.0203999999999998e-01,	 1.1599444606779214e-02,	 1.7361174302356540e+03,	 1.8137189847411103e-01,	 2.9980665308156688e+02,	 1.0004799713147252e+03,	 3.4749584783434926e+02,	 4.9960811058013110e+00 
6.5598599999999996e-01,	 3.0203999999999998e-01,	 1.1599797702365338e-02,	 1.7361167820966959e+03,	 1.9008000048213833e-01,	 2.9980778731757596e+02,	 1.0005142118135382e+03,	 3.4749650516120772e+02,	 4.9960697926927748e+00 
6.6048399999999996e-01,	 3.0203999999999998e-01,	 1.1600179084645548e-02,	 1.7361160477841881e+03,	 1.9950989256738388e-01,	 2.9980906415004961e+02,	 1.0005513682430948e+03,	 3.4749724512589285e+02,	 4.9960570439020211e+00 
6.6498199999999996e-01,	 3.0203999999999998e-01,	 1.1600588702596771e-02,	 1.7361152411922449e+03,	 2.0960464781116622e-01,	 2.9981046827023675e+02,	 1.0005913851889593e+03,	 3.4749805885600296e+02,	 4.9960430270048022e+00 
6.6947999999999996e-01,	 3.0203999999999998e-01,	 1.1601024714877853e-02,	 1.7361143732122073e+03,	 2.2034107855663482e-01,	 2.9981197841619411e+02,	 1.0006340329448635e+03,	 3.4749893402912647e+02,	 4.9960279505465168e+00 
6.7397799999999997e-01,	 3.0203999999999998e-01,	 1.1601485990664309e-02,	 1.7361134546204980e+03,	 2.3169320919431319e-01,	 2.9981357477606383e+02,	 1.0006791479210522e+03,	 3.4749985916330149e+02,	 4.9960120106551260e+00 
6.7847599999999997e-01,	 3.0203999999999998e-01,	 1.1601972293392757e-02,	 1.7361124975514599e+03,	 2.4363593929012758e-01,	 2.9981523988006421e+02,	 1.0007266514710782e+03,	 3.4750082413395484e+02,	 4.9959953878481977e+00 
6.8297399999999997e-01,	 3.0203999999999998e-01,	 1.1602482253370943e-02,	 1.7361115089098396e+03,	 2.5613401678020487e-01,	 2.9981695792605041e+02,	 1.0007763727695528e+03,	 3.4750181978304363e+02,	 4.9959782336906295e+00 
6.8747199999999997e-01,	 3.0203999999999998e-01,	 1.1603014784682895e-02,	 1.7361104989847468e+03,	 2.6914121403369923e-01,	 2.9981871078863401e+02,	 1.0008281577036623e+03,	 3.4750283560625053e+02,	 4.9959607288320518e+00 
6.9196999999999997e-01,	 3.0203999999999998e-01,	 1.1603569034697919e-02,	 1.7361094831237206e+03,	 2.8261718206591951e-01,	 2.9982047620899181e+02,	 1.0008818584727406e+03,	 3.4750385870396786e+02,	 4.9959431029109052e+00 
6.9646799999999998e-01,	 3.0203999999999998e-01,	 1.1604142784483830e-02,	 1.7361084721919656e+03,	 2.9651286230139851e-01,	 2.9982223142347783e+02,	 1.0009372077227291e+03,	 3.4750487588418480e+02,	 4.9959255768587623e+00 
7.0096599999999998e-01,	 3.0203999999999998e-01,	 1.1604734162596539e-02,	 1.7361074799139137e+03,	 3.1076512832093939e-01,	 2.9982395224070245e+02,	 1.0009939632867256e+03,	 3.4750587312764338e+02,	 4.9959083917118923e+00 
7.0546399999999998e-01,	 3.0203999999999998e-01,	 1.1605341505606871e-02,	 1.7361065247029803e+03,	 3.2530874942045812e-01,	 2.9982561060531259e+02,	 1.0010518880188409e+03,	 3.4750683417601959e+02,	 4.9958918341776002e+00 
7.0996199999999998e-01,	 3.0203999999999998e-01,	 1.1605961820755644e-02,	 1.7361056202221653e+03,	 3.4006324493005324e-01,	 2.9982717885527165e+02,	 1.0011106313964179e+03,	 3.4750774299909301e+02,	 4.9958761739935920e+00 
7.1445999999999998e-01,	 3.0203999999999998e-01,	 1.1606592533339882e-02,	 1.7361047823436559e+03,	 3.5493827794211863e-01,	 2.9982862899245731e+02,	 1.0011698778084909e+03,	 3.4750858337202556e+02,	 4.9958616900342276e+00 
7.1895799999999999e-01,	 3.0203999999999998e-01,	 1.1607231483796054e-02,	 1.7361040306569971e+03,	 3.6984789830765230e-01,	 2.9982993135464528e+02,	 1.0012293418699695e+03,	 3.4750933810573633e+02,	 4.9958486857228150e+00 
7.2345599999999999e-01,	 3.0203999999999998e-01,	 1.1607875119044975e-02,	 1.7361033805899547e+03,	 3.8469954232402359e-01,	 2.9983105603956830e+02,	 1.0012886171631263e+03,	 3.4750998987213086e+02,	 4.9958374544891608e+00 
7.2795399999999999e-01,	 3.0203999999999998e-01,	 1.1608520181145502e-02,	 1.7361029276745940e+03,	 3.9940418704332070e-01,	 2.9983197132402654e+02,	 1.0013473166189849e+03,	 3.4751052028791611e+02,	 4.9958285354332794e+00 
7.3245199999999999e-01,	 3.0203999999999998e-01,	 1.1609164730522235e-02,	 1.7361026220851072e+03,	 4.1389075324703617e-01,	 2.9983265252288152e+02,	 1.0014051903691204e+03,	 3.4751091504840986e+02,	 4.9958219907409260e+00 
7.3694999999999999e-01,	 3.0203999999999998e-01,	 1.1609806246049587e-02,	 1.7361024495325419e+03,	 4.2810999570165309e-01,	 2.9983308154093493e+02,	 1.0014619603715508e+03,	 3.4751116366776756e+02,	 4.9958179299721426e+00 
7.4144800000000000e-01,	 3.0203999999999998e-01,	 1.1610444365618054e-02,	 1.7361023843976332e+03,	 4.4205950609262923e-01,	 2.9983326146455033e+02,	 1.0015176055591602e+03,	 3.4751126793487390e+02,	 4.9958162536567183e+00 
7.4594600000000000e-01,	 3.0203999999999998e-01,	 1.1611083198465877e-02,	 1.7361024144983473e+03,	 4.5585801425265676e-01,	 2.9983320287474652e+02,	 1.0015725156024572e+03,	 3.4751123398163952e+02,	 4.9958168386540622e+00 
7.5044400000000000e-01,	 3.0203999999999998e-01,	 1.1611734360297599e-02,	 1.7361024669314008e+03,	 4.6987838671425464e-01,	 2.9983300468525681e+02,	 1.0016280227732182e+03,	 3.4751111912930685e+02,	 4.9958186514083991e+00 
7.5494200000000000e-01,	 3.0203999999999998e-01,	 1.1612429033261812e-02,	 1.7361022492764689e+03,	 4.8505010378525759e-01,	 2.9983300914117098e+02,	 1.0016879601385592e+03,	 3.4751112171154375e+02,	 4.9958179999680299e+00 
7.5944000000000000e-01,	 3.0203999999999998e-01,	 1.1613240546757640e-02,	 1.7361017816053995e+03,	 5.0359056730804341e-01,	 2.9983375679032929e+02,	 1.0017604592163800e+03,	 3.4751155497977601e+02,	 4.9958104407337540e+00 
7.6393800000000001e-01,	 3.0203999999999998e-01,	 1.1614340355554895e-02,	 1.7361000325473756e+03,	 5.3063275025614209e-01,	 2.9983674352107170e+02,	 1.0018653087144547e+03,	 3.4751328580700334e+02,	 4.9957805486738751e+00 
7.6843600000000001e-01,	 3.0203999999999998e-01,	 1.1616128126573321e-02,	 1.7360949855559870e+03,	 5.7814018494673669e-01,	 2.9984537629123486e+02,	 1.0020483734511355e+03,	 3.4751828849729475e+02,	 4.9956941527503584e+00 
7.7293400000000001e-01,	 3.0203999999999998e-01,	 1.1619516770609035e-02,	 1.7360821141341835e+03,	 6.7342654294599347e-01,	 2.9986742837197488e+02,	 1.0024144068805598e+03,	 3.4753106735110566e+02,	 4.9954735211956569e+00 
7.7743200000000001e-01,	 3.0203999999999998e-01,	 1.1626566918622419e-02,	 1.7360510973679848e+03,	 8.7817465654796267e-01,	 2.9992050630437961e+02,	 1.0032001620368276e+03,	 3.4756182329950360e+02,	 4.9949424910876203e+00 
7.8193000000000001e-01,	 3.0203999999999998e-01,	 1.1642005794974932e-02,	 1.7359779325143686e+03,	 1.3342588304963063e+00,	 3.0004534838757206e+02,	 1.0049504450709503e+03,	 3.4763415217794420e+02,	 4.9936936126346296e+00 
7.8642800000000002e-01,	 3.0203999999999998e-01,	 1.1676615964400960e-02,	 1.7358062751898187e+03,	 2.3661530198649303e+00,	 3.0033299157421970e+02,	 1.0089043076992497e+03,	 3.4780074473135380e+02,	 4.9908113026982504e+00 
7.9092600000000002e-01,	 3.0203999999999998e-01,	 1.1754266283208369e-02,	 1.7354021686624153e+03,	 4.7039405599396229e+00,	 3.0101040580495771e+02,	 1.0179043534128261e+03,	 3.4819276371647538e+02,	 4.9840454043998381e+00 
7.9542400000000002e-01,	 3.0203999999999998e-01,	 1.1924349423505690e-02,	 1.7344518801664281e+03,	 9.8869028166613404e+00,	 3.0257499542622702e+02,	 1.0380007485435845e+03,	 3.4909650773310671e+02,	 4.9684829859109287e+00 
7.9992200000000002e-01,	 3.0203999999999998e-01,	 1.2275709732171246e-02,	 1.7322711696231247e+03,	 2.0705183380823300e+01,	 3.0604205120373223e+02,	 1.0808306510383475e+03,	 3.5109087217728307e+02,	 4.9343205509188515e+00 
8.0442000000000002e-01,	 3.0203999999999998e-01,	 1.2934692549167438e-02,	 1.7276420868093269e+03,	 4.0897370076752274e+01,	 3.1308656697839285e+02,	 1.1650658759909168e+03,	 3.5510861120385044e+02,	 4.8664719276811574e+00 
8.0891800000000003e-01,	 3.0203999999999998e-01,	 1.4019506367533975e-02,	 1.7191649616184336e+03,	 7.2834027416942504e+01,	 3.2533664330456770e+02,	 1.3121867290666544e+03,	 3.6198908649601105e+02,	 4.7534778668440651e+00 
8.1341600000000003e-01,	 3.0203999999999998e-01,	 1.5550360250100592e-02,	 1.7064115895262655e+03,	 1.1430407827206372e+02,	 3.4275422546160735e+02,	 1.5333920580438030e+03,	 3.7155267751605697e+02,	 4.6029425726635749e+00 
8.1791400000000003e-01,	 3.0203999999999998e-01,	 1.7387282998112954e-02,	 1.6907817736923892e+03,	 1.5871637255969367e+02,	 3.6293598132984522e+02,	 1.8154809091546340e+03,	 3.8233495006604642e+02,	 4.4416941569769346e+00 
8.2241200000000003e-01,	 3.0203999999999998e-01,	 1.9280741727768214e-02,	 1.6747828961060723e+03,	 1.9932274510274675e+02,	 3.8258938814345271e+02,	 2.1222013891271058e+03,	 3.9255042013153229e+02,	 4.2965239871893202e+00 
8.2691000000000003e-01,	 3.0203999999999998e-01,	 2.0998274793634298e-02,	 1.6605281340987203e+03,	 2.3250257547871587e+02,	 3.9940661041704459e+02,	 2.4128415374735600e+03,	 4.0108517592217942e+02,	 4.1804744093289141e+00 
8.3140800000000004e-01,	 3.0203999999999998e-01,	 2.2409657034637723e-02,	 1.6489979348239979e+03,	 2.5773797221031384e+02,	 4.1259045423323727e+02,	 2.6600164555448091e+03,	 4.0765105864048235e+02,	 4.0942334231864521e+00 
8.3590600000000004e-01,	 3.0203999999999998e-01,	 2.3489524997994764e-02,	 1.6402329094046231e+03,	 2.7614971074277707e+02,	 4.2236972383054922e+02,	 2.8542824800981498e+03,	 4.1245386385537114e+02,	 4.0327341079652799e+00 
8.4040400000000004e-01,	 3.0203999999999998e-01,	 2.4277340118130507e-02,	 1.6338038515293890e+03,	 2.8932420234838696e+02,	 4.2939494029720083e+02,	 2.9990793937338321e+03,	 4.1586986165927078e+02,	 3.9897668071006032e+00 
8.4490200000000004e-01,	 3.0203999999999998e-01,	 2.4925043698730338e-02,	 1.6291979091150329e+03,	 2.9965319333720453e+02,	 4.3401314103609332e+02,	 3.1122089343572743e+03,	 4.1810024901151331e+02,	 3.9620302675050487e+00 
8.4940000000000004e-01,	 3.0203999999999998e-01,	 2.5375968581248288e-02,	 1.6271910515736756e+03,	 3.0634423083013331e+02,	 4.3590502810756703e+02,	 3.1823243652932333e+03,	 4.1901051906237507e+02,	 3.9516359003959982e+00 
5.2554400000000001e-01,	 3.0454399999999998e-01,	 1.1615413742832249e-02,	 1.7358129770764360e+03,	 9.5278605314955089e-01,	 3.0025134572300749e+02,	 1.0033433673658818e+03,	 3.4775346651214551e+02,	 4.9915052061960123e+00 
5.3004200000000001e-01,	 3.0452869999999999e-01,	 1.1631006791930881e-02,	 1.7357571313360045e+03,	 1.4703149676943630e+00,	 3.0039531495193461e+02,	 1.0051720448983895e+03,	 3.4783682966604681e+02,	 4.9901494207363202e+00 
5.3454000000000002e-01,	 3.0451329999999999e-01,	 1.1648203997064441e-02,	 1.7356811185566578e+03,	 1.9935054897202258e+00,	 3.0055054977053612e+02,	 1.0071784668032894e+03,	 3.4792669360593459e+02,	 4.9886435713844541e+00 
5.3903800000000002e-01,	 3.0449799999999999e-01,	 1.1657727210330312e-02,	 1.7356423884382486e+03,	 2.2503989749936220e+00,	 3.0063028712918265e+02,	 1.0082693321928994e+03,	 3.4797284377226731e+02,	 4.9878715492078385e+00 
5.4353600000000002e-01,	 3.0448270000000000e-01,	 1.1661104080839204e-02,	 1.7356342476640179e+03,	 2.3090974567017013e+00,	 3.0065053511619891e+02,	 1.0086293239645032e+03,	 3.4798456187136173e+02,	 4.9876804141759443e+00 
5.4803400000000002e-01,	 3.0446730000000000e-01,	 1.1659887515029358e-02,	 1.7356487286594445e+03,	 2.2321257811295974e+00,	 3.0062744628607550e+02,	 1.0084466460261099e+03,	 3.4797119966215536e+02,	 4.9879132688374348e+00 
5.5253200000000002e-01,	 3.0445200000000000e-01,	 1.1655638111294952e-02,	 1.7356786810792955e+03,	 2.0641802990325884e+00,	 3.0057548504362137e+02,	 1.0079048822419287e+03,	 3.4794112623164153e+02,	 4.9884298740559627e+00 
5.5703000000000003e-01,	 3.0443670000000000e-01,	 1.1649644980948256e-02,	 1.7357176493518371e+03,	 1.8500150447706458e+00,	 3.0050662618727551e+02,	 1.0071558524737675e+03,	 3.4790126902178946e+02,	 4.9891126874915814e+00 
5.6152800000000003e-01,	 3.0442130000000001e-01,	 1.1642645306727624e-02,	 1.7357609891049590e+03,	 1.6167638788002567e+00,	 3.0042985548754189e+02,	 1.0062935597544239e+03,	 3.4785682685717416e+02,	 4.9898740172773879e+00 
5.6602600000000003e-01,	 3.0440600000000001e-01,	 1.1635380670055841e-02,	 1.7358051356645574e+03,	 1.3842832400502381e+00,	 3.0035161838345209e+02,	 1.0054037722541780e+03,	 3.4781152995618612e+02,	 4.9906502175403897e+00 
5.7052400000000003e-01,	 3.0439070000000001e-01,	 1.1628447681149380e-02,	 1.7358474537251659e+03,	 1.1659848254264902e+00,	 3.0027657996267260e+02,	 1.0045536626963304e+03,	 3.4776807945239375e+02,	 4.9913949781125648e+00 
5.7502200000000003e-01,	 3.0437530000000002e-01,	 1.1622102122060756e-02,	 1.7358862794900833e+03,	 9.6943454862346445e-01,	 3.0020783175025622e+02,	 1.0037756184030917e+03,	 3.4772826648660356e+02,	 4.9920777730485639e+00 
5.7952000000000004e-01,	 3.0435999999999996e-01,	 1.1616493330365057e-02,	 1.7359207036685984e+03,	 7.9828087873398312e-01,	 3.0014697196946236e+02,	 1.0030878065909161e+03,	 3.4769301800788713e+02,	 4.9926826174519894e+00 
5.8401800000000004e-01,	 3.0434469999999997e-01,	 1.1611676698224511e-02,	 1.7359503865193767e+03,	 6.5333220261356484e-01,	 3.0009456016091372e+02,	 1.0024968018624683e+03,	 3.4766265952154248e+02,	 4.9932037908545155e+00 
5.8851600000000004e-01,	 3.0432929999999997e-01,	 1.1607647502452559e-02,	 1.7359753623340891e+03,	 5.3340023386946467e-01,	 3.0005051420019009e+02,	 1.0020018512969721e+03,	 3.4763714473418605e+02,	 4.9936419930281835e+00 
5.9301400000000004e-01,	 3.0431399999999997e-01,	 1.1604356387793432e-02,	 1.7359959304787983e+03,	 4.3623761299255881e-01,	 3.0001429310077600e+02,	 1.0015968298201835e+03,	 3.4761616130136980e+02,	 4.9940025193038409e+00 
5.9751200000000004e-01,	 3.0429869999999998e-01,	 1.1601726536761878e-02,	 1.7360125549828920e+03,	 3.5913185535922232e-01,	 2.9998505881993708e+02,	 1.0012722653088327e+03,	 3.4759922451487199e+02,	 4.9942936281082639e+00 
6.0201000000000005e-01,	 3.0428329999999998e-01,	 1.1599671244222693e-02,	 1.7360257567132669e+03,	 2.9921221983523261e-01,	 2.9996187593231684e+02,	 1.0010175211442404e+03,	 3.4758579299684209e+02,	 4.9945245676780496e+00 
6.0650800000000005e-01,	 3.0426799999999998e-01,	 1.1598103139120840e-02,	 1.7360360577195527e+03,	 2.5366688574820212e-01,	 2.9994381236261330e+02,	 1.0008219256074358e+03,	 3.4757532710895663e+02,	 4.9947045743786402e+00 
6.1100600000000005e-01,	 3.0425269999999999e-01,	 1.1596939023444202e-02,	 1.7360439551502923e+03,	 2.1990721747833716e-01,	 2.9992997884207671e+02,	 1.0006753182494473e+03,	 3.4756731186465493e+02,	 4.9948424659517565e+00 
6.1550400000000005e-01,	 3.0423729999999999e-01,	 1.1596108318217301e-02,	 1.7360498939909598e+03,	 1.9566124769733084e-01,	 2.9991958481433869e+02,	 1.0005689626872748e+03,	 3.4756128936634786e+02,	 4.9949460947794391e+00 
6.2000200000000005e-01,	 3.0422199999999999e-01,	 1.1595540605803393e-02,	 1.7360542652602003e+03,	 1.7900254000687468e-01,	 2.9991194993678914e+02,	 1.0004945080303138e+03,	 3.4755686550590735e+02,	 4.9950222446665062e+00 
6.2450000000000006e-01,	 3.0420670000000000e-01,	 1.1595181024337875e-02,	 1.7360573864551870e+03,	 1.6833562093072790e-01,	 2.9990649724528146e+02,	 1.0004452929709048e+03,	 3.4755370603029587e+02,	 4.9950766298694891e+00 
6.2899799999999995e-01,	 3.0419130000000000e-01,	 1.1594992745350682e-02,	 1.7360595341005887e+03,	 1.6238057905877107e-01,	 2.9990275678564836e+02,	 1.0004165706104460e+03,	 3.4755153866367800e+02,	 4.9951139573995880e+00 
6.3349599999999995e-01,	 3.0417600000000000e-01,	 1.1594932801004935e-02,	 1.7360609838284036e+03,	 1.5998904072949308e-01,	 2.9990030334671081e+02,	 1.0004032144621052e+03,	 3.4755011703916404e+02,	 4.9951385601311031e+00 
6.3799399999999995e-01,	 3.0416070000000001e-01,	 1.1594972820345127e-02,	 1.7360617934263082e+03,	 1.6074248529100707e-01,	 2.9989883423100753e+02,	 1.0004017666321712e+03,	 3.4754926576966841e+02,	 4.9951531246175822e+00 
6.4249199999999995e-01,	 3.0414530000000001e-01,	 1.1595094366666656e-02,	 1.7360622032887170e+03,	 1.6343464122208606e-01,	 2.9989811292030453e+02,	 1.0004098473462549e+03,	 3.4754884781013112e+02,	 4.9951603117674361e+00 
6.4698999999999995e-01,	 3.0413000000000001e-01,	 1.1595282262543458e-02,	 1.7360622688387384e+03,	 1.6740947565704317e-01,	 2.9989801678306446e+02,	 1.0004257380582227e+03,	 3.4754879210389583e+02,	 4.9951613021041883e+00 
6.5148799999999996e-01,	 3.0411470000000002e-01,	 1.1595522159201972e-02,	 1.7360620452155702e+03,	 1.7322854216893921e-01,	 2.9989838313884979e+02,	 1.0004476581737163e+03,	 3.4754900438684649e+02,	 4.9951576092728383e+00 
6.5598599999999996e-01,	 3.0409929999999996e-01,	 1.1595806383010204e-02,	 1.7360616138178739e+03,	 1.8040629075214482e-01,	 2.9989912317392913e+02,	 1.0004746494454822e+03,	 3.4754943319592121e+02,	 4.9951502070580478e+00 
6.6048399999999996e-01,	 3.0408399999999997e-01,	 1.1596130528973849e-02,	 1.7360609934943300e+03,	 1.8843715951029372e-01,	 2.9990019490897021e+02,	 1.0005061918850263e+03,	 3.4755005420569501e+02,	 4.9951394992262506e+00 
6.6498199999999996e-01,	 3.0406869999999997e-01,	 1.1596487963554607e-02,	 1.7360602282326490e+03,	 1.9733899405530950e-01,	 2.9990151933299273e+02,	 1.0005414496831916e+03,	 3.4755082163289319e+02,	 4.9951262704313608e+00 
6.6947999999999996e-01,	 3.0405329999999997e-01,	 1.1596875194121749e-02,	 1.7360593415469145e+03,	 2.0704454858418736e-01,	 2.9990305414999250e+02,	 1.0005799804972310e+03,	 3.4755171096854576e+02,	 4.9951109406284129e+00 
6.7397799999999997e-01,	 3.0403799999999997e-01,	 1.1597289825966669e-02,	 1.7360583483390028e+03,	 2.1748342754017555e-01,	 2.9990477455429027e+02,	 1.0006214950566842e+03,	 3.4755270783835334e+02,	 4.9950937593298246e+00 
6.7847599999999997e-01,	 3.0402269999999998e-01,	 1.1597729781818986e-02,	 1.7360572624175550e+03,	 2.2859822447739572e-01,	 2.9990665233839479e+02,	 1.0006657201224619e+03,	 3.4755379589693734e+02,	 4.9950750012319993e+00 
6.8297399999999997e-01,	 3.0400729999999998e-01,	 1.1598194298483900e-02,	 1.7360560956916638e+03,	 2.4033059029762099e-01,	 2.9990867155914958e+02,	 1.0007125367476605e+03,	 3.4755496590542396e+02,	 4.9950548334249261e+00 
6.8747199999999997e-01,	 3.0399199999999998e-01,	 1.1598681861816278e-02,	 1.7360548602322247e+03,	 2.5264406881246815e-01,	 2.9991081448336604e+02,	 1.0007617552145015e+03,	 3.4755620758779793e+02,	 4.9950334383742119e+00 
6.9196999999999997e-01,	 3.0397669999999999e-01,	 1.1599190111922173e-02,	 1.7360535686206301e+03,	 2.6549902083439070e-01,	 2.9991305325388953e+02,	 1.0008130790392607e+03,	 3.4755750480200822e+02,	 4.9950110843134183e+00 
6.9646799999999998e-01,	 3.0396129999999999e-01,	 1.1599718112356770e-02,	 1.7360522342955214e+03,	 2.7884364150891783e-01,	 2.9991536877167744e+02,	 1.0008663637674329e+03,	 3.4755884648090915e+02,	 4.9949879689934082e+00 
7.0096599999999998e-01,	 3.0394599999999999e-01,	 1.1600263970999870e-02,	 1.7360508677062828e+03,	 2.9262401878546485e-01,	 2.9991774396628227e+02,	 1.0009213892435264e+03,	 3.4756022273292649e+02,	 4.9949642646599992e+00 
7.0546399999999998e-01,	 3.0393070000000000e-01,	 1.1600825216646047e-02,	 1.7360494838771360e+03,	 3.0677736244487741e-01,	 2.9992014845667597e+02,	 1.0009778409080396e+03,	 3.4756161595416569e+02,	 4.9949402675449477e+00 
7.0996199999999998e-01,	 3.0391530000000000e-01,	 1.1601400577196847e-02,	 1.7360480995724188e+03,	 3.2122952428831003e-01,	 2.9992255874869994e+02,	 1.0010355306279198e+03,	 3.4756301253140799e+02,	 4.9949162215150213e+00 
7.1445999999999998e-01,	 3.0390000000000000e-01,	 1.1601987367580169e-02,	 1.7360467258523379e+03,	 3.3589623830350246e-01,	 2.9992495473058074e+02,	 1.0010941596206997e+03,	 3.4756440081147070e+02,	 4.9948923258374665e+00 
7.1895799999999999e-01,	 3.0388470000000001e-01,	 1.1602582713491424e-02,	 1.7360453816323543e+03,	 3.5069425061495285e-01,	 2.9992730097744197e+02,	 1.0011533616395262e+03,	 3.4756576026868959e+02,	 4.9948689298730855e+00 
7.2345599999999999e-01,	 3.0386930000000001e-01,	 1.1603184167301375e-02,	 1.7360440867704524e+03,	 3.6554162281479041e-01,	 2.9992956692324464e+02,	 1.0012128234413694e+03,	 3.4756707319299750e+02,	 4.9948463452137775e+00 
7.2795399999999999e-01,	 3.0385400000000001e-01,	 1.1603788303093530e-02,	 1.7360428959367625e+03,	 3.8035225872494666e-01,	 2.9993172466697467e+02,	 1.0012721562367673e+03,	 3.4756832341872854e+02,	 4.9948249613969038e+00 
7.3245199999999999e-01,	 3.0383869999999996e-01,	 1.1604392244354483e-02,	 1.7360417959268848e+03,	 3.9504808802958902e-01,	 2.9993373734320255e+02,	 1.0013309886873951e+03,	 3.4756948958634439e+02,	 4.9948050473042080e+00 
7.3694999999999999e-01,	 3.0382329999999996e-01,	 1.1604993790160476e-02,	 1.7360407892398368e+03,	 4.0956189973199369e-01,	 2.9993558124290672e+02,	 1.0013890516438383e+03,	 3.4757055795947861e+02,	 4.9947868074417920e+00 
7.4144800000000000e-01,	 3.0380799999999997e-01,	 1.1605591433502269e-02,	 1.7360398667350946e+03,	 4.2385371407997263e-01,	 2.9993724985506680e+02,	 1.0014461932355308e+03,	 3.4757152476650174e+02,	 4.9947702696394796e+00 
7.4594600000000000e-01,	 3.0379269999999997e-01,	 1.1606185724797454e-02,	 1.7360390246136453e+03,	 4.3795476765465491e-01,	 2.9993873229473837e+02,	 1.0015024245171101e+03,	 3.4757238370146337e+02,	 4.9947555135643817e+00 
7.5044400000000000e-01,	 3.0377729999999997e-01,	 1.1606783260867221e-02,	 1.7360382184674188e+03,	 4.5204465820052447e-01,	 2.9994008242423507e+02,	 1.0015584944903848e+03,	 3.4757316597322233e+02,	 4.9947419630628671e+00 
7.5494200000000000e-01,	 3.0376199999999998e-01,	 1.1607402154470954e-02,	 1.7360372645095472e+03,	 4.6664905670052337e-01,	 2.9994150833689565e+02,	 1.0016166609628964e+03,	 3.4757399215221250e+02,	 4.9947273571240638e+00 
7.5944000000000000e-01,	 3.0374669999999998e-01,	 1.1608085398468276e-02,	 1.7360360816800983e+03,	 4.8305817236247339e-01,	 2.9994336355499388e+02,	 1.0016818145377597e+03,	 3.4757506706939745e+02,	 4.9947085201591817e+00 
7.6393800000000001e-01,	 3.0373129999999998e-01,	 1.1608937513057921e-02,	 1.7360339401470344e+03,	 5.0431120793514028e-01,	 2.9994662062151957e+02,	 1.0017662229826938e+03,	 3.4757695421240578e+02,	 4.9946752578318865e+00 
7.6843600000000001e-01,	 3.0371599999999999e-01,	 1.1610200708133084e-02,	 1.7360293139056207e+03,	 5.3753751682369555e-01,	 2.9995352007055931e+02,	 1.0018982728502016e+03,	 3.4758095171650803e+02,	 4.9946045332831863e+00 
7.7293400000000001e-01,	 3.0370069999999999e-01,	 1.1612434042344126e-02,	 1.7360187483524546e+03,	 5.9918368299223168e-01,	 2.9996921011020811e+02,	 1.0021434152698719e+03,	 3.4759004227093402e+02,	 4.9944435704025745e+00 
7.7743200000000001e-01,	 3.0368529999999999e-01,	 1.1616908729641079e-02,	 1.7359943602289395e+03,	 7.2654171984280680e-01,	 3.0000542485492235e+02,	 1.0026506106656757e+03,	 3.4761102359887792e+02,	 4.9940720932570200e+00 
7.8193000000000001e-01,	 3.0367000000000000e-01,	 1.1626542263846613e-02,	 1.7359378946209740e+03,	 1.0053271076945463e+00,	 3.0008925924037379e+02,	 1.0037624929776493e+03,	 3.4765958892227809e+02,	 4.9932124441263808e+00 
7.8642800000000002e-01,	 3.0365470000000000e-01,	 1.1648038165184102e-02,	 1.7358068459874557e+03,	 1.6328694369875909e+00,	 3.0028556214760613e+02,	 1.0062761374307363e+03,	 3.4777328081349287e+02,	 4.9912046432814074e+00 
7.9092600000000002e-01,	 3.0363930000000000e-01,	 1.1696591665617874e-02,	 1.7355025136935358e+03,	 3.0587627863798073e+00,	 3.0073723873556480e+02,	 1.0119905895805006e+03,	 3.4803473531614407e+02,	 4.9865862026571781e+00 