TITLE = "Final State"
VARIABLES = "X", "Y", "rho", "u", "v", "T", "p", "c", "M"
ZONE I=77, J=25, DATAPACKING=POINT, STRANDID=12000, SOLUTIONTIME=0.000290
2.1589400000000000e-01,	 1.8936299999999998e-01,	 1.1581862289431963e-02,	 1.7359352264785177e+03,	 4.0079177430922308e-01,	 3.0010404740596414e+02,	 9.9995437970560772e+02,	 3.4766815501398935e+02,	 4.9930810392339788e+00 
2.2017450000000000e-01,	 1.8988320000000000e-01,	 1.1585908750958924e-02,	 1.7359021939204167e+03,	 5.2031399021536406e-01,	 3.0016967369377124e+02,	 1.0005224878165179e+03,	 3.4770616670257652e+02,	 4.9924402789897666e+00 
2.2445490000000001e-01,	 1.9040340000000000e-01,	 1.1591775461063918e-02,	 1.7358501506899984e+03,	 6.9296700443016379e-01,	 3.0025933237962317e+02,	 1.0013281191145915e+03,	 3.4775809158559514e+02,	 4.9915453615895915e+00 
2.2873540000000001e-01,	 1.9092370000000000e-01,	 1.1597308209231773e-02,	 1.7358032032968172e+03,	 8.6088123919970672e-01,	 3.0033929665199616e+02,	 1.0020728508271043e+03,	 3.4780439551115256e+02,	 4.9907460606562699e+00 
2.3301580000000000e-01,	 1.9144390000000000e-01,	 1.1602488094868385e-02,	 1.7357623394077486e+03,	 1.0175853562411952e+00,	 3.0040807200108202e+02,	 1.0027499914993291e+03,	 3.4784421547434744e+02,	 4.9900575041009425e+00 
2.3729629999999999e-01,	 1.9196410000000000e-01,	 1.1607290346748735e-02,	 1.7357282102148840e+03,	 1.1588968776977344e+00,	 3.0046490560282854e+02,	 1.0033548149535709e+03,	 3.4787711789361856e+02,	 4.9894876892335445e+00 
2.4157670000000001e-01,	 1.9248430000000000e-01,	 1.1611663546424275e-02,	 1.7357005706602765e+03,	 1.2831125470610605e+00,	 3.0051016257676292e+02,	 1.0038840275226848e+03,	 3.4790331608275852e+02,	 4.9890327705766584e+00 
2.4585720000000000e-01,	 1.9300460000000000e-01,	 1.1615597131958161e-02,	 1.7356788166467793e+03,	 1.3908551439463506e+00,	 3.0054515264036422e+02,	 1.0043410322435863e+03,	 3.4792356964877104e+02,	 4.9886800588626192e+00 
2.5013760000000002e-01,	 1.9352480000000000e-01,	 1.1618996542111293e-02,	 1.7356623485757325e+03,	 1.4817725360978895e+00,	 3.0057071688621033e+02,	 1.0047204156144520e+03,	 3.4793836645128391e+02,	 4.9884207906956588e+00 
2.5441799999999998e-01,	 1.9404500000000000e-01,	 1.1621966691021030e-02,	 1.7356506964391720e+03,	 1.5563089316623346e+00,	 3.0058780173434945e+02,	 1.0050343752550621e+03,	 3.4794825495563254e+02,	 4.9882457217940841e+00 
2.5869850000000000e-01,	 1.9456530000000000e-01,	 1.1624501497007670e-02,	 1.7356432422240832e+03,	 1.6156498938635502e+00,	 3.0059757308618282e+02,	 1.0052862562731680e+03,	 3.4795391037007226e+02,	 4.9881433789724552e+00 
2.6297890000000002e-01,	 1.9508550000000000e-01,	 1.1626551316692164e-02,	 1.7356392204186038e+03,	 1.6608459829934845e+00,	 3.0060117870565074e+02,	 1.0054755849408430e+03,	 3.4795599718936722e+02,	 4.9881020274863372e+00 
2.6725939999999998e-01,	 1.9560569999999999e-01,	 1.1628213407324676e-02,	 1.7356384917319297e+03,	 1.6931286648312383e+00,	 3.0059960322299924e+02,	 1.0056140536148088e+03,	 3.4795508535103426e+02,	 4.9881130945700534e+00 
2.7153980000000000e-01,	 1.9612589999999999e-01,	 1.1629524688649496e-02,	 1.7356395471605422e+03,	 1.7136864868817443e+00,	 3.0059375603652609e+02,	 1.0057078907654341e+03,	 3.4795170116798721e+02,	 4.9881647002724003e+00 
2.7582030000000002e-01,	 1.9664619999999999e-01,	 1.1630512544745302e-02,	 1.7356429984685217e+03,	 1.7237739022864851e+00,	 3.0058438937059037e+02,	 1.0057619783517405e+03,	 3.4794627994304363e+02,	 4.9882523668464263e+00 
2.8010069999999998e-01,	 1.9716639999999999e-01,	 1.1631123467412942e-02,	 1.7356480243247056e+03,	 1.7243588680817945e+00,	 3.0057225481261389e+02,	 1.0057742039629653e+03,	 3.4793925659607515e+02,	 4.9883675037881385e+00 
2.8438120000000000e-01,	 1.9768659999999999e-01,	 1.1631499991377039e-02,	 1.7356543862762360e+03,	 1.7165210349381237e+00,	 3.0055791429618409e+02,	 1.0057587752350250e+03,	 3.4793095628215400e+02,	 4.9885047700895120e+00 
2.8866160000000002e-01,	 1.9820689999999999e-01,	 1.1631651958734082e-02,	 1.7356619169586097e+03,	 1.7013811240811187e+00,	 3.0054184366121206e+02,	 1.0057181376638181e+03,	 3.4792165433754866e+02,	 4.9886597433892312e+00 
2.9294209999999998e-01,	 1.9872709999999999e-01,	 1.1631510550565976e-02,	 1.7356701997054447e+03,	 1.6796640381097188e+00,	 3.0052451845639291e+02,	 1.0056479354695284e+03,	 3.4791162594895195e+02,	 4.9888272853878668e+00 
2.9722250000000000e-01,	 1.9924729999999999e-01,	 1.1631201332251276e-02,	 1.7356792380875067e+03,	 1.6523188622622627e+00,	 3.0050627749544492e+02,	 1.0055601625142876e+03,	 3.4790106717871015e+02,	 4.9890046001979700e+00 
3.0150290000000002e-01,	 1.9976749999999999e-01,	 1.1630725202277618e-02,	 1.7356887714150180e+03,	 1.6201017552869055e+00,	 3.0048741665170041e+02,	 1.0054558893737883e+03,	 3.4789014925266292e+02,	 4.9891884873703605e+00 
3.0578339999999998e-01,	 2.0028779999999999e-01,	 1.1630119007892001e-02,	 1.7356987991770184e+03,	 1.5838441485194574e+00,	 3.0046816045285664e+02,	 1.0053390554426825e+03,	 3.4787900211496924e+02,	 4.9893770858891973e+00 
3.1006380000000000e-01,	 2.0080799999999999e-01,	 1.1629309306187434e-02,	 1.7357090679066641e+03,	 1.5440357816786348e+00,	 3.0044876815899113e+02,	 1.0052041823006053e+03,	 3.4786777583282020e+02,	 4.9895675174728247e+00 
3.1434430000000002e-01,	 2.0132819999999998e-01,	 1.1628432822175782e-02,	 1.7357195757500822e+03,	 1.5013304968805401e+00,	 3.0042937580057969e+02,	 1.0050635458785695e+03,	 3.4785654915100059e+02,	 4.9897586498881630e+00 
3.1862469999999998e-01,	 2.0184849999999999e-01,	 1.1627486098704230e-02,	 1.7357297308346974e+03,	 1.4566046555445524e+00,	 3.0041166445739367e+02,	 1.0049224719727537e+03,	 3.4784629533092908e+02,	 4.9899348226960649e+00 
3.2290520000000000e-01,	 2.0236869999999998e-01,	 1.1626388108510485e-02,	 1.7357405445502204e+03,	 1.4100142769099839e+00,	 3.0039252823973140e+02,	 1.0047635690675851e+03,	 3.4783521625309101e+02,	 4.9901247376683324e+00 
3.2718560000000002e-01,	 2.0288889999999998e-01,	 1.1625250760459583e-02,	 1.7357520670857277e+03,	 1.3616288050376713e+00,	 3.0037218468471769e+02,	 1.0045972391754563e+03,	 3.4782343778990992e+02,	 4.9903267364231496e+00 
3.3146609999999999e-01,	 2.0340909999999998e-01,	 1.1624097639957032e-02,	 1.7357626841237391e+03,	 1.3172852754504976e+00,	 3.0035409238170826e+02,	 1.0044370882947185e+03,	 3.4781296241616627e+02,	 4.9905074610082130e+00 
3.3574650000000000e-01,	 2.0392939999999998e-01,	 1.1622950629190460e-02,	 1.7357732661717637e+03,	 1.2673776319476389e+00,	 3.0033675079751424e+02,	 1.0042799876163793e+03,	 3.4780292140958568e+02,	 4.9906818546141389e+00 
3.4002700000000002e-01,	 2.0444959999999998e-01,	 1.1621628874347966e-02,	 1.7357838914664319e+03,	 1.2121617560123124e+00,	 3.0031936714507458e+02,	 1.0041076598551800e+03,	 3.4779285575398836e+02,	 4.9908567297965600e+00 
3.4430739999999999e-01,	 2.0496979999999998e-01,	 1.1620346094362490e-02,	 1.7357944341472257e+03,	 1.1617834309629831e+00,	 3.0030246563240979e+02,	 1.0039403243838435e+03,	 3.4778306899245041e+02,	 4.9910273894935191e+00 
3.4858790000000001e-01,	 2.0549009999999998e-01,	 1.1619067588842610e-02,	 1.7358048209530455e+03,	 1.1120022516083816e+00,	 3.0028609892882241e+02,	 1.0037751583812912e+03,	 3.4777359164775328e+02,	 4.9911931751853498e+00 
3.5286830000000002e-01,	 2.0601029999999998e-01,	 1.1617728248465291e-02,	 1.7358148597545228e+03,	 1.0625742758048125e+00,	 3.0027034448195900e+02,	 1.0036067955339178e+03,	 3.4776446859401398e+02,	 4.9913528889199625e+00 
3.5714869999999999e-01,	 2.0653049999999998e-01,	 1.1616407770114162e-02,	 1.7358246320862545e+03,	 1.0137907716380097e+00,	 3.0025522147343690e+02,	 1.0034421843976357e+03,	 3.4775571096719443e+02,	 4.9915066047530354e+00 
3.6142920000000001e-01,	 2.0705069999999998e-01,	 1.1615122321642147e-02,	 1.7358339558241578e+03,	 9.6546785699993853e-01,	 3.0024080888839933e+02,	 1.0032829844781460e+03,	 3.4774736453631544e+02,	 4.9916531405909268e+00 
3.6570960000000002e-01,	 2.0757099999999998e-01,	 1.1613892006977006e-02,	 1.7358430109767323e+03,	 9.1804528308205446e-01,	 3.0022703211491228e+02,	 1.0031306816990081e+03,	 3.4773938612117473e+02,	 4.9917936334591166e+00 
3.6999009999999999e-01,	 2.0809119999999998e-01,	 1.1612600399757190e-02,	 1.7358515561254076e+03,	 8.7151174246190177e-01,	 3.0021395392288429e+02,	 1.0029754287415998e+03,	 3.4773181209966987e+02,	 4.9919268657708544e+00 
3.7427050000000001e-01,	 2.0861140000000000e-01,	 1.1611403092697401e-02,	 1.7358597192230368e+03,	 8.2607414273810598e-01,	 3.0020154712931401e+02,	 1.0028305726369331e+03,	 3.4772462675513776e+02,	 4.9920534302697464e+00 
3.7855100000000003e-01,	 2.0913169999999998e-01,	 1.1610259867919201e-02,	 1.7358675045180253e+03,	 7.8185935165504139e-01,	 3.0018980854033691e+02,	 1.0026926276913334e+03,	 3.4771782826190469e+02,	 4.9921733644638291e+00 
3.8283139999999999e-01,	 2.0965190000000000e-01,	 1.1609096822749923e-02,	 1.7358747423958321e+03,	 7.3868631690264130e-01,	 3.0017880627507947e+02,	 1.0025554380118366e+03,	 3.4771145609548381e+02,	 4.9922856124990425e+00 
3.8711190000000001e-01,	 2.1017210000000000e-01,	 1.1607999864166796e-02,	 1.7358815551171756e+03,	 6.9662132069021143e-01,	 3.0016854394223628e+02,	 1.0024264337261517e+03,	 3.4770551236941162e+02,	 4.9923904946678253e+00 
3.9139230000000003e-01,	 2.1069230000000000e-01,	 1.1606978483534289e-02,	 1.7358878645122609e+03,	 6.5563987128154733e-01,	 3.0015901823972723e+02,	 1.0023064221370911e+03,	 3.4769999519311830e+02,	 4.9924878122726630e+00 
3.9567279999999999e-01,	 2.1121260000000000e-01,	 1.1606033459912117e-02,	 1.7358937716760829e+03,	 6.1580043532080020e-01,	 3.0015021921267612e+02,	 1.0021954360075808e+03,	 3.4769489882103022e+02,	 4.9925779376930244e+00 
3.9995320000000001e-01,	 2.1173280000000000e-01,	 1.1605076926099162e-02,	 1.7358991038205527e+03,	 5.7681837219993226e-01,	 3.0014222572574380e+02,	 1.0020861502327006e+03,	 3.4769026895079060e+02,	 4.9926597166316897e+00 
4.0423360000000003e-01,	 2.1225300000000000e-01,	 1.1604238784798718e-02,	 1.7359039723414121e+03,	 5.3870412458298711e-01,	 3.0013501363583748e+02,	 1.0019897003187709e+03,	 3.4768609161696679e+02,	 4.9927336692029103e+00 
4.0851409999999999e-01,	 2.1277330000000000e-01,	 1.1603492628217017e-02,	 1.7359084281967691e+03,	 5.0146221443558336e-01,	 3.0012857322986844e+02,	 1.0019037723574054e+03,	 3.4768236120983198e+02,	 4.9928000217972173e+00 
4.1279450000000001e-01,	 2.1329350000000000e-01,	 1.1602754414347207e-02,	 1.7359122991021186e+03,	 4.6476938536003753e-01,	 3.0012297667664643e+02,	 1.0018213497709569e+03,	 3.4767911954595269e+02,	 4.9928576774679012e+00 
4.1707499999999997e-01,	 2.1381370000000000e-01,	 1.1602111420835091e-02,	 1.7359157224487126e+03,	 4.2858764616444267e-01,	 3.0011822481205434e+02,	 1.0017499705034419e+03,	 3.4767636712317005e+02,	 4.9929070236219202e+00 
4.2135539999999999e-01,	 2.1433389999999999e-01,	 1.1601571154536847e-02,	 1.7359186244436305e+03,	 3.9279888065449309e-01,	 3.0011430917456448e+02,	 1.0016902536024094e+03,	 3.4767409905188117e+02,	 4.9929479176569718e+00 
4.2563590000000001e-01,	 2.1485420000000000e-01,	 1.1601133663189354e-02,	 1.7359211126353830e+03,	 3.5739722594234347e-01,	 3.0011121246661685e+02,	 1.0016421447205529e+03,	 3.4767230532214199e+02,	 4.9929808122565298e+00 
4.2991629999999997e-01,	 2.1537439999999999e-01,	 1.1600699586520382e-02,	 1.7359230139121823e+03,	 3.2204434039797014e-01,	 3.0010901618881894e+02,	 1.0015973365747039e+03,	 3.4767103314980977e+02,	 4.9930045309142397e+00 
4.3419679999999999e-01,	 2.1589459999999999e-01,	 1.1600404865744115e-02,	 1.7359244263281025e+03,	 2.8672351637444710e-01,	 3.0010767287574174e+02,	 1.0015674074427699e+03,	 3.4767025504661592e+02,	 4.9930197502069378e+00 
4.3847720000000001e-01,	 2.1641489999999999e-01,	 1.1600225461496839e-02,	 1.7359254691916183e+03,	 2.5150078456416114e-01,	 3.0010712669945940e+02,	 1.0015500950998595e+03,	 3.4766993867794071e+02,	 4.9930272775708078e+00 
4.4275769999999998e-01,	 2.1693509999999999e-01,	 1.1600047014784565e-02,	 1.7359259235666552e+03,	 2.1604956403790154e-01,	 3.0010744145827437e+02,	 1.0015357386475534e+03,	 3.4767012099975096e+02,	 4.9930259523579474e+00 
4.4703809999999999e-01,	 2.1745529999999999e-01,	 1.1599987609423795e-02,	 1.7359259376420155e+03,	 1.8050004204546435e-01,	 3.0010858621026955e+02,	 1.0015344299641457e+03,	 3.4767078408841547e+02,	 4.9930164583075030e+00 
4.5131850000000001e-01,	 2.1797549999999999e-01,	 1.1600016490619949e-02,	 1.7359254816486664e+03,	 1.4482480812772242e-01,	 3.0011050002767672e+02,	 1.0015433104296936e+03,	 3.4767189264939697e+02,	 4.9929992167657051e+00 
4.5559899999999998e-01,	 2.1849579999999999e-01,	 1.1600146757717259e-02,	 1.7359247011833190e+03,	 1.0919807618692140e-01,	 3.0011309730259507e+02,	 1.0015632255162571e+03,	 3.4767339709114890e+02,	 4.9929753588905132e+00 
4.5987939999999999e-01,	 2.1901599999999999e-01,	 1.1600262468795038e-02,	 1.7359234338503570e+03,	 7.3456524976264398e-02,	 3.0011640512063377e+02,	 1.0015842553209011e+03,	 3.4767531309744106e+02,	 4.9929441924972542e+00 
4.6415990000000001e-01,	 2.1953619999999999e-01,	 1.1600497405921353e-02,	 1.7359218200722444e+03,	 3.7815836195406419e-02,	 3.0012029500235280e+02,	 1.0016175221887574e+03,	 3.4767756624228633e+02,	 4.9929071905503006e+00 
4.6844029999999998e-01,	 2.2005649999999999e-01,	 1.1600818862734914e-02,	 1.7359200099786917e+03,	 2.6227893182911915e-03,	 3.0012465259740640e+02,	 1.0016598210006937e+03,	 3.4768009028442674e+02,	 4.9928657363168787e+00 
4.7272080000000000e-01,	 2.2057669999999999e-01,	 1.1601103928969323e-02,	 1.7359177588601463e+03,	 -3.2134949388581677e-02,	 3.0012952441839082e+02,	 1.0017006947294383e+03,	 3.4768291215905657e+02,	 4.9928187392869150e+00 
4.7700120000000001e-01,	 2.2109689999999999e-01,	 1.1601460120248151e-02,	 1.7359153950580826e+03,	 -6.6129628166078022e-02,	 3.0013474590319055e+02,	 1.0017488777298814e+03,	 3.4768593654186031e+02,	 4.9927685128233152e+00 
4.8128169999999998e-01,	 2.2161709999999998e-01,	 1.1601846340122113e-02,	 1.7359128972953022e+03,	 -9.9495970842223280e-02,	 3.0014004657404922e+02,	 1.0017999190237003e+03,	 3.4768900676381872e+02,	 4.9927172455177882e+00 
4.8556210000000000e-01,	 2.2213739999999998e-01,	 1.1602278614062021e-02,	 1.7359105044598778e+03,	 -1.3168087239065693e-01,	 3.0014532049043703e+02,	 1.0018548489531058e+03,	 3.4769206146231113e+02,	 4.9926665053941708e+00 
4.8984260000000002e-01,	 2.2265759999999998e-01,	 1.1602610494486779e-02,	 1.7359079722799283e+03,	 -1.6261943502668005e-01,	 3.0015062265501365e+02,	 1.0019012053707354e+03,	 3.4769513249534828e+02,	 4.9926151322242829e+00 
4.9412299999999998e-01,	 2.2317779999999998e-01,	 1.1603005512146405e-02,	 1.7359055702918984e+03,	 -1.9183727101830675e-01,	 3.0015575626963346e+02,	 1.0019524522452963e+03,	 3.4769810587779131e+02,	 4.9925655375934985e+00 
4.9840350000000000e-01,	 2.2369809999999998e-01,	 1.1603394520411047e-02,	 1.7359034023092941e+03,	 -2.1896784916492706e-01,	 3.0016057729378770e+02,	 1.0020021378536374e+03,	 3.4770089818512002e+02,	 4.9925192174667421e+00 
5.0268389999999996e-01,	 2.2421829999999998e-01,	 1.1603681016967441e-02,	 1.7359013534353130e+03,	 -2.4400654628414215e-01,	 3.0016503952169785e+02,	 1.0020417743093130e+03,	 3.4770348265990350e+02,	 4.9924762251593453e+00 
5.0696430000000003e-01,	 2.2473849999999998e-01,	 1.1603943353987126e-02,	 1.7358996802318868e+03,	 -2.6657825759741749e-01,	 3.0016901328300276e+02,	 1.0020776944742058e+03,	 3.4770578420387130e+02,	 4.9924383762422169e+00 
5.1124480000000005e-01,	 2.2525869999999998e-01,	 1.1604168562398324e-02,	 1.7358983268063957e+03,	 -2.8651152114795753e-01,	 3.0017237460411587e+02,	 1.0021083642974875e+03,	 3.4770773101961498e+02,	 4.9924065402875870e+00 
5.1552520000000002e-01,	 2.2577899999999998e-01,	 1.1604372902303204e-02,	 1.7358975658969455e+03,	 -3.0339601727808080e-01,	 3.0017497699252272e+02,	 1.0021346986834433e+03,	 3.4770923826792216e+02,	 4.9923827191292220e+00 
5.1980570000000004e-01,	 2.2629919999999998e-01,	 1.1604392750765616e-02,	 1.7358972120669700e+03,	 -3.1743690160692328e-01,	 3.0017684689459827e+02,	 1.0021426554463610e+03,	 3.4771032127160936e+02,	 4.9923661591144830e+00 
5.2408610000000000e-01,	 2.2681939999999998e-01,	 1.1604407543760376e-02,	 1.7358975265316940e+03,	 -3.2832885078499541e-01,	 3.0017784086455981e+02,	 1.0021472513335998e+03,	 3.4771089695446454e+02,	 4.9923588037828885e+00 
5.2836660000000002e-01,	 2.2733969999999998e-01,	 1.1604363269404052e-02,	 1.7358986014088705e+03,	 -3.3588415198106869e-01,	 3.0017786592152754e+02,	 1.0021435114886533e+03,	 3.4771091146682915e+02,	 4.9923616908699735e+00 
5.3264699999999998e-01,	 2.2785989999999998e-01,	 1.1604152186559623e-02,	 1.7359003316554458e+03,	 -3.4033968439006301e-01,	 3.0017695578523279e+02,	 1.0021222441095243e+03,	 3.4771038433842227e+02,	 4.9923742378925402e+00 
5.3692750000000000e-01,	 2.2838010000000000e-01,	 1.1614811130097364e-02,	 1.7358596588649057e+03,	 -3.2833946916685464e-01,	 3.0021052772162136e+02,	 1.0031549199264118e+03,	 3.4772982784384590e+02,	 4.9919781132416441e+00 
5.4120789999999996e-01,	 2.2890030000000000e-01,	 1.1635955522308949e-02,	 1.7358691669832278e+03,	 -4.9836877607862690e-01,	 3.0027164839331965e+02,	 1.0051857381977443e+03,	 3.4776522366949428e+02,	 4.9914974827209537e+00 
2.1455240000000000e-01,	 1.9405780000000000e-01,	 1.1582188499324681e-02,	 1.7359846175499788e+03,	 1.9146671000869109e-01,	 3.0001082360151077e+02,	 9.9967191114742502e+02,	 3.4761415130129512e+02,	 4.9939987241889261e+00 
2.1884200000000001e-01,	 1.9455639999999999e-01,	 1.1584174111572445e-02,	 1.7359662328485101e+03,	 2.6198697578828439e-01,	 3.0004600701320680e+02,	 9.9996054703734001e+02,	 3.4763453372133375e+02,	 4.9936530586723258e+00 
2.2313150000000001e-01,	 1.9505499999999998e-01,	 1.1587246264630251e-02,	 1.7359359554603575e+03,	 3.7065668917891292e-01,	 3.0009696215185852e+02,	 1.0003956019257346e+03,	 3.4766405088446578e+02,	 4.9931420594547067e+00 
2.2742100000000001e-01,	 1.9555349999999999e-01,	 1.1590500737598845e-02,	 1.7359067736819129e+03,	 4.8349422214397486e-01,	 3.0014651548824401e+02,	 1.0008418159919466e+03,	 3.4769275361176182e+02,	 4.9926460157204522e+00 
2.3171050000000001e-01,	 1.9605209999999998e-01,	 1.1593764163649678e-02,	 1.7358792203576115e+03,	 5.9644508401352914e-01,	 3.0019336038724117e+02,	 1.0012798622219353e+03,	 3.4771988535512287e+02,	 4.9921773126478497e+00 
2.3599999999999999e-01,	 1.9655059999999999e-01,	 1.1596971534904587e-02,	 1.7358538189105443e+03,	 7.0612713005314875e-01,	 3.0023644706256795e+02,	 1.0017006157275578e+03,	 3.4774483853235205e+02,	 4.9917461603721280e+00 
2.4028949999999999e-01,	 1.9704919999999998e-01,	 1.1600063523725982e-02,	 1.7358307954764796e+03,	 8.1010699438903822e-01,	 3.0027514663098577e+02,	 1.0020968401141907e+03,	 3.4776724943827332e+02,	 4.9913584080084981e+00 
2.4457899999999999e-01,	 1.9754769999999999e-01,	 1.1603025635328185e-02,	 1.7358102315303136e+03,	 9.0735853102319441e-01,	 3.0030944257261240e+02,	 1.0024672123683014e+03,	 3.4778710899854457e+02,	 4.9910143986645537e+00 
2.4886849999999999e-01,	 1.9804629999999998e-01,	 1.1605794738774997e-02,	 1.7357920747994469e+03,	 9.9684281359914162e-01,	 3.0033934629274472e+02,	 1.0028063005990155e+03,	 3.4780442425409433e+02,	 4.9907138609836741e+00 
2.5315799999999999e-01,	 1.9854479999999999e-01,	 1.1608368434163154e-02,	 1.7357761818434110e+03,	 1.0779242441947401e+00,	 3.0036492821835759e+02,	 1.0031141171464063e+03,	 3.4781923636173497e+02,	 4.9904557743778168e+00 
2.5744760000000000e-01,	 1.9904339999999998e-01,	 1.1610755226723666e-02,	 1.7357625513014004e+03,	 1.1503914637097616e+00,	 3.0038640340922450e+02,	 1.0033921014829820e+03,	 3.4783167015523026e+02,	 4.9902383291970196e+00 
2.6173710000000000e-01,	 1.9954189999999999e-01,	 1.1612914749555029e-02,	 1.7357509682714810e+03,	 1.2141345717782499e+00,	 3.0040408139953593e+02,	 1.0036377871490222e+03,	 3.4784190509655906e+02,	 4.9900583209634721e+00 
2.6602660000000000e-01,	 2.0004049999999998e-01,	 1.1614862597109917e-02,	 1.7357414115546953e+03,	 1.2692909555097909e+00,	 3.0041826483712657e+02,	 1.0038535227048551e+03,	 3.4785011659571114e+02,	 4.9899131632820231e+00 
2.7031610000000000e-01,	 2.0053900000000000e-01,	 1.1616602395448499e-02,	 1.7357332150766447e+03,	 1.3161170602174070e+00,	 3.0042927712797859e+02,	 1.0040406939192942e+03,	 3.4785649202623836e+02,	 4.9897982467940389e+00 
2.7460560000000001e-01,	 2.0103759999999998e-01,	 1.1618154911557750e-02,	 1.7357268313058789e+03,	 1.3549611805333539e+00,	 3.0043739418705530e+02,	 1.0042020112590510e+03,	 3.4786119122308639e+02,	 4.9897125749064228e+00 
2.7889510000000001e-01,	 2.0153610000000000e-01,	 1.1619489614244289e-02,	 1.7357219338800678e+03,	 1.3860809051929708e+00,	 3.0044291968789173e+02,	 1.0043358456930874e+03,	 3.4786439005669155e+02,	 4.9896526834281874e+00 
2.8318460000000001e-01,	 2.0203469999999998e-01,	 1.1620628716079270e-02,	 1.7357182933134759e+03,	 1.4099257571482990e+00,	 3.0044611334736487e+02,	 1.0044449814495709e+03,	 3.4786623892278152e+02,	 4.9896157538321626e+00 
2.8747410000000001e-01,	 2.0253320000000000e-01,	 1.1621607404150342e-02,	 1.7357159863065663e+03,	 1.4270111572008874e+00,	 3.0044720325294202e+02,	 1.0045332197510725e+03,	 3.4786686988619425e+02,	 4.9896001119041360e+00 
2.9176360000000001e-01,	 2.0303179999999998e-01,	 1.1622385149170944e-02,	 1.7357148371827409e+03,	 1.4376458953848323e+00,	 3.0044642572033416e+02,	 1.0045978456293371e+03,	 3.4786641976050396e+02,	 4.9896032901345713e+00 
2.9605310000000001e-01,	 2.0353030000000000e-01,	 1.1622999198542698e-02,	 1.7357147745448012e+03,	 1.4423464402820096e+00,	 3.0044398016339693e+02,	 1.0046427442830392e+03,	 3.4786500398585258e+02,	 4.9896234284513286e+00 
3.0034270000000002e-01,	 2.0402889999999999e-01,	 1.1623449634715932e-02,	 1.7357156694883420e+03,	 1.4415722266595341e+00,	 3.0044005491659414e+02,	 1.0046685520888145e+03,	 3.4786273158143655e+02,	 4.9896585938808231e+00 
3.0463220000000002e-01,	 2.0452740000000000e-01,	 1.1623766540004256e-02,	 1.7357175630605270e+03,	 1.4358274975653222e+00,	 3.0043481048153990e+02,	 1.0046784058629637e+03,	 3.4785969544921130e+02,	 4.9897075736083423e+00 
3.0892170000000002e-01,	 2.0502599999999999e-01,	 1.1623921424269235e-02,	 1.7357203577456676e+03,	 1.4254193443547496e+00,	 3.0042841587111889e+02,	 1.0046704086116730e+03,	 3.4785599341636998e+02,	 4.9897686855835266e+00 
3.1321120000000002e-01,	 2.0552460000000000e-01,	 1.1623938791329991e-02,	 1.7357238595636752e+03,	 1.4108387377007572e+00,	 3.0042101297944635e+02,	 1.0046471534311376e+03,	 3.4785170760989388e+02,	 4.9898401961914081e+00 
3.1750070000000002e-01,	 2.0602309999999999e-01,	 1.1623857110973598e-02,	 1.7357285670786964e+03,	 1.3926176123119565e+00,	 3.0041179271508742e+02,	 1.0046092603142511e+03,	 3.4784636958563374e+02,	 4.9899302609134688e+00 
3.2179020000000003e-01,	 2.0652170000000000e-01,	 1.1623635844702293e-02,	 1.7357336839534173e+03,	 1.3710333200522320e+00,	 3.0040254606478965e+02,	 1.0045592158434739e+03,	 3.4784101620310099e+02,	 4.9900217184867364e+00 
3.2607969999999997e-01,	 2.0702019999999999e-01,	 1.1623313827841240e-02,	 1.7357388888151872e+03,	 1.3463421144026675e+00,	 3.0039370401629014e+02,	 1.0045018185339152e+03,	 3.4783589698921946e+02,	 4.9901100662429210e+00 
3.3036919999999997e-01,	 2.0751879999999998e-01,	 1.1622892764394415e-02,	 1.7357448671534346e+03,	 1.3160426547578665e+00,	 3.0038355873046635e+02,	 1.0044315055766740e+03,	 3.4783002315707245e+02,	 4.9902114553281347e+00 
3.3465869999999998e-01,	 2.0801729999999999e-01,	 1.1622417167513013e-02,	 1.7357514092288620e+03,	 1.2858837281498658e+00,	 3.0037293734542811e+02,	 1.0043548906161295e+03,	 3.4782387357072645e+02,	 4.9903184267242633e+00 
3.3894829999999998e-01,	 2.0851589999999998e-01,	 1.1621823383512064e-02,	 1.7357584193318130e+03,	 1.2572208473128859e+00,	 3.0036192420404518e+02,	 1.0042667558995936e+03,	 3.4781749704985384e+02,	 4.9904300081530497e+00 
3.4323779999999998e-01,	 2.0901439999999999e-01,	 1.1621150159614513e-02,	 1.7357656746547241e+03,	 1.2243539154646275e+00,	 3.0035052659665303e+02,	 1.0041704752289585e+03,	 3.4781089780313812e+02,	 4.9905454872989035e+00 
3.4752729999999998e-01,	 2.0951299999999998e-01,	 1.1620440538319685e-02,	 1.7357732223527307e+03,	 1.1898862811023396e+00,	 3.0033881665198908e+02,	 1.0040700098523203e+03,	 3.4780411758185579e+02,	 4.9906644069054167e+00 
3.5181679999999999e-01,	 2.1001149999999999e-01,	 1.1619660676589986e-02,	 1.7357809023290301e+03,	 1.1546740030737586e+00,	 3.0032708972225470e+02,	 1.0039634235540650e+03,	 3.4779732739351437e+02,	 4.9907838550479751e+00 
3.5610629999999999e-01,	 2.1051009999999998e-01,	 1.1618834346007651e-02,	 1.7357886727739858e+03,	 1.1179550136144600e+00,	 3.0031535187341359e+02,	 1.0038527911680208e+03,	 3.4779053074997904e+02,	 4.9909036598750465e+00 
3.6039579999999999e-01,	 2.1100859999999999e-01,	 1.1617972661520336e-02,	 1.7357964028098941e+03,	 1.0798321796146542e+00,	 3.0030361036138049e+02,	 1.0037390977050518e+03,	 3.4778373185243453e+02,	 4.9910233852630581e+00 
3.6468529999999999e-01,	 2.1150719999999998e-01,	 1.1617117311978557e-02,	 1.7358041882561083e+03,	 1.0417340152823509e+00,	 3.0029193425950041e+02,	 1.0036261759638775e+03,	 3.4777697069869282e+02,	 4.9911427354274727e+00 
3.6897479999999999e-01,	 2.1200569999999999e-01,	 1.1616208766425360e-02,	 1.7358118819563285e+03,	 1.0031593562897856e+00,	 3.0028042447215637e+02,	 1.0035092202449345e+03,	 3.4777030572225522e+02,	 4.9912604476795845e+00 
3.7326429999999999e-01,	 2.1250429999999998e-01,	 1.1615292601293284e-02,	 1.7358193260564053e+03,	 9.6429698474500647e-01,	 3.0026914843707561e+02,	 1.0033923934392824e+03,	 3.4776377598094854e+02,	 4.9913755077201394e+00 
3.7755379999999999e-01,	 2.1300279999999999e-01,	 1.1614395891132608e-02,	 1.7358266404943329e+03,	 9.2530880291800655e-01,	 3.0025815870045585e+02,	 1.0032782097748052e+03,	 3.4775741191175621e+02,	 4.9914878235859188e+00 
3.8184340000000000e-01,	 2.1350139999999998e-01,	 1.1613486112468577e-02,	 1.7358337233282605e+03,	 8.8614347451626219e-01,	 3.0024753301763724e+02,	 1.0031641192832518e+03,	 3.4775125855248547e+02,	 4.9915964552993062e+00 
3.8613290000000000e-01,	 2.1399989999999999e-01,	 1.1612590475964444e-02,	 1.7358405281578123e+03,	 8.4689980558927236e-01,	 3.0023732612201928e+02,	 1.0030526550116773e+03,	 3.4774534761138995e+02,	 4.9917008140529822e+00 
3.9042240000000000e-01,	 2.1449849999999998e-01,	 1.1611716328794021e-02,	 1.7358469678611787e+03,	 8.0765656600149216e-01,	 3.0022759507415708e+02,	 1.0029446417301233e+03,	 3.4773971214613169e+02,	 4.9918001744515292e+00 
3.9471190000000000e-01,	 2.1499699999999999e-01,	 1.1610890415315989e-02,	 1.7358531468441852e+03,	 7.6847769356618867e-01,	 3.0021838022886948e+02,	 1.0028425236321973e+03,	 3.4773437554102185e+02,	 4.9918945006498783e+00 
3.9900140000000001e-01,	 2.1549559999999998e-01,	 1.1610078454682617e-02,	 1.7358589857927545e+03,	 7.2920570117040695e-01,	 3.0020975118557419e+02,	 1.0027435716580363e+03,	 3.4772937811791076e+02,	 4.9919829850205444e+00 
4.0329090000000001e-01,	 2.1599420000000000e-01,	 1.1609307740939904e-02,	 1.7358643545289945e+03,	 6.8989746903438776e-01,	 3.0020175178791885e+02,	 1.0026502890066976e+03,	 3.4772474528354900e+02,	 4.9920648880166203e+00 
4.0758040000000001e-01,	 2.1649269999999998e-01,	 1.1608608256018997e-02,	 1.7358693923779895e+03,	 6.5058726066521655e-01,	 3.0019441342067631e+02,	 1.0025653691489432e+03,	 3.4772049522927824e+02,	 4.9921403486738400e+00 
4.1186990000000001e-01,	 2.1699130000000000e-01,	 1.1607942770193525e-02,	 1.7358740141793085e+03,	 6.1108198139524306e-01,	 3.0018779398466228e+02,	 1.0024857893609611e+03,	 3.4771666150327496e+02,	 4.9922086397431578e+00 
4.1615940000000001e-01,	 2.1748979999999998e-01,	 1.1607336188094779e-02,	 1.7358781927014254e+03,	 5.7137329031625450e-01,	 3.0018192516085730e+02,	 1.0024138056024544e+03,	 3.4771326246801181e+02,	 4.9922694188184851e+00 
4.2044900000000002e-01,	 2.1798840000000000e-01,	 1.1606793179749143e-02,	 1.7358818587344076e+03,	 5.3146319355902238e-01,	 3.0017683868105786e+02,	 1.0023499264391598e+03,	 3.4771031651452563e+02,	 4.9923222223955284e+00 
4.2473850000000002e-01,	 2.1848689999999998e-01,	 1.1606338009013940e-02,	 1.7358851333410432e+03,	 4.9136313426681588e-01,	 3.0017254420124561e+02,	 1.0022962788373596e+03,	 3.4770782924688342e+02,	 4.9923673178254129e+00 
4.2902800000000002e-01,	 2.1898550000000000e-01,	 1.1605930363384399e-02,	 1.7358879625766106e+03,	 4.5086254967988448e-01,	 3.0016907706499364e+02,	 1.0022494989175048e+03,	 3.4770582114533590e+02,	 4.9924042554419783e+00 
4.3331750000000002e-01,	 2.1948399999999998e-01,	 1.1605590837358090e-02,	 1.7358902019266752e+03,	 4.1003139227416641e-01,	 3.0016644044678549e+02,	 1.0022113753020171e+03,	 3.4770429405680096e+02,	 4.9924325929362130e+00 
4.3760700000000002e-01,	 2.1998260000000000e-01,	 1.1605353436734566e-02,	 1.7358920690273321e+03,	 3.6897483243411733e-01,	 3.0016460287380306e+02,	 1.0021847390957187e+03,	 3.4770322975895084e+02,	 4.9924532177763341e+00 
4.4189650000000003e-01,	 2.2048109999999999e-01,	 1.1605159599754968e-02,	 1.7358934739378067e+03,	 3.2753018955535496e-01,	 3.0016357000403059e+02,	 1.0021645517577822e+03,	 3.4770263153307525e+02,	 4.9924658239811111e+00 
4.4618600000000003e-01,	 2.2097970000000000e-01,	 1.1605041932599097e-02,	 1.7358943993749408e+03,	 2.8585676544489325e-01,	 3.0016331883770295e+02,	 1.0021535520328749e+03,	 3.4770248606037285e+02,	 4.9924705531444689e+00 
4.5047549999999997e-01,	 2.2147819999999999e-01,	 1.1604986915948749e-02,	 1.7358948443120589e+03,	 2.4406522013662652e-01,	 3.0016377404423406e+02,	 1.0021503208575259e+03,	 3.4770274971081346e+02,	 4.9924680288363730e+00 