TITLE = "Final State"
VARIABLES = "X", "Y", "rho", "u", "v", "T", "p", "c", "M"
ZONE I=76, J=50, DATAPACKING=POINT, STRANDID=31000, SOLUTIONTIME=0.001116
2.5995150000000000e-01,	 1.0000000000000000e-04,	 1.6987192448834476e-01,	 6.5217809910293909e+02,	 -3.1633358200137072e+00,	 2.8585818351987277e+03,	 1.3970185540606180e+05,	 1.0730113143666827e+03,	 6.0780884793546552e-01 
2.6224629999999999e-01,	 1.0000000000000000e-04,	 1.6597322870770742e-01,	 7.0557304855499842e+02,	 -2.8212826183724946e+00,	 2.8205605419889152e+03,	 1.3468009251397836e+05,	 1.0658514972704402e+03,	 6.6198592476174223e-01 
2.6456140000000000e-01,	 1.0000000000000000e-04,	 1.5817048419396043e-01,	 7.7746551735515095e+02,	 -2.1206292744999282e+00,	 2.7680333158453827e+03,	 1.2595827215167136e+05,	 1.0558801928041521e+03,	 7.3632256271306529e-01 
2.6689710000000000e-01,	 1.0000000000000000e-04,	 1.5056189711723189e-01,	 8.4281258032959465e+02,	 -1.4640847928146687e+00,	 2.7155027939492065e+03,	 1.1762381733273651e+05,	 1.0458131866857068e+03,	 8.0589331127187314e-01 
2.6925349999999998e-01,	 1.0000000000000000e-04,	 1.4343467605450530e-01,	 9.0094683237923869e+02,	 -9.1556086329448860e-01,	 2.6654507740605131e+03,	 1.0999039474489415e+05,	 1.0361301701819884e+03,	 8.6953099476569273e-01 
2.7163090000000001e-01,	 1.0000000000000000e-04,	 1.3708850789927279e-01,	 9.5124341200556444e+02,	 -5.1351932867405092e-01,	 2.6194867158091633e+03,	 1.0331114796300675e+05,	 1.0271576068155596e+03,	 9.2609307890324910e-01 
2.7402959999999998e-01,	 1.0000000000000000e-04,	 1.3163658231124198e-01,	 9.9368324057215273e+02,	 -2.0686464404659818e-01,	 2.5786905178388934e+03,	 9.7657535222508843e+04,	 1.0191276819491362e+03,	 9.7503313834453620e-01 
2.7644970000000002e-01,	 1.0000000000000000e-04,	 1.2714895734524945e-01,	 1.0290687382977410e+03,	 -9.5458026079746530e-02,	 2.5434857468237665e+03,	 9.3040502852920006e+04,	 1.0121471130599639e+03,	 1.0167185475775720e+00 
2.7889150000000001e-01,	 1.0000000000000000e-04,	 1.2352949525385823e-01,	 1.0580647212208100e+03,	 -1.4914393724377252e-02,	 2.5139936520998699e+03,	 8.9343874267770254e+04,	 1.0062620056488560e+03,	 1.0514803454629760e+00 
2.8135520000000003e-01,	 1.0000000000000000e-04,	 1.2061224657288569e-01,	 1.0811789253333268e+03,	 5.2754922324737025e-02,	 2.4899459994638341e+03,	 8.6399508678941915e+04,	 1.0014377323737966e+03,	 1.0796267123444323e+00 
2.8384100000000001e-01,	 1.0000000000000000e-04,	 1.1820554284885001e-01,	 1.1000512885411106e+03,	 6.1641612424456774e-02,	 2.4699108392751177e+03,	 8.3994153057950738e+04,	 9.9740059876051077e+02,	 1.1029182172491336e+00 
2.8634920000000003e-01,	 1.0000000000000000e-04,	 1.1605955553201559e-01,	 1.1167412750437243e+03,	 7.2133700016709809e-02,	 2.4518891573709461e+03,	 8.1867527362257009e+04,	 9.9375517470087527e+02,	 1.1237589557302536e+00 
2.8888009999999997e-01,	 1.0000000000000000e-04,	 1.1393558211711977e-01,	 1.1331491088476025e+03,	 1.1004072506525137e-01,	 2.4338982256644940e+03,	 7.9779576599643828e+04,	 9.9010258325252175e+02,	 1.1444764748196343e+00 
2.9143380000000002e-01,	 1.0000000000000000e-04,	 1.1168270438764333e-01,	 1.1504195792667610e+03,	 1.7898973745467414e-01,	 2.4146393105072148e+03,	 7.7583278141509072e+04,	 9.8617756858400264e+02,	 1.1665440685725355e+00 
2.9401060000000001e-01,	 1.0000000000000000e-04,	 1.0927550040704548e-01,	 1.1687510820025580e+03,	 2.6125309761937809e-01,	 2.3938329510323410e+03,	 7.5256944594961446e+04,	 9.8191955007213596e+02,	 1.1902717601619104e+00 
2.9661080000000001e-01,	 1.0000000000000000e-04,	 1.0677185008350476e-01,	 1.1876832719400763e+03,	 3.4185606533773388e-01,	 2.3719263670922655e+03,	 7.2859788857178399e+04,	 9.7741632407383918e+02,	 1.2151253175195731e+00 
2.9923460000000002e-01,	 1.0000000000000000e-04,	 1.0428298124492351e-01,	 1.2063157083949684e+03,	 4.0209158493214692e-01,	 2.3498737577534343e+03,	 7.0499803590459764e+04,	 9.7286202698640454e+02,	 1.2399659375592151e+00 
3.0188229999999999e-01,	 1.0000000000000000e-04,	 1.0196229510092777e-01,	 1.2234905515736914e+03,	 3.9765958573543647e-01,	 2.3290687265341580e+03,	 6.8320627101319551e+04,	 9.6854574727798501e+02,	 1.2632243955806697e+00 
3.0455409999999999e-01,	 1.0000000000000000e-04,	 9.9937534221682306e-02,	 1.2382039874710613e+03,	 3.8650455390947069e-01,	 2.3107512966300742e+03,	 6.6437269127890700e+04,	 9.6472956767682683e+02,	 1.2834726842428590e+00 
3.0725019999999997e-01,	 1.0000000000000000e-04,	 9.8360570573575890e-02,	 1.2492948989606771e+03,	 3.2167322358209549e-01,	 2.2964378255394022e+03,	 6.4983884526697191e+04,	 9.6173701738436966e+02,	 1.2989984972931599e+00 
3.0997100000000000e-01,	 1.0000000000000000e-04,	 9.7414053928307570e-02,	 1.2554045623820771e+03,	 1.8552320922713386e-01,	 2.2879016922278743e+03,	 6.4119320909067028e+04,	 9.5994790764917900e+02,	 1.3077840642048149e+00 
3.1271670000000001e-01,	 1.0000000000000000e-04,	 9.7272845098174798e-02,	 1.2551724999824360e+03,	 -7.5260647957574069e-03,	 2.2871166481386626e+03,	 6.4004405972401932e+04,	 9.5978320081539744e+02,	 1.3077666903720022e+00 
3.1548749999999998e-01,	 1.0000000000000000e-04,	 9.8109760044236757e-02,	 1.2474754614949215e+03,	 -2.3117655641030493e-01,	 2.2953433961211276e+03,	 6.4787290664436710e+04,	 9.6150781920876011e+02,	 1.2974158483097826e+00 
3.1828370000000000e-01,	 1.0000000000000000e-04,	 1.0009800818351572e-01,	 1.2310753538517904e+03,	 -4.5933197936846049e-01,	 2.3139858578119324e+03,	 6.6637097686373192e+04,	 9.6540453983361419e+02,	 1.2751912682694202e+00 
3.2110569999999999e-01,	 1.0000000000000000e-04,	 1.0341867180104686e-01,	 1.2046904583736691e+03,	 -6.9126971170668583e-01,	 2.3443167373250349e+03,	 6.9750155724047203e+04,	 9.7171102598025868e+02,	 1.2397622590408537e+00 
3.2395360000000001e-01,	 1.0000000000000000e-04,	 1.0811177411528632e-01,	 1.1679235412245162e+03,	 -7.0834040667403975e-01,	 2.3861064725244669e+03,	 7.4215180911330302e+04,	 9.8033361817095158e+02,	 1.1913533662205571e+00 
3.2682770000000000e-01,	 1.0000000000000000e-04,	 1.1404624017737885e-01,	 1.1215506303593477e+03,	 -6.0437433400295193e-01,	 2.4374941825692331e+03,	 7.9975045818565806e+04,	 9.9083372560065436e+02,	 1.1319263406382429e+00 
3.2972829999999997e-01,	 1.0000000000000000e-04,	 1.2100992415400968e-01,	 1.0666786768340589e+03,	 -4.0049254180368132e-01,	 2.4962165101754299e+03,	 8.6902681525085427e+04,	 1.0026979158309111e+03,	 1.0638086857237519e+00 
3.3265570000000000e-01,	 1.0000000000000000e-04,	 1.2863919296695556e-01,	 1.0033827934522567e+03,	 3.8395479877423638e-01,	 2.5604413443026770e+03,	 9.4758477791863130e+04,	 1.0155151392107723e+03,	 9.8805308574147832e-01 
3.3561010000000002e-01,	 1.0000000000000000e-04,	 1.3619326117196873e-01,	 9.3385656402496318e+02,	 1.2259382730406574e+00,	 2.6259373041413592e+03,	 1.0288922822137250e+05,	 1.0284215370339696e+03,	 9.0804921433774322e-01 
3.3859190000000000e-01,	 1.0000000000000000e-04,	 1.4322361169215619e-01,	 8.6612681860901046e+02,	 1.4231126687466480e+00,	 2.6849967970763296e+03,	 1.1063392763637584e+05,	 1.0399222551744410e+03,	 8.3287763430398309e-01 
3.4160130000000000e-01,	 1.0000000000000000e-04,	 1.4940487804635283e-01,	 8.0494464488290123e+02,	 1.3547885105129684e+00,	 2.7344194274121364e+03,	 1.1753300655654742e+05,	 1.0494495171090116e+03,	 7.6701715696641726e-01 
3.4463870000000002e-01,	 1.0000000000000000e-04,	 1.5443345565491304e-01,	 7.5404505213477773e+02,	 1.2077435554583955e+00,	 2.7724844418127623e+03,	 1.2318006946512259e+05,	 1.0567288039532345e+03,	 7.1356625893640502e-01 
3.4770420000000002e-01,	 1.0000000000000000e-04,	 1.5819407333889859e-01,	 7.1451345841975626e+02,	 9.6131615970185491e-01,	 2.7998626974439112e+03,	 1.2742565680336459e+05,	 1.0619335793324904e+03,	 6.7284255720827080e-01 
3.5079830000000001e-01,	 1.0000000000000000e-04,	 1.6078156744195699e-01,	 6.8573569479330672e+02,	 6.8918236660585097e-01,	 2.8181810481372236e+03,	 1.3035721867731033e+05,	 1.0654018132147505e+03,	 6.4364076784068536e-01 
3.5392109999999999e-01,	 1.0000000000000000e-04,	 1.6229888485645455e-01,	 6.6678541675614201e+02,	 4.2883649852100308e-01,	 2.8287910116490302e+03,	 1.3208282122879601e+05,	 1.0674054557893378e+03,	 6.2467879571033147e-01 
3.5707309999999998e-01,	 1.0000000000000000e-04,	 1.6287578668580815e-01,	 6.5638584383592070e+02,	 2.1128250150832389e-01,	 2.8328765281485721e+03,	 1.3274375844500359e+05,	 1.0681759844617429e+03,	 6.1449226287491310e-01 
3.6025439999999997e-01,	 1.0000000000000000e-04,	 1.6264829742156545e-01,	 6.5343385100928219e+02,	 3.6096886937684945e-02,	 2.8312245751805067e+03,	 1.3248105512481296e+05,	 1.0678644929808102e+03,	 6.1190708774512448e-01 
3.6346539999999999e-01,	 1.0000000000000000e-04,	 1.6173297939659129e-01,	 6.5726163389645706e+02,	 -1.6721650708697711e-01,	 2.8242740258055910e+03,	 1.3141210029760748e+05,	 1.0665529040164154e+03,	 6.1624852615603964e-01 
3.6670649999999999e-01,	 1.0000000000000000e-04,	 1.6024016137669528e-01,	 6.6715116316031424e+02,	 -3.7236497848476469e-01,	 2.8125857840093199e+03,	 1.2966031980709490e+05,	 1.0643436543783705e+03,	 6.2681941526319607e-01 
3.6997790000000003e-01,	 1.0000000000000000e-04,	 1.5823298352255671e-01,	 6.8271896191582948e+02,	 -5.2622538865398449e-01,	 2.7964965389307627e+03,	 1.2730376278689894e+05,	 1.0612950280532855e+03,	 6.4328876200411400e-01 
3.7327990000000000e-01,	 1.0000000000000000e-04,	 1.5571005342423755e-01,	 7.0367379978923350e+02,	 -6.5175181748791733e-01,	 2.7762309414230363e+03,	 1.2436614749744661e+05,	 1.0574425496139763e+03,	 6.6544901363818698e-01 
3.7661280000000003e-01,	 1.0000000000000000e-04,	 1.5266689702266537e-01,	 7.2962570716778191e+02,	 -7.5210475511648145e-01,	 2.7519509484657401e+03,	 1.2086916021764600e+05,	 1.0528083746093203e+03,	 6.9302839187293830e-01 
3.7997710000000001e-01,	 1.0000000000000000e-04,	 1.4909592318304371e-01,	 7.6002497875937138e+02,	 -7.6896580271635850e-01,	 2.7237597414524053e+03,	 1.1683272396279742e+05,	 1.0474019661824439e+03,	 7.2562912072363617e-01 
3.8337290000000002e-01,	 1.0000000000000000e-04,	 1.4503706304723052e-01,	 7.9408285552776886e+02,	 -7.6192996320909900e-01,	 2.6919791963423045e+03,	 1.1232608793728240e+05,	 1.0412735487451791e+03,	 7.6260769518643889e-01 
3.8680059999999999e-01,	 1.0000000000000000e-04,	 1.4054574164988470e-01,	 8.3085392184352247e+02,	 -7.0797291275893448e-01,	 2.6569771630313303e+03,	 1.0743244276337849e+05,	 1.0344819024533142e+03,	 8.0315974741162488e-01 
3.9026060000000001e-01,	 1.0000000000000000e-04,	 1.3577334594943827e-01,	 8.6887581103080356e+02,	 -5.7451952403928563e-01,	 2.6197007063620272e+03,	 1.0232838864712945e+05,	 1.0271995611293596e+03,	 8.4586874240666099e-01 
3.9375320000000003e-01,	 1.0000000000000000e-04,	 1.3088832089453334e-01,	 9.0692361725446040e+02,	 -3.2482331951775562e-01,	 2.5810032493654435e+03,	 9.7189508344125701e+04,	 1.0195845883655512e+03,	 8.8950312291164235e-01 
3.9727859999999998e-01,	 1.0000000000000000e-04,	 1.2602567246316959e-01,	 9.4408085113423897e+02,	 -1.1792007289705600e-01,	 2.5417110096298325e+03,	 9.2154199521034214e+04,	 1.0117939346347150e+03,	 9.3307621856762712e-01 
4.0083740000000001e-01,	 1.0000000000000000e-04,	 1.2142095276741055e-01,	 9.7884268536954278e+02,	 3.2799689399316545e-03,	 2.5034513112574323e+03,	 8.7450585843673165e+04,	 1.0041499275512853e+03,	 9.7479734700777088e-01 
4.0442970000000000e-01,	 1.0000000000000000e-04,	 1.1732956499223626e-01,	 1.0097104651222132e+03,	 5.4940785774824891e-02,	 2.4679179026621600e+03,	 8.3304431779201564e+04,	 9.9699812323903109e+02,	 1.0127506191652729e+00 
4.0805590000000003e-01,	 1.0000000000000000e-04,	 1.1394106744318837e-01,	 1.0349789617176200e+03,	 1.2101886268107369e-01,	 2.4370528907776697e+03,	 7.9886827740853245e+04,	 9.9074402967748631e+02,	 1.0446482015438734e+00 
4.1171639999999998e-01,	 1.0000000000000000e-04,	 1.1145160770260493e-01,	 1.0521286268383637e+03,	 1.9653526892458989e-01,	 2.4134697411696379e+03,	 7.7385239906066810e+04,	 9.8593870418264862e+02,	 1.0671339310761321e+00 
4.1541159999999999e-01,	 1.0000000000000000e-04,	 1.1009742249418737e-01,	 1.0590031533504148e+03,	 2.2583732848262514e-01,	 2.3992264370999965e+03,	 7.5993829039519318e+04,	 9.8302509708029800e+02,	 1.0772900718162830e+00 
4.1914170000000001e-01,	 1.0000000000000000e-04,	 1.1021694528316525e-01,	 1.0530808383186245e+03,	 2.2425468482211774e-01,	 2.3977867658442374e+03,	 7.6030678558944259e+04,	 9.8273011755633502e+02,	 1.0715870444826305e+00 
4.2290709999999998e-01,	 1.0000000000000000e-04,	 1.1183940535077261e-01,	 1.0330756461712731e+03,	 3.2374372189113354e-01,	 2.4098514039995289e+03,	 7.7538081414836837e+04,	 9.8519935437641755e+02,	 1.0485955886078737e+00 
4.2670829999999998e-01,	 1.0000000000000000e-04,	 1.1507223761929058e-01,	 9.9631892785715831e+02,	 7.3753021836433019e-01,	 2.4363937629085385e+03,	 8.0658097631369630e+04,	 9.9061004178494397e+02,	 1.0057632759730171e+00 
4.3054559999999997e-01,	 1.0000000000000000e-04,	 1.1970630784229166e-01,	 9.4002154581708692e+02,	 1.3202905533307707e+00,	 2.4776347975932576e+03,	 8.5326565530800508e+04,	 9.9895892770759974e+02,	 9.4100212425059104e-01 
4.3441920000000001e-01,	 1.0000000000000000e-04,	 1.2533062065326128e-01,	 8.6803983178168119e+02,	 1.7186868033881202e+00,	 2.5276426616329268e+03,	 9.1138694772546267e+04,	 1.0089899139459329e+03,	 8.6030744336530707e-01 
4.3832969999999999e-01,	 1.0000000000000000e-04,	 1.3142141828867038e-01,	 7.8925946431342118e+02,	 1.8675192337025501e+00,	 2.5775877566993277e+03,	 9.7456216610375224e+04,	 1.0189097468044984e+03,	 7.7461392063060508e-01 
4.4227729999999998e-01,	 1.0000000000000000e-04,	 1.3736413516355830e-01,	 7.1529790168326417e+02,	 1.6843925827488855e+00,	 2.6193775258525266e+03,	 1.0351454812786143e+05,	 1.0271361987162825e+03,	 6.9640217703262808e-01 
4.4626250000000001e-01,	 1.0000000000000000e-04,	 1.4269995473612293e-01,	 6.5502309148309200e+02,	 1.2338673203263437e+00,	 2.6498255251956975e+03,	 1.0878550999075144e+05,	 1.0330887356082997e+03,	 6.3404452204641626e-01 
4.5028570000000001e-01,	 1.0000000000000000e-04,	 1.4715682679172176e-01,	 6.1350924070723431e+02,	 6.5131649920907064e-01,	 2.6695055891387374e+03,	 1.1301632637080469e+05,	 1.0369179768223851e+03,	 5.9166645785622551e-01 
4.5434710000000000e-01,	 1.0000000000000000e-04,	 1.5057962629613492e-01,	 5.9204302930253550e+02,	 7.1768833702675783e-02,	 2.6806461948339534e+03,	 1.1612765327845557e+05,	 1.0390794008541966e+03,	 5.6977650905775523e-01 
4.5844730000000000e-01,	 1.0000000000000000e-04,	 1.5301343145101054e-01,	 5.8901533802328117e+02,	 -4.2771712571363069e-01,	 2.6851134930932139e+03,	 1.1820126899690960e+05,	 1.0399448536122904e+03,	 5.6639108436568331e-01 
4.6258660000000001e-01,	 1.0000000000000000e-04,	 1.5452514862113725e-01,	 6.0137774966665324e+02,	 -7.7987460621063964e-01,	 2.6843040511372401e+03,	 1.1933307019040115e+05,	 1.0397880933026152e+03,	 5.7836616827584852e-01 
4.6676540000000000e-01,	 1.0000000000000000e-04,	 1.5498121721865396e-01,	 6.2460752605139237e+02,	 -1.0603561036373099e+00,	 2.6803612074556140e+03,	 1.1950947231162258e+05,	 1.0390241655930511e+03,	 6.0114908467357775e-01 
4.7098400000000001e-01,	 1.0000000000000000e-04,	 1.5429565298131392e-01,	 6.5267328693054480e+02,	 -8.6160779429455014e-01,	 2.6736430896352667e+03,	 1.1868260223326659e+05,	 1.0377212318466052e+03,	 6.2894912006589865e-01 
4.7524300000000003e-01,	 1.0000000000000000e-04,	 1.5268123528572136e-01,	 6.7708372406807280e+02,	 -5.7163124060035087e-01,	 2.6661248272730923e+03,	 1.1711056644137508e+05,	 1.0362611729241960e+03,	 6.5339123288641521e-01 
4.7954269999999999e-01,	 1.0000000000000000e-04,	 1.5105369554646664e-01,	 6.8642336832342448e+02,	 2.7499852870566405e-01,	 2.6468696486879694e+03,	 1.1502542491111395e+05,	 1.0325123703410579e+03,	 6.6480890992362640e-01 
4.8388350000000002e-01,	 1.0000000000000000e-04,	 1.5453083421589237e-01,	 6.6130244744254105e+02,	 1.6549131080040114e+00,	 2.5467415169465248e+03,	 1.1322177386916196e+05,	 1.0127947016049502e+03,	 6.5295021499030770e-01 
4.8826589999999997e-01,	 1.0000000000000000e-04,	 1.8239501306166839e-01,	 5.8221768586648102e+02,	 3.3126146226316511e+00,	 2.1689557073355045e+03,	 1.1381344803015697e+05,	 9.3466144480343382e+02,	 6.2292834783710438e-01 
4.9269020000000002e-01,	 1.0000000000000000e-04,	 2.7498557165036630e-01,	 4.7288385702742352e+02,	 3.5002014760911586e+00,	 1.4838481897935510e+03,	 1.1738951705329584e+05,	 7.7307872582318089e+02,	 6.1170589098562833e-01 
4.9715690000000001e-01,	 1.0000000000000000e-04,	 4.5379675860939850e-01,	 3.8410972282973682e+02,	 2.6157473437409791e+00,	 8.9004233053153439e+02,	 1.1619889260636979e+05,	 5.9873454702929325e+02,	 6.4155080263247566e-01 
5.0166639999999996e-01,	 1.0000000000000000e-04,	 6.7107951934223276e-01,	 3.3165888314622043e+02,	 1.5799929385503420e+00,	 5.8567820516701670e+02,	 1.1307405977036935e+05,	 4.8568928010179678e+02,	 6.8287001625220278e-01 
5.0621919999999998e-01,	 1.0000000000000000e-04,	 7.8676378638279332e-01,	 3.1219437795289161e+02,	 1.1205011314460434e+00,	 4.8864649867054379e+02,	 1.1060355608240330e+05,	 4.4363559275350286e+02,	 7.0372259090330669e-01 
2.5995160000000000e-01,	 6.2156830000000007e-04,	 1.7173736490400959e-01,	 6.9039414318425258e+02,	 -7.2347966222230538e+00,	 2.8374516651465733e+03,	 1.4019199131942060e+05,	 1.0690381963945961e+03,	 6.4584413541863894e-01 
2.6224649999999999e-01,	 6.2236170000000001e-04,	 1.6781981929382975e-01,	 7.4128048538769485e+02,	 -6.2775885551633390e+00,	 2.7993351203533671e+03,	 1.3515374352470934e+05,	 1.0618335247435377e+03,	 6.9813869005634321e-01 
2.6456160000000001e-01,	 6.2316220000000009e-04,	 1.5987394499914812e-01,	 8.1070731321774338e+02,	 -4.4303873983934743e+00,	 2.7456380104332338e+03,	 1.2628474965321437e+05,	 1.0516001172365991e+03,	 7.7093888211177164e-01 
2.6689730000000000e-01,	 6.2396980000000010e-04,	 1.5212174676653667e-01,	 8.7374355896560189e+02,	 -2.7453806817687330e+00,	 2.6923878142684225e+03,	 1.1783080843571015e+05,	 1.0413525736673812e+03,	 8.3905095561831500e-01 
2.6925369999999998e-01,	 6.2478460000000007e-04,	 1.4487591281026543e-01,	 9.2989688503920524e+02,	 -1.4052500820509608e+00,	 2.6419309570446253e+03,	 1.1011527977588898e+05,	 1.0315486581561113e+03,	 9.0145815176583632e-01 
2.7163110000000001e-01,	 6.2560660000000000e-04,	 1.3844432105667198e-01,	 9.7874223226092738e+02,	 -5.7005181070112942e-01,	 2.5957207975281749e+03,	 1.0338631596447824e+05,	 1.0224874235994208e+03,	 9.5721705292373183e-01 
2.7402979999999999e-01,	 6.2643590000000004e-04,	 1.3296275200633076e-01,	 1.0205226811591048e+03,	 -2.2425680210898954e-01,	 2.5545109784138131e+03,	 9.7716455731825452e+04,	 1.0143384148190130e+03,	 1.0060968715072032e+00 
2.7644990000000003e-01,	 6.2727270000000003e-04,	 1.2842343763965744e-01,	 1.0551587249245476e+03,	 -2.4374070977051916e-02,	 2.5191214852370185e+03,	 9.3072920215700011e+04,	 1.0072877272388868e+03,	 1.0475246512715899e+00 
2.7889160000000002e-01,	 6.2811700000000008e-04,	 1.2474654540036699e-01,	 1.0831603999279139e+03,	 2.0055548533834927e-01,	 2.4897505653238959e+03,	 8.9354062935462978e+04,	 1.0013984305249800e+03,	 1.0816478091814727e+00 
2.8135529999999997e-01,	 6.2896880000000010e-04,	 1.2179609903316352e-01,	 1.1054259290659827e+03,	 3.5965926374889456e-01,	 2.4658769141239877e+03,	 8.6404171612757011e+04,	 9.9658577511637930e+02,	 1.1092130905098625e+00 
2.8384120000000002e-01,	 6.2982830000000002e-04,	 1.1936694800472383e-01,	 1.1236444581143414e+03,	 4.0045893515932784e-01,	 2.4459728637039884e+03,	 8.3997364895532446e+04,	 9.9255550823924079e+02,	 1.1320722318775012e+00 
2.8634939999999998e-01,	 6.3069550000000008e-04,	 1.1720189003387076e-01,	 1.1397888971151544e+03,	 4.4734410999495788e-01,	 2.4280391303807860e+03,	 8.1869141132089571e+04,	 9.8891013388120859e+02,	 1.1525708412235043e+00 
2.8888019999999998e-01,	 6.3157060000000001e-04,	 1.1505602381245232e-01,	 1.1556813115681662e+03,	 5.6590193523462640e-01,	 2.4100980354030426e+03,	 7.9776321577758004e+04,	 9.8524976721153519e+02,	 1.1729832257575157e+00 
2.9143390000000002e-01,	 6.3245360000000004e-04,	 1.1277734774847548e-01,	 1.1724166787777162e+03,	 7.6440285376413408e-01,	 2.3908737597770387e+03,	 7.7572619995081594e+04,	 9.8131245125948658e+02,	 1.1947437602203832e+00 
2.9401080000000002e-01,	 6.3334450000000005e-04,	 1.1034148525053276e-01,	 1.1901726625180390e+03,	 9.9874579777603478e-01,	 2.3701139997447667e+03,	 7.5238130978328467e+04,	 9.7704283525702988e+02,	 1.2181380781108144e+00 
2.9661100000000001e-01,	 6.3424360000000003e-04,	 1.0780835470181926e-01,	 1.2084964802510219e+03,	 1.2246068055189399e+00,	 2.3482843209964294e+03,	 7.2833810872282702e+04,	 9.7253295308926533e+02,	 1.2426284342119223e+00 
2.9923480000000002e-01,	 6.3515080000000007e-04,	 1.0529266203817678e-01,	 1.2265165257393182e+03,	 1.3885173631717560e+00,	 2.3263456647065377e+03,	 7.0469678305683221e+04,	 9.6797938758571570e+02,	 1.2670903197184660e+00 
3.0188250000000000e-01,	 6.3606620000000009e-04,	 1.0295074823477429e-01,	 1.2431187384680563e+03,	 1.3951994183965533e+00,	 2.3056806805804317e+03,	 6.8290234722201814e+04,	 9.6367050524967522e+02,	 1.2899839879279134e+00 
3.0455420000000000e-01,	 6.3699000000000004e-04,	 1.0091218287045112e-01,	 1.2573295651347776e+03,	 1.3511903112587909e+00,	 2.2875126457113088e+03,	 6.6410544605975010e+04,	 9.5986628695091588e+02,	 1.3099015021743181e+00 
3.0725039999999998e-01,	 6.3792220000000004e-04,	 9.9334340212728744e-02,	 1.2680151399053648e+03,	 1.1334890219040417e+00,	 2.2733647195875237e+03,	 6.4967845525100296e+04,	 9.5689336781088934e+02,	 1.3251378776128984e+00 
3.0997120000000000e-01,	 6.3886300000000004e-04,	 9.8396540254736209e-02,	 1.2738742378468846e+03,	 7.2967538320288106e-01,	 2.2649968275930983e+03,	 6.4117615662030745e+04,	 9.5513065851866736e+02,	 1.3337174714940461e+00 
3.1271680000000002e-01,	 6.3981230000000001e-04,	 9.8285954219012192e-02,	 1.2736200860681859e+03,	 1.5620100584411412e-01,	 2.2641858955509438e+03,	 6.4022624974938502e+04,	 9.5495966150319987e+02,	 1.3336899420881181e+00 
3.1548769999999998e-01,	 6.4077030000000003e-04,	 9.9168195178690230e-02,	 1.2662218017098876e+03,	 -5.0420093825805556e-01,	 2.2721942069797701e+03,	 6.4825786573346653e+04,	 9.5664699292157457e+02,	 1.3236041209177625e+00 
3.1828390000000001e-01,	 6.4173710000000001e-04,	 1.0121961859512892e-01,	 1.2504644374468312e+03,	 -1.1732162016838299e+00,	 2.2903772442465147e+03,	 6.6696286514755455e+04,	 9.6046710795151500e+02,	 1.3019342124934556e+00 
3.2110580000000000e-01,	 6.4271290000000002e-04,	 1.0461432951281843e-01,	 1.2251414006533614e+03,	 -1.7894433641342997e+00,	 2.3199108710790006e+03,	 6.9822020693732265e+04,	 9.6663971977171411e+02,	 1.2674243385879362e+00 
3.2395370000000001e-01,	 6.4369749999999999e-04,	 1.0939331546728226e-01,	 1.1898641093910610e+03,	 -1.9464564579710861e+00,	 2.3606078849847495e+03,	 7.4292432086476314e+04,	 9.7508149224553711e+02,	 1.2202730858108473e+00 
3.2682780000000000e-01,	 6.4469130000000007e-04,	 1.1540909657940789e-01,	 1.1453860543792116e+03,	 -1.6203747270764710e+00,	 2.4106077668437638e+03,	 8.0038055742893557e+04,	 9.8535395098839081e+02,	 1.1624119428350754e+00 
3.2972839999999998e-01,	 6.4569420000000000e-04,	 1.2244344626222819e-01,	 1.0928594459673045e+03,	 -9.9857846272134920e-01,	 2.4676571819724268e+03,	 8.6926122493719085e+04,	 9.9694545841909144e+02,	 1.0962083160655192e+00 
3.3265580000000000e-01,	 6.4670640000000007e-04,	 1.3011662793464590e-01,	 1.0330456633869073e+03,	 3.5880796008178739e-01,	 2.5293842528678574e+03,	 9.4684207307014178e+04,	 1.0093374601848261e+03,	 1.0234889384865975e+00 
3.3561020000000003e-01,	 6.4772790000000005e-04,	 1.3777010775231266e-01,	 9.6780309485435498e+02,	 1.9263033424389755e+00,	 2.5923869578321828e+03,	 1.0275069389198306e+05,	 1.0218305917085268e+03,	 9.4712863340631426e-01 
3.3859200000000000e-01,	 6.4875890000000002e-04,	 1.4485549421336830e-01,	 9.0326656522234316e+02,	 2.8221464117280908e+00,	 2.6505320491208158e+03,	 1.1045820197315192e+05,	 1.0332264528380799e+03,	 8.7422362392765229e-01 
3.4160150000000000e-01,	 6.4979940000000009e-04,	 1.5108153599649313e-01,	 8.4486342478592928e+02,	 2.9331267254669573e+00,	 2.6996984635576800e+03,	 1.1734283818764922e+05,	 1.0427654092441296e+03,	 8.1021916221404522e-01 
3.4463880000000002e-01,	 6.5084960000000010e-04,	 1.5615288601319646e-01,	 7.9617187212899989e+02,	 2.6875358280700619e+00,	 2.7380528862887618e+03,	 1.2300472237983537e+05,	 1.0501465326723485e+03,	 7.5815744120580242e-01 
3.4770430000000002e-01,	 6.5190950000000006e-04,	 1.5995185217403560e-01,	 7.5831896944925677e+02,	 2.2329059314712199e+00,	 2.7660452604834832e+03,	 1.2728537107728998e+05,	 1.0555009478516974e+03,	 7.1844772705692972e-01 
3.5079840000000001e-01,	 6.5297930000000003e-04,	 1.6256322705556486e-01,	 7.3072660874305245e+02,	 1.6962872174660981e+00,	 2.7852226968436348e+03,	 1.3026033026721302e+05,	 1.0591536065278397e+03,	 6.8991747098089529e-01 
3.5392119999999999e-01,	 6.5405910000000005e-04,	 1.6408247730242087e-01,	 7.1251254137316459e+02,	 1.1660972208077875e+00,	 2.7969035711052757e+03,	 1.3202909161623596e+05,	 1.0613722613878169e+03,	 6.7131346984474893e-01 
3.5707319999999998e-01,	 6.5514890000000002e-04,	 1.6463673820373037e-01,	 7.0248468260585901e+02,	 6.8233518888388134e-01,	 2.8022379115849026e+03,	 1.3272773861871666e+05,	 1.0623839201549458e+03,	 6.6123460705725723e-01 
3.6025449999999998e-01,	 6.5624890000000010e-04,	 1.6436591766282987e-01,	 6.9960696360191525e+02,	 2.2536445446818743e-01,	 2.8019881065988175e+03,	 1.3249759451922897e+05,	 1.0623365660894565e+03,	 6.5855494598624065e-01 
3.6346560000000000e-01,	 6.5735910000000008e-04,	 1.6339768351657252e-01,	 7.0322565692995477e+02,	 -1.7536066911647163e-01,	 2.7965473731700276e+03,	 1.3146132746051159e+05,	 1.0613046740298607e+03,	 6.6260490130911764e-01 
3.6670659999999999e-01,	 6.5847970000000003e-04,	 1.6184421225180248e-01,	 7.1267223132657500e+02,	 -5.3637745348915677e-01,	 2.7863449517560953e+03,	 1.2973644459895598e+05,	 1.0593669683944113e+03,	 6.7273424076377231e-01 
3.6997799999999997e-01,	 6.5961080000000009e-04,	 1.5977058729927127e-01,	 7.2749864659756327e+02,	 -8.6801299556735056e-01,	 2.7716484852021958e+03,	 1.2739867730793674e+05,	 1.0565694800603987e+03,	 6.8854834268868192e-01 
3.7328000000000000e-01,	 6.6075250000000008e-04,	 1.5718604077983495e-01,	 7.4740683124444240e+02,	 -1.1236511019301205e+00,	 2.7526045707190015e+03,	 1.2447660626528137e+05,	 1.0529333946658967e+03,	 7.0983376505919404e-01 
3.7661299999999998e-01,	 6.6190490000000003e-04,	 1.5408269695440815e-01,	 7.7206438841390843e+02,	 -1.2931464990591359e+00,	 2.7293367341566945e+03,	 1.2098761880117936e+05,	 1.0484737138110775e+03,	 7.3637084192182189e-01 
3.7997720000000001e-01,	 6.6306810000000009e-04,	 1.5045237922860408e-01,	 8.0097159941602240e+02,	 -1.2917562550282613e+00,	 2.7019949584808355e+03,	 1.1695358310392448e+05,	 1.0432088284729653e+03,	 7.6779703083909512e-01 
3.8337300000000002e-01,	 6.6424229999999999e-04,	 1.4632723728765390e-01,	 8.3339468928432871e+02,	 -1.2244632392764081e+00,	 2.6709241484280274e+03,	 1.1243891992438439e+05,	 1.0371934462342754e+03,	 8.0351027267820407e-01 
3.8680080000000000e-01,	 6.6542750000000007e-04,	 1.4176830719642164e-01,	 8.6843744135144664e+02,	 -9.9713693019668059e-01,	 2.6365673698525211e+03,	 1.0753453563985236e+05,	 1.0305010130328408e+03,	 8.4273377980483921e-01 
3.9026070000000002e-01,	 6.6662380000000003e-04,	 1.3692148459473757e-01,	 9.0477561913738009e+02,	 -7.0533871769406531e-01,	 2.5998515654487642e+03,	 1.0241182140293914e+05,	 1.0233006811792023e+03,	 8.8417403673205530e-01 
3.9375329999999997e-01,	 6.6783140000000005e-04,	 1.3195343209912891e-01,	 9.4133068409474947e+02,	 -3.8324570737413960e-01,	 2.5615983674370386e+03,	 9.7243742786841423e+04,	 1.0157445609477392e+03,	 9.2673965315867068e-01 
3.9727879999999999e-01,	 6.6905030000000002e-04,	 1.2702148194033683e-01,	 9.7726340740245632e+02,	 -7.9279407554083400e-02,	 2.5226279443470371e+03,	 9.2185011682382625e+04,	 1.0079885241273493e+03,	 9.6951838957118508e-01 
4.0083750000000001e-01,	 6.7028080000000004e-04,	 1.2237739984193811e-01,	 1.0111521617720713e+03,	 2.0400464828986983e-01,	 2.4845563493630957e+03,	 8.7474206157513196e+04,	 1.0003533066679774e+03,	 1.0107950617162511e+00 
4.0442980000000001e-01,	 6.7152280000000008e-04,	 1.1822815626586711e-01,	 1.0410413877688329e+03,	 3.9326231078418611e-01,	 2.4493675874640794e+03,	 8.3311474493359390e+04,	 9.9324404479795032e+02,	 1.0481225309130426e+00 
4.0805599999999997e-01,	 6.7277660000000003e-04,	 1.1477700232767771e-01,	 1.0652255966408547e+03,	 5.8421415755005601e-01,	 2.4190173966001439e+03,	 7.9877379189532439e+04,	 9.8707120411761298e+02,	 1.0791782319258356e+00 
4.1171649999999999e-01,	 6.7404230000000002e-04,	 1.1224315335757289e-01,	 1.0815299793041340e+03,	 7.6245300181190745e-01,	 2.3959317952000788e+03,	 7.7368512584041251e+04,	 9.8234991522861446e+02,	 1.1009623264517232e+00 
4.1541169999999999e-01,	 6.7531990000000005e-04,	 1.1084926257162817e-01,	 1.0878890200424846e+03,	 8.1694374839080763e-01,	 2.3820337958956397e+03,	 7.5964496678366035e+04,	 9.7949662975894182e+02,	 1.1106616334654307e+00 
4.1914180000000001e-01,	 6.7660970000000002e-04,	 1.1096650525900861e-01,	 1.0818512247622232e+03,	 8.0444750937701781e-01,	 2.3810383633909123e+03,	 7.6013064040275975e+04,	 9.7929194654453477e+02,	 1.1047282964664142e+00 
4.2290729999999999e-01,	 6.7791160000000000e-04,	 1.1256746966842231e-01,	 1.0623535370146092e+03,	 9.4968071354205041e-01,	 2.3930768697708299e+03,	 7.7499605280301723e+04,	 9.8176447041153483e+02,	 1.0820863796875559e+00 