TITLE = "Final State"
VARIABLES = "X", "Y", "rho", "u", "v", "T", "p", "c", "M"
ZONE I=102, J=27, DATAPACKING=POINT, STRANDID=44000, SOLUTIONTIME=0.001062
1.0567150000000001e+00,	 2.6685149999999996e-01,	 4.8001705641127261e-02,	 1.4679267357145384e+03,	 -3.1227053409086931e+01,	 7.1939179405701657e+02,	 9.9346389068734206e+03,	 5.3828431652676431e+02,	 2.7276641692932579e+00 
1.0574060000000001e+00,	 2.6683689999999999e-01,	 4.8035023797374239e-02,	 1.4678548060133066e+03,	 -3.1227870238657808e+01,	 7.1951923924879020e+02,	 9.9432957864662349e+03,	 5.3833199479503674e+02,	 2.7272890358011801e+00 
1.0581020000000001e+00,	 2.6682220000000001e-01,	 4.8073428401296033e-02,	 1.4677564499877458e+03,	 -3.1238553514313498e+01,	 7.1966454808986646e+02,	 9.9532552568906303e+03,	 5.3838635084627424e+02,	 2.7268314626259360e+00 
1.0588010000000001e+00,	 2.6680739999999997e-01,	 4.8109719958797592e-02,	 1.4676586572277715e+03,	 -3.1261358339077695e+01,	 7.1980731377248890e+02,	 9.9627451595070579e+03,	 5.3843975022761560e+02,	 2.7263803512971219e+00 
1.0595049999999999e+00,	 2.6679249999999999e-01,	 4.8147968202393004e-02,	 1.4675635756760994e+03,	 -3.1273266523176261e+01,	 7.1995017766028184e+02,	 9.9726446820557394e+03,	 5.3849318104035569e+02,	 2.7259337735842823e+00 
1.0602130000000001e+00,	 2.6677750000000000e-01,	 4.8188346041351540e-02,	 1.4674561205477964e+03,	 -3.1256177591027605e+01,	 7.2011494167218200e+02,	 9.9832921402329339e+03,	 5.3855479587425589e+02,	 2.7254217501103613e+00 
1.0609249999999999e+00,	 2.6676250000000001e-01,	 4.8234113313570179e-02,	 1.4673435160225213e+03,	 -3.1203799172881517e+01,	 7.2029416703938523e+02,	 9.9952608982714482e+03,	 5.3862181064541562e+02,	 2.7248715736521962e+00 
1.0616410000000001e+00,	 2.6674739999999997e-01,	 4.8272706956699538e-02,	 1.4672391055858004e+03,	 -3.1222053392073949e+01,	 7.2044754747148954e+02,	 1.0005388531003155e+04,	 5.3867915502797405e+02,	 2.7243884387996156e+00 
1.0623620000000000e+00,	 2.6673209999999997e-01,	 4.8308645169432694e-02,	 1.4671383333439912e+03,	 -3.1245425129507083e+01,	 7.2059075818264932e+02,	 1.0014827727168400e+04,	 5.3873269174402242e+02,	 2.7239316133630180e+00 
1.0630869999999999e+00,	 2.6671679999999998e-01,	 4.8353416575979934e-02,	 1.4670249645191973e+03,	 -3.1214073628383726e+01,	 7.2076728896801740e+02,	 1.0026564965406465e+04,	 5.3879867724287715e+02,	 2.7233864183311685e+00 
1.0638170000000000e+00,	 2.6670139999999998e-01,	 4.8395704738331741e-02,	 1.4669140354314286e+03,	 -3.1204326604104402e+01,	 7.2093547968635562e+02,	 1.0037675579769739e+04,	 5.3886153778884000e+02,	 2.7228625270398643e+00 
1.0645500000000001e+00,	 2.6668589999999998e-01,	 4.8436286441100762e-02,	 1.4668051436561016e+03,	 -3.1208706425998599e+01,	 7.2109615274354042e+02,	 1.0048331512825938e+04,	 5.3892158179392584e+02,	 2.7223573226367046e+00 
1.0652889999999999e+00,	 2.6667029999999997e-01,	 4.8479367776753574e-02,	 1.4666915491799687e+03,	 -3.1204239407036212e+01,	 7.2126726562980434e+02,	 1.0059655479903086e+04,	 5.3898551983949199e+02,	 2.7218234938245964e+00 
1.0660320000000001e+00,	 2.6665459999999996e-01,	 4.8521624466429873e-02,	 1.4665774394261127e+03,	 -3.1206228479448619e+01,	 7.2143731540613726e+02,	 1.0070797690463529e+04,	 5.3904905313004190e+02,	 2.7212911340632897e+00 
1.0667800000000001e+00,	 2.6663880000000001e-01,	 4.8564676621850073e-02,	 1.4664628204231271e+03,	 -3.1209808772177674e+01,	 7.2160864800071931e+02,	 1.0082127098841973e+04,	 5.3911305812961825e+02,	 2.7207556376213669e+00 
1.0675319999999999e+00,	 2.6662290000000000e-01,	 4.8607477451884901e-02,	 1.4663462953411417e+03,	 -3.1217767131545102e+01,	 7.2178173137064528e+02,	 1.0093433046286544e+04,	 5.3917770945442680e+02,	 2.7202136460269095e+00 
1.0682890000000000e+00,	 2.6660689999999998e-01,	 4.8651953793257312e-02,	 1.4662253930387997e+03,	 -3.1216493450791361e+01,	 7.2196321459627029e+02,	 1.0105208834234179e+04,	 5.3924549002818765e+02,	 2.7196475223054395e+00 
1.0690510000000000e+00,	 2.6659080000000002e-01,	 4.8698053279827527e-02,	 1.4661065506124642e+03,	 -3.1210165267770336e+01,	 7.2214308345943721e+02,	 1.0117303867753590e+04,	 5.3931265926260835e+02,	 2.7190882422073628e+00 
1.0698179999999999e+00,	 2.6657459999999999e-01,	 4.8744900808391577e-02,	 1.4659833275739718e+03,	 -3.1204475862793153e+01,	 7.2232920697609461e+02,	 1.0129646833766896e+04,	 5.3938215539433304e+02,	 2.7185092791785932e+00 
1.0705899999999999e+00,	 2.6655829999999997e-01,	 4.8788706139644186e-02,	 1.4658662518722972e+03,	 -3.1239044301724455e+01,	 7.2250078043595181e+02,	 1.0141158229474533e+04,	 5.3944621079103842e+02,	 2.7179708598552343e+00 
1.0713660000000000e+00,	 2.6654180000000000e-01,	 4.8830729272264728e-02,	 1.4657475872452694e+03,	 -3.1265717372574702e+01,	 7.2267142300208934e+02,	 1.0152290338732972e+04,	 5.3950991110356642e+02,	 2.7174311020374660e+00 
1.0721480000000001e+00,	 2.6652529999999997e-01,	 4.8884850192180418e-02,	 1.4656083198169090e+03,	 -3.1217166129360223e+01,	 7.2289112573140687e+02,	 1.0166632367293674e+04,	 5.3959191434093532e+02,	 2.7167581701581751e+00 
1.0729350000000000e+00,	 2.6650869999999999e-01,	 4.8936079546409633e-02,	 1.4654707210246906e+03,	 -3.1190081871473424e+01,	 7.2310098274645441e+02,	 1.0180241079096428e+04,	 5.3967023106623196e+02,	 2.7161079364922895e+00 
1.0737260000000000e+00,	 2.6649200000000001e-01,	 4.8983470659586525e-02,	 1.4653416023014884e+03,	 -3.1215007098445529e+01,	 7.2328958716438808e+02,	 1.0192757774077341e+04,	 5.3974060682015738e+02,	 2.7155156019593818e+00 
1.0745229999999999e+00,	 2.6647509999999996e-01,	 4.9031738740479357e-02,	 1.4652086305724470e+03,	 -3.1209979313817854e+01,	 7.2348447657894963e+02,	 1.0205550800802021e+04,	 5.3981331811580662e+02,	 2.7149033582582094e+00 
1.0753260000000000e+00,	 2.6645819999999998e-01,	 4.9086602041793763e-02,	 1.4650690915228015e+03,	 -3.1195282253074033e+01,	 7.2369970123602775e+02,	 1.0220009522622720e+04,	 5.3989360490898059e+02,	 2.7142406513366306e+00 
1.0761330000000000e+00,	 2.6644109999999999e-01,	 4.9133163662070836e-02,	 1.4649385347260445e+03,	 -3.1229598354104152e+01,	 7.2388737414124660e+02,	 1.0232356632331434e+04,	 5.3996360413180480e+02,	 2.7136484059365831e+00 
1.0769460000000000e+00,	 2.6642389999999999e-01,	 4.9185548312428523e-02,	 1.4648032150572283e+03,	 -3.1234730346769933e+01,	 7.2409069820215120e+02,	 1.0246143244335957e+04,	 5.4003943076485996e+02,	 2.7130170699040801e+00 
1.0777639999999999e+00,	 2.6640659999999999e-01,	 4.9239416470687608e-02,	 1.4646558064482729e+03,	 -3.1221879774468860e+01,	 7.2431346996931961e+02,	 1.0260520603642190e+04,	 5.4012249790467797e+02,	 2.7123264643430858e+00 
1.0785880000000001e+00,	 2.6638919999999999e-01,	 4.9295740699007981e-02,	 1.4645073471942992e+03,	 -3.1198672370127149e+01,	 7.2453926724965254e+02,	 1.0275459729614282e+04,	 5.4020668016333229e+02,	 2.7116281209561492e+00 
1.0794170000000001e+00,	 2.6637169999999999e-01,	 4.9352529412568305e-02,	 1.4643545174989979e+03,	 -3.1173759644027371e+01,	 7.2476965149481748e+02,	 1.0290568150712186e+04,	 5.4029255902600084e+02,	 2.7109133285707183e+00 
1.0802520000000000e+00,	 2.6635409999999998e-01,	 4.9407767636620040e-02,	 1.4642068799239121e+03,	 -3.1182874767664536e+01,	 7.2498894052730725e+02,	 1.0305202991552391e+04,	 5.4037428931898796e+02,	 2.7102305169967802e+00 
1.0810919999999999e+00,	 2.6633629999999997e-01,	 4.9458439352637391e-02,	 1.4640652006254982e+03,	 -3.1222966235753074e+01,	 7.2519205510343204e+02,	 1.0318661912471545e+04,	 5.4044998027243491e+02,	 2.7095904339826395e+00 
1.0819380000000001e+00,	 2.6631840000000001e-01,	 4.9515591607181400e-02,	 1.4639151631630880e+03,	 -3.1221262146215281e+01,	 7.2541822542666091e+02,	 1.0333807624431116e+04,	 5.4053425051291549e+02,	 2.7088904274153576e+00 
1.0827899999999999e+00,	 2.6630039999999999e-01,	 4.9575287244283603e-02,	 1.4637522833059286e+03,	 -3.1193605726151802e+01,	 7.2566623094157626e+02,	 1.0349803162483873e+04,	 5.4062664136738249e+02,	 2.7081251876036441e+00 
1.0836479999999999e+00,	 2.6628229999999997e-01,	 4.9636420627663574e-02,	 1.4635918143481244e+03,	 -3.1163215975299135e+01,	 7.2591021003307890e+02,	 1.0366049981451102e+04,	 5.4071751683206196e+02,	 2.7073721476408070e+00 
1.0845110000000000e+00,	 2.6626410000000000e-01,	 4.9694522401556210e-02,	 1.4634355673418440e+03,	 -3.1172707752682197e+01,	 7.2614178156174887e+02,	 1.0381494661289473e+04,	 5.4080375669731552e+02,	 2.7066519364873773e+00 
1.0853800000000000e+00,	 2.6624569999999997e-01,	 4.9750404157170879e-02,	 1.4632835883346270e+03,	 -3.1191460811557548e+01,	 7.2636318749331622e+02,	 1.0396337660463601e+04,	 5.4088619792077520e+02,	 2.7059592127607344e+00 
1.0862560000000001e+00,	 2.6622720000000000e-01,	 4.9811420586304500e-02,	 1.4631190820587094e+03,	 -3.1176816189550124e+01,	 7.2661179149895383e+02,	 1.0412650857763139e+04,	 5.4097875146293279e+02,	 2.7051916649108190e+00 
1.0871370000000000e+00,	 2.6620859999999996e-01,	 4.9871057665474713e-02,	 1.4629625328401551e+03,	 -3.1181599649653648e+01,	 7.2684635333462415e+02,	 1.0428482872022400e+04,	 5.4106606268700875e+02,	 2.7044660504523135e+00 
1.0880250000000000e+00,	 2.6618979999999998e-01,	 4.9928590842332213e-02,	 1.4628061194456625e+03,	 -3.1196393584586716e+01,	 7.2707659351565292e+02,	 1.0443820771620685e+04,	 5.4115175155641066e+02,	 2.7037494212320556e+00 
1.0889190000000000e+00,	 2.6617089999999999e-01,	 4.9990386609080936e-02,	 1.4626424770886986e+03,	 -3.1181208908424878e+01,	 7.2732396394222246e+02,	 1.0460304568878175e+04,	 5.4124380069997085e+02,	 2.7029867211542018e+00 
1.0898190000000001e+00,	 2.6615190000000000e-01,	 5.0054311981271485e-02,	 1.4624762953240870e+03,	 -3.1148673584988714e+01,	 7.2757727393551136e+02,	 1.0477328456941777e+04,	 5.4133804379864432e+02,	 2.7022079563501245e+00 
1.0907249999999999e+00,	 2.6613280000000000e-01,	 5.0116587456489191e-02,	 1.4623125771511718e+03,	 -3.1134353782699137e+01,	 7.2782351876988503e+02,	 1.0493914319894482e+04,	 5.4142964260525764e+02,	 2.7014479223111088e+00 
1.0916380000000001e+00,	 2.6611350000000000e-01,	 5.0172702509919800e-02,	 1.4621614822044394e+03,	 -3.1176664480627807e+01,	 7.2804239643835103e+02,	 1.0508823611583624e+04,	 5.4151104829391829e+02,	 2.7007645150332888e+00 
1.0925570000000000e+00,	 2.6609400000000000e-01,	 5.0230794658897820e-02,	 1.4620073230767630e+03,	 -3.1181920401933578e+01,	 7.2826950673632837e+02,	 1.0524273173777958e+04,	 5.4159550295385566e+02,	 2.7000589992473945e+00 
1.0934820000000001e+00,	 2.6607449999999999e-01,	 5.0296682688174180e-02,	 1.4618417013333856e+03,	 -3.1143204122230028e+01,	 7.2852683194226381e+02,	 1.0541801427048509e+04,	 5.4169117760752408e+02,	 2.6992749059308450e+00 
1.0944140000000000e+00,	 2.6605479999999998e-01,	 5.0354709024407404e-02,	 1.4616873538268915e+03,	 -3.1156284072348662e+01,	 7.2875430111156891e+02,	 1.0557258586834592e+04,	 5.4177573758537585e+02,	 2.6985692921372118e+00 
1.0953530000000000e+00,	 2.6603489999999996e-01,	 5.0414215365180468e-02,	 1.4615247221991015e+03,	 -3.1148247854323145e+01,	 7.2899509564708922e+02,	 1.0573227001606250e+04,	 5.4186523679129425e+02,	 2.6978231919543778e+00 
1.0962980000000000e+00,	 2.6601500000000000e-01,	 5.0478835170338798e-02,	 1.4613662098578475e+03,	 -3.1123251250652288e+01,	 7.2923937564248195e+02,	 1.0590327064598467e+04,	 5.4195601638051721e+02,	 2.6970778988410400e+00 
1.0972510000000000e+00,	 2.6599479999999998e-01,	 5.0536103598776007e-02,	 1.4612061071799458e+03,	 -3.1128012798916000e+01,	 7.2947259094340177e+02,	 1.0605732525550327e+04,	 5.4204266991021541e+02,	 2.6963516159963139e+00 
1.0982099999999999e+00,	 2.6597460000000001e-01,	 5.0601870133470506e-02,	 1.4610434047525905e+03,	 -3.1088949984749078e+01,	 7.2972369731425488e+02,	 1.0623190147097783e+04,	 5.4213595556486166e+02,	 2.6955860737476849e+00 
1.0991759999999999e+00,	 2.6595419999999997e-01,	 5.0659226125152806e-02,	 1.4608940790957363e+03,	 -3.1111244299951366e+01,	 7.2994239718875770e+02,	 1.0638418678636619e+04,	 5.4221718917674582e+02,	 2.6949077670532104e+00 
1.1001479999999999e+00,	 2.6593359999999999e-01,	 5.0715637658725096e-02,	 1.4607434094282148e+03,	 -3.1129870993323479e+01,	 7.3016166079466882e+02,	 1.0653464257561278e+04,	 5.4229861996485317e+02,	 2.6942260628866075e+00 
1.1011280000000001e+00,	 2.6591290000000001e-01,	 5.0777029710396798e-02,	 1.4605872008515785e+03,	 -3.1123800690873885e+01,	 7.3039854119695201e+02,	 1.0669820838739843e+04,	 5.4238657959423426e+02,	 2.6935009609206921e+00 
1.1021150000000000e+00,	 2.6589199999999996e-01,	 5.0836252118389783e-02,	 1.4604321470735968e+03,	 -3.1124293004995415e+01,	 7.3062889288038627e+02,	 1.0685634246395370e+04,	 5.4247210126862217e+02,	 2.6927905818898670e+00 
1.1031089999999999e+00,	 2.6587099999999997e-01,	 5.0901315962045460e-02,	 1.4602646508415990e+03,	 -3.1080896899026591e+01,	 7.3088460917254110e+02,	 1.0703055182258728e+04,	 5.4256702416318728e+02,	 2.6920091304612725e+00 
1.1041110000000001e+00,	 2.6584989999999997e-01,	 5.0966324898208348e-02,	 1.4601005227947119e+03,	 -3.1048538463456374e+01,	 7.3113432585190299e+02,	 1.0720386171483946e+04,	 5.4265970395357317e+02,	 2.6912457164636798e+00 
1.1051190000000000e+00,	 2.6582859999999997e-01,	 5.1024074816871080e-02,	 1.4599479106923732e+03,	 -3.1074329835690961e+01,	 7.3135507745775794e+02,	 1.0735773913022826e+04,	 5.4274162047419452e+02,	 2.6905594110995836e+00 
1.1061350000000001e+00,	 2.6580709999999996e-01,	 5.1084173965942559e-02,	 1.4597883069180120e+03,	 -3.1074652929220441e+01,	 7.3159011819593763e+02,	 1.0751873432688688e+04,	 5.4282882581908632e+02,	 2.6898332302182362e+00 
1.1071590000000000e+00,	 2.6578550000000001e-01,	 5.1148021322840895e-02,	 1.4596247959302773e+03,	 -3.1061924430136489e+01,	 7.3183784641737793e+02,	 1.0768956928298972e+04,	 5.4292072334092325e+02,	 2.6890763355076919e+00 
1.1081900000000000e+00,	 2.6576369999999999e-01,	 5.1207372011336828e-02,	 1.4594710166943330e+03,	 -3.1085276581077760e+01,	 7.3206371560760135e+02,	 1.0784780425662917e+04,	 5.4300449845883884e+02,	 2.6883792417761203e+00 
1.1092290000000000e+00,	 2.6574169999999997e-01,	 5.1268634929034912e-02,	 1.4593143781380008e+03,	 -3.1092924958725934e+01,	 7.3229598418685782e+02,	 1.0801108883808434e+04,	 5.4309063363959126e+02,	 2.6876648045537310e+00 
1.1102749999999999e+00,	 2.6571960000000000e-01,	 5.1332968518127298e-02,	 1.4591491963075298e+03,	 -3.1082110218027236e+01,	 7.3254540058041289e+02,	 1.0818345895244804e+04,	 5.4318311275883968e+02,	 2.6869027639675958e+00 
1.1113290000000000e+00,	 2.6569729999999997e-01,	 5.1397220944684650e-02,	 1.4589820226747584e+03,	 -3.1068302718674289e+01,	 7.3279501618091558e+02,	 1.0835577974149212e+04,	 5.4327564997932018e+02,	 2.6861369128763202e+00 
1.1123909999999999e+00,	 2.6567489999999999e-01,	 5.1464355648542480e-02,	 1.4588129253985917e+03,	 -3.1046453829734766e+01,	 7.3305125010625147e+02,	 1.0853525121548008e+04,	 5.4337062434629604e+02,	 2.6853554239149990e+00 
1.1134599999999999e+00,	 2.6565230000000001e-01,	 5.1526590606354547e-02,	 1.4586472703861505e+03,	 -3.1055978698447909e+01,	 7.3329369965073033e+02,	 1.0870244140749059e+04,	 5.4346047418231456e+02,	 2.6846070833202664e+00 
1.1145380000000000e+00,	 2.6562949999999996e-01,	 5.1592128669764412e-02,	 1.4584767178335396e+03,	 -3.1045805480777961e+01,	 7.3354727635281733e+02,	 1.0887834065137691e+04,	 5.4355443176242636e+02,	 2.6838289282658589e+00 
1.1156239999999999e+00,	 2.6560659999999997e-01,	 5.1660513940634659e-02,	 1.4583026367442371e+03,	 -3.1025367131446174e+01,	 7.3381066779613593e+02,	 1.0906180495411012e+04,	 5.4365200879774113e+02,	 2.6830262887241161e+00 
1.1167170000000000e+00,	 2.6558349999999997e-01,	 5.1724668992949460e-02,	 1.4581372458275168e+03,	 -3.1037209125292136e+01,	 7.3405352548124756e+02,	 1.0923338357304603e+04,	 5.4374196329962376e+02,	 2.6822787800562855e+00 
1.1178189999999999e+00,	 2.6556019999999997e-01,	 5.1790010113678855e-02,	 1.4579709602998330e+03,	 -3.1049346056838345e+01,	 7.3429936329902193e+02,	 1.0940800146571950e+04,	 5.4383300648861302e+02,	 2.6815245177862579e+00 
1.1189300000000000e+00,	 2.6553670000000001e-01,	 5.1857624688219070e-02,	 1.4577961544100115e+03,	 -3.1043770533852932e+01,	 7.3456005426707679e+02,	 1.0958973209017264e+04,	 5.4392953372207830e+02,	 2.6807271256805163e+00 
1.1200479999999999e+00,	 2.6551310000000000e-01,	 5.1928163603526672e-02,	 1.4576144075324919e+03,	 -3.1019931094797116e+01,	 7.3483401123022111e+02,	 1.0977972814111372e+04,	 5.4403095455974858e+02,	 2.6798924403037532e+00 
1.1211750000000000e+00,	 2.6548929999999998e-01,	 5.1997254701849974e-02,	 1.4574368381177239e+03,	 -3.1015421603448871e+01,	 7.3509770719047447e+02,	 1.0996523848615028e+04,	 5.4412855884520923e+02,	 2.6790852888614638e+00 
1.1223110000000001e+00,	 2.6546530000000002e-01,	 5.2065742372164381e-02,	 1.4572617802687591e+03,	 -3.1025690682759109e+01,	 7.3535632882816310e+02,	 1.1014881697572684e+04,	 5.4422426792067949e+02,	 2.6782929455710183e+00 
1.1234550000000001e+00,	 2.6544109999999999e-01,	 5.2133216352534928e-02,	 1.4570867615215820e+03,	 -3.1050687032469032e+01,	 7.3561327435094017e+02,	 1.1033010070184695e+04,	 5.4431934004451659e+02,	 2.6775046624499992e+00 
1.1246069999999999e+00,	 2.6541670000000001e-01,	 5.2204610974477705e-02,	 1.4569010916028656e+03,	 -3.1037480587643913e+01,	 7.3588928368877396e+02,	 1.1052264755854363e+04,	 5.4442144745331143e+02,	 2.6766610105739184e+00 
1.1257690000000000e+00,	 2.6539219999999997e-01,	 5.2279520519991809e-02,	 1.4567105957356935e+03,	 -3.1030157369036662e+01,	 7.3617807401818777e+02,	 1.1072467437397265e+04,	 5.4452826258879338e+02,	 2.6757859108447115e+00 
1.1269389999999999e+00,	 2.6536739999999998e-01,	 5.2349014208056377e-02,	 1.4565256584817585e+03,	 -3.1044105891548142e+01,	 7.3644647411518281e+02,	 1.1091227986075570e+04,	 5.4462751718825427e+02,	 2.6749593235211884e+00 
1.1281180000000000e+00,	 2.6534249999999998e-01,	 5.2427274812172533e-02,	 1.4563296725305452e+03,	 -3.1012906696355532e+01,	 7.3674318044509778e+02,	 1.1112284339893920e+04,	 5.4473721841202951e+02,	 2.6740597111628706e+00 
1.1293070000000001e+00,	 2.6531739999999998e-01,	 5.2503718463441346e-02,	 1.4561335665591707e+03,	 -3.0999602023338049e+01,	 7.3703575024724739e+02,	 1.1132906302826370e+04,	 5.4484536860959736e+02,	 2.6731685503523841e+00 
1.1305040000000000e+00,	 2.6529209999999998e-01,	 5.2578250761147180e-02,	 1.4559397945446099e+03,	 -3.1008139300465384e+01,	 7.3732061599501151e+02,	 1.1153019154667401e+04,	 5.4495065033383037e+02,	 2.6722969445495690e+00 
1.1317100000000000e+00,	 2.6526659999999996e-01,	 5.2654427163776829e-02,	 1.4557436106449991e+03,	 -3.1011472702723900e+01,	 7.3761104834807065e+02,	 1.1173577433785389e+04,	 5.4505796844853683e+02,	 2.6714110675932239e+00 
1.1329260000000001e+00,	 2.6524090000000000e-01,	 5.2732072034793673e-02,	 1.4555420079289484e+03,	 -3.1006617372279440e+01,	 7.3791092887931495e+02,	 1.1194603518292261e+04,	 5.4516875560644041e+02,	 2.6704982888797311e+00 
1.1341509999999999e+00,	 2.6521499999999998e-01,	 5.2812056206866867e-02,	 1.4553320268807670e+03,	 -3.0983025511806233e+01,	 7.3822375728136217e+02,	 1.1216336543043897e+04,	 5.4528430220751000e+02,	 2.6695464867764094e+00 
1.1353850000000001e+00,	 2.6518900000000001e-01,	 5.2894685367453356e-02,	 1.4551272308130174e+03,	 -3.0960573305965884e+01,	 7.3853343514717926e+02,	 1.1238598007914266e+04,	 5.4539866101266023e+02,	 2.6686104492911489e+00 
1.1366289999999999e+00,	 2.6516269999999997e-01,	 5.2970691949061129e-02,	 1.4549276348418373e+03,	 -3.0975257329820749e+01,	 7.3882454312715686e+02,	 1.1259183506181527e+04,	 5.4550614041198094e+02,	 2.6677194254568817e+00 
1.1378830000000000e+00,	 2.6513619999999999e-01,	 5.3049609790907865e-02,	 1.4547296892609211e+03,	 -3.0980250218413353e+01,	 7.3911898715895677e+02,	 1.1280451697063703e+04,	 5.4561482997092060e+02,	 2.6668254840652392e+00 
1.1391460000000000e+00,	 2.6510950000000000e-01,	 5.3128540279052089e-02,	 1.4545282377846279e+03,	 -3.0978320653705676e+01,	 7.3941932911890694e+02,	 1.1301826096570918e+04,	 5.4572567435885969e+02,	 2.6659146793278889e+00 
1.1404190000000001e+00,	 2.6508260000000000e-01,	 5.3207541835790823e-02,	 1.4543267607578450e+03,	 -3.0969687343170769e+01,	 7.3972072797137457e+02,	 1.1323245438902148e+04,	 5.4583688617581367e+02,	 2.6650021422710934e+00 
1.1417010000000001e+00,	 2.6505550000000000e-01,	 5.3286363523904853e-02,	 1.4541323385412786e+03,	 -3.0958205636822743e+01,	 7.4001231650309137e+02,	 1.1344489794261126e+04,	 5.4594445656594758e+02,	 2.6641205546097559e+00 
1.1429940000000001e+00,	 2.6502819999999999e-01,	 5.3362837881131012e-02,	 1.4539455873223233e+03,	 -3.0953524829683772e+01,	 7.4029336927099644e+02,	 1.1365085691665807e+04,	 5.4604812013419860e+02,	 2.6632726791810142e+00 
1.1442969999999999e+00,	 2.6500059999999998e-01,	 5.3435404411791905e-02,	 1.4537629561298720e+03,	 -3.0954835477632393e+01,	 7.4056435941288362e+02,	 1.1384706667907962e+04,	 5.4614805356899967e+02,	 2.6624510852982333e+00 
1.1456100000000000e+00,	 2.6497290000000001e-01,	 5.3510100858357251e-02,	 1.4535880929738055e+03,	 -3.0919647055118723e+01,	 7.4083444495068738e+02,	 1.1404778989439605e+04,	 5.4624763522070748e+02,	 2.6616443018341482e+00 
1.1469330000000000e+00,	 2.6494489999999998e-01,	 5.3576978955508323e-02,	 1.4534264620750746e+03,	 -3.0904806597563823e+01,	 7.4107702714914012e+02,	 1.1422772032300514e+04,	 5.4633706080527293e+02,	 2.6609122830306351e+00 
1.1482660000000000e+00,	 2.6491680000000001e-01,	 5.3643726706045017e-02,	 1.4532817517256842e+03,	 -3.0858622931966117e+01,	 7.4130533928634532e+02,	 1.1440526381422518e+04,	 5.4642121250052901e+02,	 2.6602359200363606e+00 
1.1496100000000000e+00,	 2.6488839999999997e-01,	 5.3695645831424374e-02,	 1.4531728390785643e+03,	 -3.0871499001933941e+01,	 7.4147091981242852e+02,	 1.1454156973175945e+04,	 5.4648223435974171e+02,	 2.6597401176070137e+00 
1.1509640000000001e+00,	 2.6485969999999998e-01,	 5.3741155357985231e-02,	 1.4530804989386236e+03,	 -3.0866654047603213e+01,	 7.4161444017827353e+02,	 1.1466083862489022e+04,	 5.4653512081364670e+02,	 2.6593136373588799e+00 
1.1523289999999999e+00,	 2.6483089999999998e-01,	 5.3784162720101544e-02,	 1.4530164183847489e+03,	 -3.0811004857678750e+01,	 7.4173049370561262e+02,	 1.1477055546848878e+04,	 5.4657788214887978e+02,	 2.6589862133244666e+00 
1.1537040000000001e+00,	 2.6480179999999998e-01,	 5.3810067289518287e-02,	 1.4529924427516396e+03,	 -3.0789111656237864e+01,	 7.4178162857584562e+02,	 1.1483374957306003e+04,	 5.4659672235271785e+02,	 2.6588498603891750e+00 
1.1550910000000001e+00,	 2.6477249999999997e-01,	 5.3827889581290297e-02,	 1.4529963690519521e+03,	 -3.0739154564965538e+01,	 7.4178996168865910e+02,	 1.1487307381918850e+04,	 5.4659979255504095e+02,	 2.6588401727036044e+00 
1.1564880000000000e+00,	 2.6474300000000001e-01,	 5.3832027072470555e-02,	 1.4530205093458694e+03,	 -3.0666104494230314e+01,	 7.4176236839527519e+02,	 1.1487763015376921e+04,	 5.4658962618080989e+02,	 2.6589309582520086e+00 
1.0567150000000001e+00,	 2.6755519999999999e-01,	 4.9690500806455540e-02,	 1.4854453340792668e+03,	 -3.2323675465981225e+01,	 6.9563526448129187e+02,	 9.9445446321883137e+03,	 5.2932180107651959e+02,	 2.8069823975011889e+00 
1.0574060000000001e+00,	 2.6754089999999997e-01,	 4.9725849739221853e-02,	 1.4853705779420548e+03,	 -3.2305921386059332e+01,	 6.9576978290391889e+02,	 9.9535433968803081e+03,	 5.2937297738648147e+02,	 2.8065691244221256e+00 
1.0581020000000001e+00,	 2.6752650000000000e-01,	 4.9767175793018995e-02,	 1.4852679787980055e+03,	 -3.2290665467754295e+01,	 6.9592788630800169e+02,	 9.9640792420428224e+03,	 5.2943312006420308e+02,	 2.8060559318587548e+00 
1.0588010000000001e+00,	 2.6751199999999997e-01,	 4.9806995676756186e-02,	 1.4851695677700634e+03,	 -3.2291231928970369e+01,	 6.9607754559307182e+02,	 9.9741962249979842e+03,	 5.2949004429759646e+02,	 2.8055684665140777e+00 
1.0595049999999999e+00,	 2.6749750000000000e-01,	 4.9846720784823648e-02,	 1.4850733620321275e+03,	 -3.2299762471982341e+01,	 6.9622257719402558e+02,	 9.9842312897108513e+03,	 5.2954520251212716e+02,	 2.8050949513482282e+00 
1.0602130000000001e+00,	 2.6748279999999997e-01,	 4.9885690137129624e-02,	 1.4849694456800135e+03,	 -3.2308404557977781e+01,	 6.9637370364958667e+02,	 9.9942057331000760e+03,	 5.2960267260125283e+02,	 2.8045947407275289e+00 
1.0609249999999999e+00,	 2.6746809999999999e-01,	 4.9928152728302581e-02,	 1.4848584648046954e+03,	 -3.2288471171531484e+01,	 6.9653914940376217e+02,	 1.0005089242355518e+04,	 5.2966558085689189e+02,	 2.8040513407511574e+00 
1.0616420000000000e+00,	 2.6745320000000000e-01,	 4.9971725840804219e-02,	 1.4847512123441213e+03,	 -3.2271461020187594e+01,	 6.9670764536699039e+02,	 1.0016243235225656e+04,	 5.2972964123001009e+02,	 2.8035091294164003e+00 
1.0623620000000000e+00,	 2.6743829999999996e-01,	 5.0011849533531411e-02,	 1.4846501257078444e+03,	 -3.2279334354145071e+01,	 6.9686050408124254e+02,	 1.0026484899797255e+04,	 5.2978774978633362e+02,	 2.8030111950785330e+00 
1.0630869999999999e+00,	 2.6742329999999997e-01,	 5.0053908443645212e-02,	 1.4845411540811920e+03,	 -3.2279989999391553e+01,	 6.9702193400762985e+02,	 1.0037241582079863e+04,	 5.2984910973180990e+02,	 2.8024809983987868e+00 
1.0638170000000000e+00,	 2.6740819999999998e-01,	 5.0097737651299622e-02,	 1.4844303350630339e+03,	 -3.2271631270920501e+01,	 6.9719065619900675e+02,	 1.0048462350425643e+04,	 5.2991323389295496e+02,	 2.8019324533688907e+00 
1.0645510000000000e+00,	 2.6739299999999999e-01,	 5.0140675483368959e-02,	 1.4843192064657153e+03,	 -3.2270107618513073e+01,	 6.9735879647917511e+02,	 1.0059500146723689e+04,	 5.2997712917572869e+02,	 2.8013849472372292e+00 
1.0652889999999999e+00,	 2.6737770000000000e-01,	 5.0184581210049949e-02,	 1.4842070684435100e+03,	 -3.2270830415771307e+01,	 6.9752824753405025e+02,	 1.0070755252941664e+04,	 5.3004151477556582e+02,	 2.8008331703320737e+00 
1.0660320000000001e+00,	 2.6736230000000000e-01,	 5.0228718321302310e-02,	 1.4840940837241258e+03,	 -3.2273318884277302e+01,	 6.9769889339420706e+02,	 1.0082078349679099e+04,	 5.3010634645746302e+02,	 2.8002776466197599e+00 
1.0667800000000001e+00,	 2.6734680000000000e-01,	 5.0273287249417480e-02,	 1.4839791390748323e+03,	 -3.2277416264833064e+01,	 6.9787269290079314e+02,	 1.0093538089181970e+04,	 5.3017236812197734e+02,	 2.7997123448535404e+00 
1.0675319999999999e+00,	 2.6733119999999999e-01,	 5.0318064119836629e-02,	 1.4838648800837093e+03,	 -3.2286910690823824e+01,	 6.9804480530672345e+02,	 1.0105019622575886e+04,	 5.3023774080197018e+02,	 2.7991521241432045e+00 
1.0682900000000000e+00,	 2.6731549999999998e-01,	 5.0363672599400576e-02,	 1.4837498430849814e+03,	 -3.2296498985809627e+01,	 6.9821760206283886e+02,	 1.0116682553369930e+04,	 5.3030336530872387e+02,	 2.7985892498611040e+00 
1.0690519999999999e+00,	 2.6729979999999998e-01,	 5.0410158568164699e-02,	 1.4836312738208503e+03,	 -3.2302399930001940e+01,	 6.9839563582944356e+02,	 1.0128602276598780e+04,	 5.3037097022708633e+02,	 2.7980092574371049e+00 
1.0698179999999999e+00,	 2.6728389999999996e-01,	 5.0457344474229185e-02,	 1.4835066366213130e+03,	 -3.2302842994869621e+01,	 6.9858293125276487e+02,	 1.0140801876195917e+04,	 5.3044208278221163e+02,	 2.7973992537841141e+00 
1.0705899999999999e+00,	 2.6726790000000000e-01,	 5.0505750006926954e-02,	 1.4833877392023571e+03,	 -3.2310955733531010e+01,	 6.9876767333987857e+02,	 1.0153214643970778e+04,	 5.3051221654527808e+02,	 2.7968057052849638e+00 
1.0713670000000000e+00,	 2.6725179999999998e-01,	 5.0550839976411688e-02,	 1.4832717551340108e+03,	 -3.2342144269779411e+01,	 6.9893865928336811e+02,	 1.0164765792821094e+04,	 5.3057711979345868e+02,	 2.7962463167226179e+00 
1.0721480000000001e+00,	 2.6723559999999996e-01,	 5.0599744651097525e-02,	 1.4831410909773456e+03,	 -3.2351675967890550e+01,	 6.9912962406518920e+02,	 1.0177379462774426e+04,	 5.3064959727250812e+02,	 2.7956186140829171e+00 
1.0729350000000000e+00,	 2.6721929999999999e-01,	 5.0651629110562674e-02,	 1.4830069877275910e+03,	 -3.2337926939856416e+01,	 6.9933256270968513e+02,	 1.0190772493826116e+04,	 5.3072660838215654e+02,	 2.7949597723369557e+00 
1.0737270000000001e+00,	 2.6720289999999997e-01,	 5.0703863521016621e-02,	 1.4828774883880571e+03,	 -3.2336369752549423e+01,	 6.9953333297724623e+02,	 1.0204210381109197e+04,	 5.3080278564196999e+02,	 2.7943146836226429e+00 
1.0745240000000000e+00,	 2.6718639999999999e-01,	 5.0753588246257864e-02,	 1.4827454076760057e+03,	 -3.2343517012672791e+01,	 6.9972897839229472e+02,	 1.0217074250169791e+04,	 5.3087700788864288e+02,	 2.7936755642510782e+00 
1.0753260000000000e+00,	 2.6716980000000001e-01,	 5.0807654346567227e-02,	 1.4826082986014990e+03,	 -3.2341307175110778e+01,	 6.9993741351974256e+02,	 1.0231004859819934e+04,	 5.3095607076947806e+02,	 2.7930013075344409e+00 
1.0761330000000000e+00,	 2.6715309999999998e-01,	 5.0859857802514168e-02,	 1.4824770393557533e+03,	 -3.2352817066885422e+01,	 7.0013695333633882e+02,	 1.0244436609526398e+04,	 5.3103174848373874e+02,	 2.7923566287573878e+00 
1.0769460000000000e+00,	 2.6713629999999999e-01,	 5.0912289505979771e-02,	 1.4823415606315789e+03,	 -3.2370392757212187e+01,	 7.0033898844780970e+02,	 1.0257956889570822e+04,	 5.3110836158013274e+02,	 2.7916995237802809e+00 
1.0777639999999999e+00,	 2.6711930000000000e-01,	 5.0966050351925467e-02,	 1.4822002885733978e+03,	 -3.2381095924357084e+01,	 7.0054859620947809e+02,	 1.0271862176203653e+04,	 5.3118783459838016e+02,	 2.7910163954919809e+00 
1.0785880000000001e+00,	 2.6710230000000001e-01,	 5.1022168739955340e-02,	 1.4820564014864794e+03,	 -3.2379506782255774e+01,	 7.0076423535665378e+02,	 1.0286337768649801e+04,	 5.3126958201673847e+02,	 2.7903160996946279e+00 