TITLE = "Initial State"
VARIABLES = "X", "Y", "rho", "u", "v", "T", "p", "c", "M"
ZONE I=100, J=41, DATAPACKING=POINT, STRANDID=0, SOLUTIONTIME=0.000000
1.1000000000000000e+01,	 1.0000000000000000e-04,	 1.1739927643084118e+00,	 2.0000000000000000e+02,	 0.0000000000000000e+00,	 3.0000000000000000e+02,	 1.0132500000000000e+05,	 3.4760788074254771e+02,	 5.7536094858599596e-01 
1.0500000000000000e+01,	 1.0000000000000000e-04,	 1.1739927643084118e+00,	 2.0000000000000000e+02,	 0.0000000000000000e+00,	 3.0000000000000000e+02,	 1.0132500000000000e+05,	 3.4760788074254771e+02,	 5.7536094858599596e-01 
1.0006209999999999e+01,	 1.0000000000000000e-04,	 1.1739927643084118e+00,	 2.0000000000000000e+02,	 0.0000000000000000e+00,	 3.0000000000000000e+02,	 1.0132500000000000e+05,	 3.4760788074254771e+02,	 5.7536094858599596e-01 
9.5205780000000004e+00,	 1.0000000000000000e-04,	 1.1739927643084118e+00,	 2.0000000000000000e+02,	 0.0000000000000000e+00,	 3.0000000000000000e+02,	 1.0132500000000000e+05,	 3.4760788074254771e+02,	 5.7536094858599596e-01 
9.0449079999999995e+00,	 9.9999999998889782e-05,	 1.1739927643084118e+00,	 2.0000000000000000e+02,	 0.0000000000000000e+00,	 3.0000000000000000e+02,	 1.0132500000000000e+05,	 3.4760788074254771e+02,	 5.7536094858599596e-01 
8.5808529999999994e+00,	 1.0000000000000000e-04,	 1.1739927643084118e+00,	 2.0000000000000000e+02,	 0.0000000000000000e+00,	 3.0000000000000000e+02,	 1.0132500000000000e+05,	 3.4760788074254771e+02,	 5.7536094858599596e-01 
8.1298929999999991e+00,	 1.0000000000000000e-04,	 1.1739927643084118e+00,	 2.0000000000000000e+02,	 0.0000000000000000e+00,	 3.0000000000000000e+02,	 1.0132500000000000e+05,	 3.4760788074254771e+02,	 5.7536094858599596e-01 
7.6933140000000000e+00,	 9.9999999998889782e-05,	 1.1739927643084118e+00,	 2.0000000000000000e+02,	 0.0000000000000000e+00,	 3.0000000000000000e+02,	 1.0132500000000000e+05,	 3.4760788074254771e+02,	 5.7536094858599596e-01 
7.2722049999999996e+00,	 9.9999999997779559e-05,	 1.1739927643084118e+00,	 2.0000000000000000e+02,	 0.0000000000000000e+00,	 3.0000000000000000e+02,	 1.0132500000000000e+05,	 3.4760788074254771e+02,	 5.7536094858599596e-01 
6.8674540000000004e+00,	 1.0000000000222045e-04,	 1.1739927643084118e+00,	 2.0000000000000000e+02,	 0.0000000000000000e+00,	 3.0000000000000000e+02,	 1.0132500000000000e+05,	 3.4760788074254771e+02,	 5.7536094858599596e-01 
6.4797430000000000e+00,	 1.0000000000000000e-04,	 1.1739927643084118e+00,	 2.0000000000000000e+02,	 0.0000000000000000e+00,	 3.0000000000000000e+02,	 1.0132500000000000e+05,	 3.4760788074254771e+02,	 5.7536094858599596e-01 
6.1095660000000001e+00,	 1.0000000000000000e-04,	 1.1739927643084118e+00,	 2.0000000000000000e+02,	 0.0000000000000000e+00,	 3.0000000000000000e+02,	 1.0132500000000000e+05,	 3.4760788074254771e+02,	 5.7536094858599596e-01 
5.7572250000000000e+00,	 1.0000000000000000e-04,	 1.1739927643084118e+00,	 2.0000000000000000e+02,	 0.0000000000000000e+00,	 3.0000000000000000e+02,	 1.0132500000000000e+05,	 3.4760788074254771e+02,	 5.7536094858599596e-01 
5.4228540000000001e+00,	 1.0000000000000000e-04,	 1.1739927643084118e+00,	 2.0000000000000000e+02,	 0.0000000000000000e+00,	 3.0000000000000000e+02,	 1.0132500000000000e+05,	 3.4760788074254771e+02,	 5.7536094858599596e-01 
5.1064259999999999e+00,	 1.0000000000222045e-04,	 1.1739927643084118e+00,	 2.0000000000000000e+02,	 0.0000000000000000e+00,	 3.0000000000000000e+02,	 1.0132500000000000e+05,	 3.4760788074254771e+02,	 5.7536094858599596e-01 
4.8077740000000002e+00,	 1.0000000000000000e-04,	 1.1739927643084118e+00,	 2.0000000000000000e+02,	 0.0000000000000000e+00,	 3.0000000000000000e+02,	 1.0132500000000000e+05,	 3.4760788074254771e+02,	 5.7536094858599596e-01 
4.5266060000000001e+00,	 1.0000000000000000e-04,	 1.1739927643084118e+00,	 2.0000000000000000e+02,	 0.0000000000000000e+00,	 3.0000000000000000e+02,	 1.0132500000000000e+05,	 3.4760788074254771e+02,	 5.7536094858599596e-01 
4.2625229999999998e+00,	 1.0000000000222045e-04,	 1.1739927643084118e+00,	 2.0000000000000000e+02,	 0.0000000000000000e+00,	 3.0000000000000000e+02,	 1.0132500000000000e+05,	 3.4760788074254771e+02,	 5.7536094858599596e-01 
4.0150370000000004e+00,	 1.0000000000000000e-04,	 1.1739927643084118e+00,	 2.0000000000000000e+02,	 0.0000000000000000e+00,	 3.0000000000000000e+02,	 1.0132500000000000e+05,	 3.4760788074254771e+02,	 5.7536094858599596e-01 
3.7835869999999998e+00,	 9.9999999997779559e-05,	 1.1739927643084118e+00,	 2.0000000000000000e+02,	 0.0000000000000000e+00,	 3.0000000000000000e+02,	 1.0132500000000000e+05,	 3.4760788074254771e+02,	 5.7536094858599596e-01 
3.5675550000000000e+00,	 1.0000000000000000e-04,	 1.1739927643084118e+00,	 2.0000000000000000e+02,	 0.0000000000000000e+00,	 3.0000000000000000e+02,	 1.0132500000000000e+05,	 3.4760788074254771e+02,	 5.7536094858599596e-01 
3.3662800000000002e+00,	 1.0000000000222045e-04,	 1.1739927643084118e+00,	 2.0000000000000000e+02,	 0.0000000000000000e+00,	 3.0000000000000000e+02,	 1.0132500000000000e+05,	 3.4760788074254771e+02,	 5.7536094858599596e-01 
3.1790710000000000e+00,	 9.9999999998889782e-05,	 1.1739927643084118e+00,	 2.0000000000000000e+02,	 0.0000000000000000e+00,	 3.0000000000000000e+02,	 1.0132500000000000e+05,	 3.4760788074254771e+02,	 5.7536094858599596e-01 
3.0052189999999999e+00,	 1.0000000000222045e-04,	 1.1739927643084118e+00,	 2.0000000000000000e+02,	 0.0000000000000000e+00,	 3.0000000000000000e+02,	 1.0132500000000000e+05,	 3.4760788074254771e+02,	 5.7536094858599596e-01 
2.8440070000000000e+00,	 1.0000000000000000e-04,	 1.1739927643084118e+00,	 2.0000000000000000e+02,	 0.0000000000000000e+00,	 3.0000000000000000e+02,	 1.0132500000000000e+05,	 3.4760788074254771e+02,	 5.7536094858599596e-01 
2.6947169999999998e+00,	 1.0000000000000000e-04,	 1.1739927643084118e+00,	 2.0000000000000000e+02,	 0.0000000000000000e+00,	 3.0000000000000000e+02,	 1.0132500000000000e+05,	 3.4760788074254771e+02,	 5.7536094858599596e-01 
2.5566430000000002e+00,	 1.0000000000222045e-04,	 1.1739927643084118e+00,	 2.0000000000000000e+02,	 0.0000000000000000e+00,	 3.0000000000000000e+02,	 1.0132500000000000e+05,	 3.4760788074254771e+02,	 5.7536094858599596e-01 
2.4290900000000000e+00,	 1.0000000000000000e-04,	 1.1739927643084118e+00,	 2.0000000000000000e+02,	 0.0000000000000000e+00,	 3.0000000000000000e+02,	 1.0132500000000000e+05,	 3.4760788074254771e+02,	 5.7536094858599596e-01 
2.3113820000000000e+00,	 9.9999999997779559e-05,	 1.1739927643084118e+00,	 2.0000000000000000e+02,	 0.0000000000000000e+00,	 3.0000000000000000e+02,	 1.0132500000000000e+05,	 3.4760788074254771e+02,	 5.7536094858599596e-01 
2.2028669999999999e+00,	 1.0000000000222045e-04,	 1.1739927643084118e+00,	 2.0000000000000000e+02,	 0.0000000000000000e+00,	 3.0000000000000000e+02,	 1.0132500000000000e+05,	 3.4760788074254771e+02,	 5.7536094858599596e-01 
2.1029179999999998e+00,	 9.9999999998889782e-05,	 1.1739927643084118e+00,	 2.0000000000000000e+02,	 0.0000000000000000e+00,	 3.0000000000000000e+02,	 1.0132500000000000e+05,	 3.4760788074254771e+02,	 5.7536094858599596e-01 
2.0109370000000002e+00,	 1.0000000000000000e-04,	 1.1739927643084118e+00,	 2.0000000000000000e+02,	 0.0000000000000000e+00,	 3.0000000000000000e+02,	 1.0132500000000000e+05,	 3.4760788074254771e+02,	 5.7536094858599596e-01 
1.9263530000000000e+00,	 1.0000000000000000e-04,	 1.1739927643084118e+00,	 2.0000000000000000e+02,	 0.0000000000000000e+00,	 3.0000000000000000e+02,	 1.0132500000000000e+05,	 3.4760788074254771e+02,	 5.7536094858599596e-01 
1.8486279999999999e+00,	 1.0000000000222045e-04,	 1.1739927643084118e+00,	 2.0000000000000000e+02,	 0.0000000000000000e+00,	 3.0000000000000000e+02,	 1.0132500000000000e+05,	 3.4760788074254771e+02,	 5.7536094858599596e-01 
1.7772509999999999e+00,	 1.0000000000000000e-04,	 1.1739927643084118e+00,	 2.0000000000000000e+02,	 0.0000000000000000e+00,	 3.0000000000000000e+02,	 1.0132500000000000e+05,	 3.4760788074254771e+02,	 5.7536094858599596e-01 
1.7117439999999999e+00,	 1.0000000000000000e-04,	 1.1739927643084118e+00,	 2.0000000000000000e+02,	 0.0000000000000000e+00,	 3.0000000000000000e+02,	 1.0132500000000000e+05,	 3.4760788074254771e+02,	 5.7536094858599596e-01 
1.6516569999999999e+00,	 1.0000000000000000e-04,	 1.1739927643084118e+00,	 2.0000000000000000e+02,	 0.0000000000000000e+00,	 3.0000000000000000e+02,	 1.0132500000000000e+05,	 3.4760788074254771e+02,	 5.7536094858599596e-01 
1.5965700000000000e+00,	 1.0000000000222045e-04,	 1.1739927643084118e+00,	 2.0000000000000000e+02,	 0.0000000000000000e+00,	 3.0000000000000000e+02,	 1.0132500000000000e+05,	 3.4760788074254771e+02,	 5.7536094858599596e-01 
1.5460890000000000e+00,	 9.9999999998889782e-05,	 1.1739927643084118e+00,	 2.0000000000000000e+02,	 0.0000000000000000e+00,	 3.0000000000000000e+02,	 1.0132500000000000e+05,	 3.4760788074254771e+02,	 5.7536094858599596e-01 
1.4998490000000000e+00,	 9.9999999997779559e-05,	 1.1739927643084118e+00,	 2.0000000000000000e+02,	 0.0000000000000000e+00,	 3.0000000000000000e+02,	 1.0132500000000000e+05,	 3.4760788074254771e+02,	 5.7536094858599596e-01 
1.4575110000000000e+00,	 1.0000000000000000e-04,	 1.1739927643084118e+00,	 2.0000000000000000e+02,	 0.0000000000000000e+00,	 3.0000000000000000e+02,	 1.0132500000000000e+05,	 3.4760788074254771e+02,	 5.7536094858599596e-01 
1.4187590000000001e+00,	 1.0000000000000000e-04,	 1.1739927643084118e+00,	 2.0000000000000000e+02,	 0.0000000000000000e+00,	 3.0000000000000000e+02,	 1.0132500000000000e+05,	 3.4760788074254771e+02,	 5.7536094858599596e-01 
1.3833009999999999e+00,	 1.0000000000222045e-04,	 1.1739927643084118e+00,	 2.0000000000000000e+02,	 0.0000000000000000e+00,	 3.0000000000000000e+02,	 1.0132500000000000e+05,	 3.4760788074254771e+02,	 5.7536094858599596e-01 
1.3508659999999999e+00,	 1.0000000000222045e-04,	 1.1739927643084118e+00,	 2.0000000000000000e+02,	 0.0000000000000000e+00,	 3.0000000000000000e+02,	 1.0132500000000000e+05,	 3.4760788074254771e+02,	 5.7536094858599596e-01 
1.3212050000000000e+00,	 1.0000000000000000e-04,	 1.1739927643084118e+00,	 2.0000000000000000e+02,	 0.0000000000000000e+00,	 3.0000000000000000e+02,	 1.0132500000000000e+05,	 3.4760788074254771e+02,	 5.7536094858599596e-01 
1.2940870000000000e+00,	 1.0000000000000000e-04,	 1.1739927643084118e+00,	 2.0000000000000000e+02,	 0.0000000000000000e+00,	 3.0000000000000000e+02,	 1.0132500000000000e+05,	 3.4760788074254771e+02,	 5.7536094858599596e-01 
1.2693010000000000e+00,	 9.9999999998889782e-05,	 1.1739927643084118e+00,	 2.0000000000000000e+02,	 0.0000000000000000e+00,	 3.0000000000000000e+02,	 1.0132500000000000e+05,	 3.4760788074254771e+02,	 5.7536094858599596e-01 
1.2466489999999999e+00,	 1.0000000000000000e-04,	 1.1739927643084118e+00,	 2.0000000000000000e+02,	 0.0000000000000000e+00,	 3.0000000000000000e+02,	 1.0132500000000000e+05,	 3.4760788074254771e+02,	 5.7536094858599596e-01 
1.2259530000000001e+00,	 9.9999999998889782e-05,	 1.1739927643084118e+00,	 2.0000000000000000e+02,	 0.0000000000000000e+00,	 3.0000000000000000e+02,	 1.0132500000000000e+05,	 3.4760788074254771e+02,	 5.7536094858599596e-01 
1.2070470000000000e+00,	 1.0000000000222045e-04,	 1.1739927643084118e+00,	 2.0000000000000000e+02,	 0.0000000000000000e+00,	 3.0000000000000000e+02,	 1.0132500000000000e+05,	 3.4760788074254771e+02,	 5.7536094858599596e-01 
1.1897789999999999e+00,	 1.0000000000000000e-04,	 1.1739927643084118e+00,	 2.0000000000000000e+02,	 0.0000000000000000e+00,	 3.0000000000000000e+02,	 1.0132500000000000e+05,	 3.4760788074254771e+02,	 5.7536094858599596e-01 
1.1740090000000001e+00,	 1.0000000000222045e-04,	 1.1739927643084118e+00,	 2.0000000000000000e+02,	 0.0000000000000000e+00,	 3.0000000000000000e+02,	 1.0132500000000000e+05,	 3.4760788074254771e+02,	 5.7536094858599596e-01 
1.1596080000000000e+00,	 1.0000000000222045e-04,	 1.1739927643084118e+00,	 2.0000000000000000e+02,	 0.0000000000000000e+00,	 3.0000000000000000e+02,	 1.0132500000000000e+05,	 3.4760788074254771e+02,	 5.7536094858599596e-01 
1.1464610000000000e+00,	 9.9999999998889782e-05,	 1.1739927643084118e+00,	 2.0000000000000000e+02,	 0.0000000000000000e+00,	 3.0000000000000000e+02,	 1.0132500000000000e+05,	 3.4760788074254771e+02,	 5.7536094858599596e-01 
1.1344590000000001e+00,	 1.0000000000000000e-04,	 1.1739927643084118e+00,	 2.0000000000000000e+02,	 0.0000000000000000e+00,	 3.0000000000000000e+02,	 1.0132500000000000e+05,	 3.4760788074254771e+02,	 5.7536094858599596e-01 
1.1235029999999999e+00,	 1.0000000000000000e-04,	 1.1739927643084118e+00,	 2.0000000000000000e+02,	 0.0000000000000000e+00,	 3.0000000000000000e+02,	 1.0132500000000000e+05,	 3.4760788074254771e+02,	 5.7536094858599596e-01 
1.1135029999999999e+00,	 1.0000000000000000e-04,	 1.1739927643084118e+00,	 2.0000000000000000e+02,	 0.0000000000000000e+00,	 3.0000000000000000e+02,	 1.0132500000000000e+05,	 3.4760788074254771e+02,	 5.7536094858599596e-01 
1.1043760000000000e+00,	 1.0000000000222045e-04,	 1.1739927643084118e+00,	 2.0000000000000000e+02,	 0.0000000000000000e+00,	 3.0000000000000000e+02,	 1.0132500000000000e+05,	 3.4760788074254771e+02,	 5.7536094858599596e-01 
1.0960479999999999e+00,	 1.0000000000000000e-04,	 1.1739927643084118e+00,	 2.0000000000000000e+02,	 0.0000000000000000e+00,	 3.0000000000000000e+02,	 1.0132500000000000e+05,	 3.4760788074254771e+02,	 5.7536094858599596e-01 
1.0884480000000001e+00,	 1.0000000000000000e-04,	 1.1739927643084118e+00,	 2.0000000000000000e+02,	 0.0000000000000000e+00,	 3.0000000000000000e+02,	 1.0132500000000000e+05,	 3.4760788074254771e+02,	 5.7536094858599596e-01 
1.0815129999999999e+00,	 1.0000000000000000e-04,	 1.1739927643084118e+00,	 2.0000000000000000e+02,	 0.0000000000000000e+00,	 3.0000000000000000e+02,	 1.0132500000000000e+05,	 3.4760788074254771e+02,	 5.7536094858599596e-01 
1.0751860000000000e+00,	 1.0000000000000000e-04,	 1.1739927643084118e+00,	 2.0000000000000000e+02,	 0.0000000000000000e+00,	 3.0000000000000000e+02,	 1.0132500000000000e+05,	 3.4760788074254771e+02,	 5.7536094858599596e-01 
1.0694129999999999e+00,	 1.0000000000222045e-04,	 1.1739927643084118e+00,	 2.0000000000000000e+02,	 0.0000000000000000e+00,	 3.0000000000000000e+02,	 1.0132500000000000e+05,	 3.4760788074254771e+02,	 5.7536094858599596e-01 
1.0641460000000000e+00,	 1.0000000000000000e-04,	 1.1739927643084118e+00,	 2.0000000000000000e+02,	 0.0000000000000000e+00,	 3.0000000000000000e+02,	 1.0132500000000000e+05,	 3.4760788074254771e+02,	 5.7536094858599596e-01 
1.0593420000000000e+00,	 9.9999999998889782e-05,	 1.1739927643084118e+00,	 2.0000000000000000e+02,	 0.0000000000000000e+00,	 3.0000000000000000e+02,	 1.0132500000000000e+05,	 3.4760788074254771e+02,	 5.7536094858599596e-01 
1.0549590000000000e+00,	 1.0000000000000000e-04,	 1.1739927643084118e+00,	 2.0000000000000000e+02,	 0.0000000000000000e+00,	 3.0000000000000000e+02,	 1.0132500000000000e+05,	 3.4760788074254771e+02,	 5.7536094858599596e-01 
1.0509599999999999e+00,	 1.0000000000000000e-04,	 1.1739927643084118e+00,	 2.0000000000000000e+02,	 0.0000000000000000e+00,	 3.0000000000000000e+02,	 1.0132500000000000e+05,	 3.4760788074254771e+02,	 5.7536094858599596e-01 
1.0473129999999999e+00,	 1.0000000000000000e-04,	 1.1739927643084118e+00,	 2.0000000000000000e+02,	 0.0000000000000000e+00,	 3.0000000000000000e+02,	 1.0132500000000000e+05,	 3.4760788074254771e+02,	 5.7536094858599596e-01 
1.0439870000000000e+00,	 1.0000000000000000e-04,	 1.1739927643084118e+00,	 2.0000000000000000e+02,	 0.0000000000000000e+00,	 3.0000000000000000e+02,	 1.0132500000000000e+05,	 3.4760788074254771e+02,	 5.7536094858599596e-01 
1.0409530000000000e+00,	 1.0000000000222045e-04,	 1.1739927643084118e+00,	 2.0000000000000000e+02,	 0.0000000000000000e+00,	 3.0000000000000000e+02,	 1.0132500000000000e+05,	 3.4760788074254771e+02,	 5.7536094858599596e-01 
1.0381849999999999e+00,	 1.0000000000222045e-04,	 1.1739927643084118e+00,	 2.0000000000000000e+02,	 0.0000000000000000e+00,	 3.0000000000000000e+02,	 1.0132500000000000e+05,	 3.4760788074254771e+02,	 5.7536094858599596e-01 
1.0356609999999999e+00,	 1.0000000000000000e-04,	 1.1739927643084118e+00,	 2.0000000000000000e+02,	 0.0000000000000000e+00,	 3.0000000000000000e+02,	 1.0132500000000000e+05,	 3.4760788074254771e+02,	 5.7536094858599596e-01 
1.0333580000000000e+00,	 1.0000000000000000e-04,	 1.1739927643084118e+00,	 2.0000000000000000e+02,	 0.0000000000000000e+00,	 3.0000000000000000e+02,	 1.0132500000000000e+05,	 3.4760788074254771e+02,	 5.7536094858599596e-01 
1.0312589999999999e+00,	 1.0000000000000000e-04,	 1.1739927643084118e+00,	 2.0000000000000000e+02,	 0.0000000000000000e+00,	 3.0000000000000000e+02,	 1.0132500000000000e+05,	 3.4760788074254771e+02,	 5.7536094858599596e-01 
1.0293440000000000e+00,	 1.0000000000000000e-04,	 1.1739927643084118e+00,	 2.0000000000000000e+02,	 0.0000000000000000e+00,	 3.0000000000000000e+02,	 1.0132500000000000e+05,	 3.4760788074254771e+02,	 5.7536094858599596e-01 
1.0275970000000001e+00,	 1.0000000000000000e-04,	 1.1739927643084118e+00,	 2.0000000000000000e+02,	 0.0000000000000000e+00,	 3.0000000000000000e+02,	 1.0132500000000000e+05,	 3.4760788074254771e+02,	 5.7536094858599596e-01 
1.0260039999999999e+00,	 1.0000000000000000e-04,	 1.1739927643084118e+00,	 2.0000000000000000e+02,	 0.0000000000000000e+00,	 3.0000000000000000e+02,	 1.0132500000000000e+05,	 3.4760788074254771e+02,	 5.7536094858599596e-01 
1.0245519999999999e+00,	 1.0000000000000000e-04,	 1.1739927643084118e+00,	 2.0000000000000000e+02,	 0.0000000000000000e+00,	 3.0000000000000000e+02,	 1.0132500000000000e+05,	 3.4760788074254771e+02,	 5.7536094858599596e-01 
1.0232270000000001e+00,	 1.0000000000222045e-04,	 1.1739927643084118e+00,	 2.0000000000000000e+02,	 0.0000000000000000e+00,	 3.0000000000000000e+02,	 1.0132500000000000e+05,	 3.4760788074254771e+02,	 5.7536094858599596e-01 
1.0220190000000000e+00,	 9.9999999998889782e-05,	 1.1739927643084118e+00,	 2.0000000000000000e+02,	 0.0000000000000000e+00,	 3.0000000000000000e+02,	 1.0132500000000000e+05,	 3.4760788074254771e+02,	 5.7536094858599596e-01 
1.0208109999999999e+00,	 9.9999999998889782e-05,	 1.1739927643084118e+00,	 2.0000000000000000e+02,	 0.0000000000000000e+00,	 3.0000000000000000e+02,	 1.0132500000000000e+05,	 3.4760788074254771e+02,	 5.7536094858599596e-01 
1.0196149999999999e+00,	 1.0000000000000000e-04,	 1.1739927643084118e+00,	 2.0000000000000000e+02,	 0.0000000000000000e+00,	 3.0000000000000000e+02,	 1.0132500000000000e+05,	 3.4760788074254771e+02,	 5.7536094858599596e-01 
1.0184299999999999e+00,	 9.9999999998889782e-05,	 1.1739927643084118e+00,	 2.0000000000000000e+02,	 0.0000000000000000e+00,	 3.0000000000000000e+02,	 1.0132500000000000e+05,	 3.4760788074254771e+02,	 5.7536094858599596e-01 
1.0172580000000000e+00,	 9.9999999998889782e-05,	 1.1739927643084118e+00,	 2.0000000000000000e+02,	 0.0000000000000000e+00,	 3.0000000000000000e+02,	 1.0132500000000000e+05,	 3.4760788074254771e+02,	 5.7536094858599596e-01 
1.0160970000000000e+00,	 1.0000000000000000e-04,	 1.1739927643084118e+00,	 2.0000000000000000e+02,	 0.0000000000000000e+00,	 3.0000000000000000e+02,	 1.0132500000000000e+05,	 3.4760788074254771e+02,	 5.7536094858599596e-01 
1.0149470000000000e+00,	 1.0000000000222045e-04,	 1.1739927643084118e+00,	 2.0000000000000000e+02,	 0.0000000000000000e+00,	 3.0000000000000000e+02,	 1.0132500000000000e+05,	 3.4760788074254771e+02,	 5.7536094858599596e-01 
1.0138090000000000e+00,	 1.0000000000000000e-04,	 1.1739927643084118e+00,	 2.0000000000000000e+02,	 0.0000000000000000e+00,	 3.0000000000000000e+02,	 1.0132500000000000e+05,	 3.4760788074254771e+02,	 5.7536094858599596e-01 
1.0126830000000000e+00,	 9.9999999998889782e-05,	 1.1739927643084118e+00,	 2.0000000000000000e+02,	 0.0000000000000000e+00,	 3.0000000000000000e+02,	 1.0132500000000000e+05,	 3.4760788074254771e+02,	 5.7536094858599596e-01 
1.0115670000000001e+00,	 1.0000000000222045e-04,	 1.1739927643084118e+00,	 2.0000000000000000e+02,	 0.0000000000000000e+00,	 3.0000000000000000e+02,	 1.0132500000000000e+05,	 3.4760788074254771e+02,	 5.7536094858599596e-01 
1.0104620000000000e+00,	 9.9999999998889782e-05,	 1.1739927643084118e+00,	 2.0000000000000000e+02,	 0.0000000000000000e+00,	 3.0000000000000000e+02,	 1.0132500000000000e+05,	 3.4760788074254771e+02,	 5.7536094858599596e-01 
1.0093690000000000e+00,	 1.0000000000000000e-04,	 1.1739927643084118e+00,	 2.0000000000000000e+02,	 0.0000000000000000e+00,	 3.0000000000000000e+02,	 1.0132500000000000e+05,	 3.4760788074254771e+02,	 5.7536094858599596e-01 
1.0082860000000000e+00,	 9.9999999998889782e-05,	 1.1739927643084118e+00,	 2.0000000000000000e+02,	 0.0000000000000000e+00,	 3.0000000000000000e+02,	 1.0132500000000000e+05,	 3.4760788074254771e+02,	 5.7536094858599596e-01 
1.0072140000000001e+00,	 1.0000000000222045e-04,	 1.1739927643084118e+00,	 2.0000000000000000e+02,	 0.0000000000000000e+00,	 3.0000000000000000e+02,	 1.0132500000000000e+05,	 3.4760788074254771e+02,	 5.7536094858599596e-01 
1.0061519999999999e+00,	 9.9999999998889782e-05,	 1.1739927643084118e+00,	 2.0000000000000000e+02,	 0.0000000000000000e+00,	 3.0000000000000000e+02,	 1.0132500000000000e+05,	 3.4760788074254771e+02,	 5.7536094858599596e-01 
1.0051010000000000e+00,	 1.0000000000222045e-04,	 1.1739927643084118e+00,	 2.0000000000000000e+02,	 0.0000000000000000e+00,	 3.0000000000000000e+02,	 1.0132500000000000e+05,	 3.4760788074254771e+02,	 5.7536094858599596e-01 
1.0040600000000000e+00,	 9.9999999998889782e-05,	 1.1739927643084118e+00,	 2.0000000000000000e+02,	 0.0000000000000000e+00,	 3.0000000000000000e+02,	 1.0132500000000000e+05,	 3.4760788074254771e+02,	 5.7536094858599596e-01 
1.0030300000000001e+00,	 1.0000000000222045e-04,	 1.1739927643084118e+00,	 2.0000000000000000e+02,	 0.0000000000000000e+00,	 3.0000000000000000e+02,	 1.0132500000000000e+05,	 3.4760788074254771e+02,	 5.7536094858599596e-01 
1.0020100000000001e+00,	 9.9999999997779559e-05,	 1.1739927643084118e+00,	 2.0000000000000000e+02,	 0.0000000000000000e+00,	 3.0000000000000000e+02,	 1.0132500000000000e+05,	 3.4760788074254771e+02,	 5.7536094858599596e-01 
1.0009999999999999e+00,	 1.0000000000000000e-04,	 1.1739927643084118e+00,	 2.0000000000000000e+02,	 0.0000000000000000e+00,	 3.0000000000000000e+02,	 1.0132500000000000e+05,	 3.4760788074254771e+02,	 5.7536094858599596e-01 
1.0000000000000000e+00,	 1.0000000000000000e-04,	 1.1739927643084118e+00,	 2.0000000000000000e+02,	 0.0000000000000000e+00,	 3.0000000000000000e+02,	 1.0132500000000000e+05,	 3.4760788074254771e+02,	 5.7536094858599596e-01 
1.1000000000000000e+01,	 -4.8999999999999998e-03,	 1.1739927643084118e+00,	 2.0000000000000000e+02,	 0.0000000000000000e+00,	 3.0000000000000000e+02,	 1.0132500000000000e+05,	 3.4760788074254771e+02,	 5.7536094858599596e-01 
1.0500000000000000e+01,	 -4.8999999999999998e-03,	 1.1739927643084118e+00,	 2.0000000000000000e+02,	 0.0000000000000000e+00,	 3.0000000000000000e+02,	 1.0132500000000000e+05,	 3.4760788074254771e+02,	 5.7536094858599596e-01 
1.0006220000000001e+01,	 -4.8999969999999997e-03,	 1.1739927643084118e+00,	 2.0000000000000000e+02,	 0.0000000000000000e+00,	 3.0000000000000000e+02,	 1.0132500000000000e+05,	 3.4760788074254771e+02,	 5.7536094858599596e-01 
9.5205929999999999e+00,	 -4.8999780000000001e-03,	 1.1739927643084118e+00,	 2.0000000000000000e+02,	 0.0000000000000000e+00,	 3.0000000000000000e+02,	 1.0132500000000000e+05,	 3.4760788074254771e+02,	 5.7536094858599596e-01 
9.0449350000000006e+00,	 -4.8999229999999996e-03,	 1.1739927643084118e+00,	 2.0000000000000000e+02,	 0.0000000000000000e+00,	 3.0000000000000000e+02,	 1.0132500000000000e+05,	 3.4760788074254771e+02,	 5.7536094858599596e-01 
8.5808970000000002e+00,	 -4.8998089999999998e-03,	 1.1739927643084118e+00,	 2.0000000000000000e+02,	 0.0000000000000000e+00,	 3.0000000000000000e+02,	 1.0132500000000000e+05,	 3.4760788074254771e+02,	 5.7536094858599596e-01 
8.1299550000000007e+00,	 -4.8996209999999998e-03,	 1.1739927643084118e+00,	 2.0000000000000000e+02,	 0.0000000000000000e+00,	 3.0000000000000000e+02,	 1.0132500000000000e+05,	 3.4760788074254771e+02,	 5.7536094858599596e-01 
7.6933949999999998e+00,	 -4.8993459999999997e-03,	 1.1739927643084118e+00,	 2.0000000000000000e+02,	 0.0000000000000000e+00,	 3.0000000000000000e+02,	 1.0132500000000000e+05,	 3.4760788074254771e+02,	 5.7536094858599596e-01 
7.2723060000000004e+00,	 -4.8989810000000002e-03,	 1.1739927643084118e+00,	 2.0000000000000000e+02,	 0.0000000000000000e+00,	 3.0000000000000000e+02,	 1.0132500000000000e+05,	 3.4760788074254771e+02,	 5.7536094858599596e-01 
6.8675750000000004e+00,	 -4.8985309999999994e-03,	 1.1739927643084118e+00,	 2.0000000000000000e+02,	 0.0000000000000000e+00,	 3.0000000000000000e+02,	 1.0132500000000000e+05,	 3.4760788074254771e+02,	 5.7536094858599596e-01 
6.4798850000000003e+00,	 -4.8980049999999995e-03,	 1.1739927643084118e+00,	 2.0000000000000000e+02,	 0.0000000000000000e+00,	 3.0000000000000000e+02,	 1.0132500000000000e+05,	 3.4760788074254771e+02,	 5.7536094858599596e-01 
6.1097260000000002e+00,	 -4.8974190000000001e-03,	 1.1739927643084118e+00,	 2.0000000000000000e+02,	 0.0000000000000000e+00,	 3.0000000000000000e+02,	 1.0132500000000000e+05,	 3.4760788074254771e+02,	 5.7536094858599596e-01 
5.7574040000000002e+00,	 -4.8967949999999998e-03,	 1.1739927643084118e+00,	 2.0000000000000000e+02,	 0.0000000000000000e+00,	 3.0000000000000000e+02,	 1.0132500000000000e+05,	 3.4760788074254771e+02,	 5.7536094858599596e-01 
5.4230499999999999e+00,	 -4.8961509999999996e-03,	 1.1739927643084118e+00,	 2.0000000000000000e+02,	 0.0000000000000000e+00,	 3.0000000000000000e+02,	 1.0132500000000000e+05,	 3.4760788074254771e+02,	 5.7536094858599596e-01 
5.1066380000000002e+00,	 -4.8955110000000000e-03,	 1.1739927643084118e+00,	 2.0000000000000000e+02,	 0.0000000000000000e+00,	 3.0000000000000000e+02,	 1.0132500000000000e+05,	 3.4760788074254771e+02,	 5.7536094858599596e-01 
4.8079989999999997e+00,	 -4.8948949999999998e-03,	 1.1739927643084118e+00,	 2.0000000000000000e+02,	 0.0000000000000000e+00,	 3.0000000000000000e+02,	 1.0132500000000000e+05,	 3.4760788074254771e+02,	 5.7536094858599596e-01 
4.5268439999999996e+00,	 -4.8943189999999994e-03,	 1.1739927643084118e+00,	 2.0000000000000000e+02,	 0.0000000000000000e+00,	 3.0000000000000000e+02,	 1.0132500000000000e+05,	 3.4760788074254771e+02,	 5.7536094858599596e-01 
4.2627720000000000e+00,	 -4.8938009999999997e-03,	 1.1739927643084118e+00,	 2.0000000000000000e+02,	 0.0000000000000000e+00,	 3.0000000000000000e+02,	 1.0132500000000000e+05,	 3.4760788074254771e+02,	 5.7536094858599596e-01 
4.0152939999999999e+00,	 -4.8933499999999994e-03,	 1.1739927643084118e+00,	 2.0000000000000000e+02,	 0.0000000000000000e+00,	 3.0000000000000000e+02,	 1.0132500000000000e+05,	 3.4760788074254771e+02,	 5.7536094858599596e-01 
3.7838520000000000e+00,	 -4.8929759999999994e-03,	 1.1739927643084118e+00,	 2.0000000000000000e+02,	 0.0000000000000000e+00,	 3.0000000000000000e+02,	 1.0132500000000000e+05,	 3.4760788074254771e+02,	 5.7536094858599596e-01 
3.5678260000000002e+00,	 -4.8926830000000001e-03,	 1.1739927643084118e+00,	 2.0000000000000000e+02,	 0.0000000000000000e+00,	 3.0000000000000000e+02,	 1.0132500000000000e+05,	 3.4760788074254771e+02,	 5.7536094858599596e-01 
3.3665550000000000e+00,	 -4.8924729999999996e-03,	 1.1739927643084118e+00,	 2.0000000000000000e+02,	 0.0000000000000000e+00,	 3.0000000000000000e+02,	 1.0132500000000000e+05,	 3.4760788074254771e+02,	 5.7536094858599596e-01 
3.1793480000000001e+00,	 -4.8923429999999995e-03,	 1.1739927643084118e+00,	 2.0000000000000000e+02,	 0.0000000000000000e+00,	 3.0000000000000000e+02,	 1.0132500000000000e+05,	 3.4760788074254771e+02,	 5.7536094858599596e-01 
3.0054970000000001e+00,	 -4.8922919999999995e-03,	 1.1739927643084118e+00,	 2.0000000000000000e+02,	 0.0000000000000000e+00,	 3.0000000000000000e+02,	 1.0132500000000000e+05,	 3.4760788074254771e+02,	 5.7536094858599596e-01 
2.8442840000000000e+00,	 -4.8923140000000000e-03,	 1.1739927643084118e+00,	 2.0000000000000000e+02,	 0.0000000000000000e+00,	 3.0000000000000000e+02,	 1.0132500000000000e+05,	 3.4760788074254771e+02,	 5.7536094858599596e-01 
2.6949930000000002e+00,	 -4.8924009999999993e-03,	 1.1739927643084118e+00,	 2.0000000000000000e+02,	 0.0000000000000000e+00,	 3.0000000000000000e+02,	 1.0132500000000000e+05,	 3.4760788074254771e+02,	 5.7536094858599596e-01 
2.5569160000000002e+00,	 -4.8925480000000000e-03,	 1.1739927643084118e+00,	 2.0000000000000000e+02,	 0.0000000000000000e+00,	 3.0000000000000000e+02,	 1.0132500000000000e+05,	 3.4760788074254771e+02,	 5.7536094858599596e-01 
2.4293589999999998e+00,	 -4.8927449999999996e-03,	 1.1739927643084118e+00,	 2.0000000000000000e+02,	 0.0000000000000000e+00,	 3.0000000000000000e+02,	 1.0132500000000000e+05,	 3.4760788074254771e+02,	 5.7536094858599596e-01 
2.3116469999999998e+00,	 -4.8929849999999999e-03,	 1.1739927643084118e+00,	 2.0000000000000000e+02,	 0.0000000000000000e+00,	 3.0000000000000000e+02,	 1.0132500000000000e+05,	 3.4760788074254771e+02,	 5.7536094858599596e-01 
2.2031260000000001e+00,	 -4.8932600000000000e-03,	 1.1739927643084118e+00,	 2.0000000000000000e+02,	 0.0000000000000000e+00,	 3.0000000000000000e+02,	 1.0132500000000000e+05,	 3.4760788074254771e+02,	 5.7536094858599596e-01 
2.1031719999999998e+00,	 -4.8935619999999997e-03,	 1.1739927643084118e+00,	 2.0000000000000000e+02,	 0.0000000000000000e+00,	 3.0000000000000000e+02,	 1.0132500000000000e+05,	 3.4760788074254771e+02,	 5.7536094858599596e-01 
2.0111840000000001e+00,	 -4.8938839999999994e-03,	 1.1739927643084118e+00,	 2.0000000000000000e+02,	 0.0000000000000000e+00,	 3.0000000000000000e+02,	 1.0132500000000000e+05,	 3.4760788074254771e+02,	 5.7536094858599596e-01 
1.9265939999999999e+00,	 -4.8942190000000000e-03,	 1.1739927643084118e+00,	 2.0000000000000000e+02,	 0.0000000000000000e+00,	 3.0000000000000000e+02,	 1.0132500000000000e+05,	 3.4760788074254771e+02,	 5.7536094858599596e-01 