TITLE = "Final State"
VARIABLES = "X", "Y", "rho", "u", "v", "T", "p", "c", "M"
ZONE I=102, J=25, DATAPACKING=POINT, STRANDID=63000, SOLUTIONTIME=0.001520
1.1565000000000001e+00,	 2.8413739999999998e-01,	 5.2096082457832066e-02,	 1.5437766585612324e+03,	 1.9175467729987965e+01,	 6.1379480971583007e+02,	 9.1993727291653940e+03,	 4.9721084460866666e+02,	 3.1051127731909993e+00 
1.1579079999999999e+00,	 2.8412319999999996e-01,	 5.1902792071774423e-02,	 1.5442133546218060e+03,	 2.1406626776281389e+01,	 6.1293155652735516e+02,	 9.1523504221837338e+03,	 4.9686107799134709e+02,	 3.1082364676372705e+00 
1.1593270000000000e+00,	 2.8410879999999999e-01,	 5.1679244423469051e-02,	 1.5448233222384051e+03,	 2.4483864093086833e+01,	 6.1194448551413097e+02,	 9.0982552857674200e+03,	 4.9646084180443574e+02,	 3.1120628295647101e+00 
1.1607580000000000e+00,	 2.8409429999999997e-01,	 5.1455364530033312e-02,	 1.5454272111648697e+03,	 2.7508530765668162e+01,	 6.1094624004112802e+02,	 9.0440632948507646e+03,	 4.9605574618338630e+02,	 3.1159240245406927e+00 
1.1621999999999999e+00,	 2.8407959999999999e-01,	 5.1226974140686082e-02,	 1.5460328380259903e+03,	 3.0461588135190624e+01,	 6.0992634015108433e+02,	 8.9888892670239329e+03,	 4.9564152109277347e+02,	 3.1198615056481671e+00 
1.1636530000000000e+00,	 2.8406490000000001e-01,	 5.0998823722016258e-02,	 1.5466435158049030e+03,	 3.3364297188995764e+01,	 6.0888989708482484e+02,	 8.9336485828828208e+03,	 4.9522022215627464e+02,	 3.1238694890840164e+00 
1.1651170000000000e+00,	 2.8404999999999997e-01,	 5.0769897506853415e-02,	 1.5472480084420868e+03,	 3.6232675025244902e+01,	 6.0785247833155950e+02,	 8.8783940387460789e+03,	 4.9479816739316038e+02,	 3.1278858564161687e+00 
1.1665930000000000e+00,	 2.8403509999999998e-01,	 5.0545555670002615e-02,	 1.5478484448149416e+03,	 3.9070318445357287e+01,	 6.0681577988198910e+02,	 8.8240869446215311e+03,	 4.9437604573446146e+02,	 3.1319103750827022e+00 
1.1680809999999999e+00,	 2.8401999999999999e-01,	 5.0323414938939465e-02,	 1.5484342932781390e+03,	 4.1879881656338270e+01,	 6.0579133088207686e+02,	 8.7704746208126417e+03,	 4.9395855742869992e+02,	 3.1358917071721533e+00 
1.1695810000000000e+00,	 2.8400480000000000e-01,	 5.0107143517222022e-02,	 1.5490063351879926e+03,	 4.4655540893058649e+01,	 6.0478133510265502e+02,	 8.7182227753937968e+03,	 4.9354661345526591e+02,	 3.1398247613479513e+00 
1.1710920000000000e+00,	 2.8398940000000000e-01,	 4.9896223128533077e-02,	 1.5495577157344007e+03,	 4.7389371380384773e+01,	 6.0379377056999510e+02,	 8.6673480900132035e+03,	 4.9314348571221257e+02,	 3.1436736657009807e+00 
1.1726160000000001e+00,	 2.8397400000000000e-01,	 4.9694545820929831e-02,	 1.5500901712767854e+03,	 5.0068790692376012e+01,	 6.0282990036290926e+02,	 8.6185349755525931e+03,	 4.9274971205469956e+02,	 3.1474368176835417e+00 
1.1741520000000001e+00,	 2.8395840000000000e-01,	 4.9499688447512992e-02,	 1.5505921593788571e+03,	 5.2685434645676750e+01,	 6.0190337798770486e+02,	 8.5715464629287599e+03,	 4.9237089939958622e+02,	 3.1510533339502591e+00 
1.1756990000000000e+00,	 2.8394269999999999e-01,	 4.9316668515684961e-02,	 1.5510630388412319e+03,	 5.5217298400266074e+01,	 6.0101956460940323e+02,	 8.5273144484117020e+03,	 4.9200927669892366e+02,	 3.1545047204103951e+00 
1.1772600000000000e+00,	 2.8392689999999998e-01,	 4.9146320479072858e-02,	 1.5514958108732419e+03,	 5.7646443636444289e+01,	 6.0018935386906696e+02,	 8.4861212649525369e+03,	 4.9166934388590005e+02,	 3.1577449338383925e+00 
1.1788320000000001e+00,	 2.8391089999999997e-01,	 4.8990025096210268e-02,	 1.5518800155689687e+03,	 5.9948798887642745e+01,	 5.9942870008731791e+02,	 8.4484129215079975e+03,	 4.9135768497923362e+02,	 3.1607066219679587e+00 
1.1804170000000000e+00,	 2.8389480000000000e-01,	 4.8852840859622340e-02,	 1.5522106394861137e+03,	 6.2090460449424285e+01,	 5.9874969903704960e+02,	 8.4152121511320220e+03,	 4.9107931415887776e+02,	 3.1633423527095950e+00 
1.1820150000000000e+00,	 2.8387859999999998e-01,	 4.8737115742070972e-02,	 1.5524759855078273e+03,	 6.4035915907441634e+01,	 5.9817093249627510e+02,	 8.3871626775955192e+03,	 4.9084191195792965e+02,	 3.1655733760192146e+00 
1.1836260000000001e+00,	 2.8386230000000001e-01,	 4.8647019366804614e-02,	 1.5526641483279700e+03,	 6.5740839260275649e+01,	 5.9771505497452426e+02,	 8.3652778054992068e+03,	 4.9065483629764753e+02,	 3.1673085960375933e+00 
1.1852490000000000e+00,	 2.8384579999999998e-01,	 4.8585941869874028e-02,	 1.5527616231488282e+03,	 6.7161298871846355e+01,	 5.9740523896157106e+02,	 8.3504444354026964e+03,	 4.9052765828255571e+02,	 3.1684521261439182e+00 
1.1868860000000001e+00,	 2.8382920000000000e-01,	 4.8560603779845425e-02,	 1.5527581122227336e+03,	 6.8240453513702491e+01,	 5.9726284468463609e+02,	 8.3441002603184152e+03,	 4.9046919504075123e+02,	 3.1689184902948164e+00 
1.1885349999999999e+00,	 2.8381249999999997e-01,	 4.8574877462919636e-02,	 1.5526373621564185e+03,	 6.8925108309949451e+01,	 5.9731814543695111e+02,	 8.3473256971335231e+03,	 4.9049190086273939e+02,	 3.1685874480397165e+00 
1.1901980000000001e+00,	 2.8379559999999998e-01,	 4.8633634015740043e-02,	 1.5523848198294199e+03,	 6.9134766989914553e+01,	 5.9759756227983053e+02,	 8.3613321699844983e+03,	 4.9060660998005642e+02,	 3.1673513334484866e+00 
1.1918740000000001e+00,	 2.8377859999999999e-01,	 4.8744822943170799e-02,	 1.5519888895848121e+03,	 6.8857874046918880e+01,	 5.9812731014611029e+02,	 8.3878772677685611e+03,	 4.9082401400687735e+02,	 3.1651174764975059e+00 
1.1935640000000001e+00,	 2.8376150000000000e-01,	 4.8908097442550882e-02,	 1.5514511617634398e+03,	 6.8011331329917567e+01,	 5.9890922468284577e+02,	 8.4269750602070726e+03,	 4.9114472924594151e+02,	 3.1618809450765109e+00 
1.1952670000000001e+00,	 2.8374420000000000e-01,	 4.9121115046687702e-02,	 1.5507671540309921e+03,	 6.6560853590743719e+01,	 5.9994555459573996e+02,	 8.4783237016531912e+03,	 4.9156947473357866e+02,	 3.1576308412537197e+00 
1.1969840000000000e+00,	 2.8372680000000000e-01,	 4.9390977661472366e-02,	 1.5499333661023047e+03,	 6.4595694545736265e+01,	 6.0126737206479675e+02,	 8.5436844065602563e+03,	 4.9211069685978572e+02,	 3.1522965281689386e+00 
1.1987140000000001e+00,	 2.8370919999999999e-01,	 4.9706371161622895e-02,	 1.5489782211661532e+03,	 6.2086310055254245e+01,	 6.0281461605617960e+02,	 8.6203672781584100e+03,	 4.9274346536266091e+02,	 3.1461036134032381e+00 
1.2004589999999999e+00,	 2.8369159999999999e-01,	 5.0061866456335390e-02,	 1.5479312245321030e+03,	 5.9106086929365162e+01,	 6.0454298808592102e+02,	 8.7069121607681645e+03,	 4.9344934941242320e+02,	 3.1392467463846394e+00 
1.2022180000000000e+00,	 2.8367369999999997e-01,	 5.0442525519884290e-02,	 1.5468162245696046e+03,	 5.5762089298337585e+01,	 6.0640507810142526e+02,	 8.8001401620907527e+03,	 4.9420871695370624e+02,	 3.1319176399299709e+00 
1.2039899999999999e+00,	 2.8365570000000001e-01,	 5.0839445474056236e-02,	 1.5456785832395688e+03,	 5.2161818223293174e+01,	 6.0832795754442498e+02,	 8.8975106925677464e+03,	 4.9499165204739040e+02,	 3.1244132613398312e+00 
1.2057780000000000e+00,	 2.8363759999999999e-01,	 5.1236478966591073e-02,	 1.5445555482853770e+03,	 4.8424786673510553e+01,	 6.1024371093182981e+02,	 8.9952352675860493e+03,	 4.9577045607125268e+02,	 3.1169958758252916e+00 
1.2075790000000000e+00,	 2.8361929999999996e-01,	 5.1618985060253940e-02,	 1.5434821120803301e+03,	 4.4664931060034888e+01,	 6.1208766615249101e+02,	 9.0897727757873454e+03,	 4.9651891849639651e+02,	 3.1099081446529357e+00 
1.2093950000000000e+00,	 2.8360089999999999e-01,	 5.1976627554475463e-02,	 1.5424937100932066e+03,	 4.0973644881303386e+01,	 6.1379980755217275e+02,	 9.1783535514549167e+03,	 4.9721286887909986e+02,	 3.1033746455099975e+00 
1.2112259999999999e+00,	 2.8358230000000001e-01,	 5.2298261405132461e-02,	 1.5416114571369924e+03,	 3.7421471376993026e+01,	 6.1533899714786264e+02,	 9.2583080814199438e+03,	 4.9783589424367699e+02,	 3.0975379583336986e+00 
1.2130719999999999e+00,	 2.8356359999999997e-01,	 5.2578629766407828e-02,	 1.5408545589561904e+03,	 3.4051989434507391e+01,	 6.1667314451713321e+02,	 9.3281224225791302e+03,	 4.9837529352396757e+02,	 3.0925103985558056e+00 
1.2149319999999999e+00,	 2.8354469999999998e-01,	 5.2812509249334907e-02,	 1.5402280894967489e+03,	 3.0885336854181766e+01,	 6.1778949123680002e+02,	 9.3865772005634917e+03,	 4.9882618721536966e+02,	 3.0883256755447563e+00 
1.2168079999999999e+00,	 2.8352569999999999e-01,	 5.3000504161964085e-02,	 1.5397366826513551e+03,	 2.7918093923168513e+01,	 6.1868212014402206e+02,	 9.4336009969523548e+03,	 4.9918642800779509e+02,	 3.0849992651167391e+00 
1.2186990000000000e+00,	 2.8350649999999999e-01,	 5.3142018122298643e-02,	 1.5393726367164832e+03,	 2.5134198464484854e+01,	 6.1936064799348253e+02,	 9.4691629240686016e+03,	 4.9946008960587994e+02,	 3.0824841566809833e+00 
1.2206049999999999e+00,	 2.8348719999999999e-01,	 5.3240999843144676e-02,	 1.5391314275251843e+03,	 2.2506263243837239e+01,	 6.1983491935518009e+02,	 9.4940645347014761e+03,	 4.9965128215877957e+02,	 3.0807405582784853e+00 
1.2225269999999999e+00,	 2.8346769999999999e-01,	 5.3299675118215858e-02,	 1.5389996667748928e+03,	 2.0002681819060779e+01,	 6.2012493872980417e+02,	 9.5089747996711430e+03,	 4.9976816134808041e+02,	 3.0796872824628476e+00 
1.2244640000000000e+00,	 2.8344809999999998e-01,	 5.3323511020233950e-02,	 1.5389687917170772e+03,	 1.7588743837340651e+01,	 6.2024720435561994e+02,	 9.5151029198504548e+03,	 4.9981742678767773e+02,	 3.0792629789996186e+00 
1.2264170000000001e+00,	 2.8342829999999997e-01,	 5.3315460751884550e-02,	 1.5390233020958599e+03,	 1.5249509192201433e+01,	 6.2022519938845244e+02,	 9.5133288982153645e+03,	 4.9980856051343994e+02,	 3.0793767298043200e+00 
1.2283860000000000e+00,	 2.8340830000000000e-01,	 5.3279534106333466e-02,	 1.5391555576093633e+03,	 1.2924747523760784e+01,	 6.2007406380256202e+02,	 9.5046017053462820e+03,	 4.9974766048707716e+02,	 3.0799740445594361e+00 
1.2303710000000001e+00,	 2.8338809999999998e-01,	 5.3218610030826417e-02,	 1.5393544251839578e+03,	 1.0585005698360153e+01,	 6.1980832927273957e+02,	 9.4896648176412655e+03,	 4.9964056486062668e+02,	 3.0809964715817073e+00 
1.2323720000000000e+00,	 2.8336780000000000e-01,	 5.3140396709535166e-02,	 1.5396067994282339e+03,	 8.2628537846251469e+00,	 6.1945529154765177e+02,	 9.4703209352039612e+03,	 4.9949824901469697e+02,	 3.0823510895070836e+00 
1.2343890000000000e+00,	 2.8334739999999997e-01,	 5.3043723593089703e-02,	 1.5399094931110494e+03,	 5.9035369297556439e+00,	 6.1901522390368950e+02,	 9.4463769306240483e+03,	 4.9932079305148380e+02,	 3.0840310090560181e+00 
1.2364230000000000e+00,	 2.8332679999999999e-01,	 5.2931525714611363e-02,	 1.5402520324258182e+03,	 3.5044677126375365e+00,	 6.1850556560314681e+02,	 9.4186348876865650e+03,	 4.9911519601615288e+02,	 3.0859730008129134e+00 
1.2384729999999999e+00,	 2.8330600000000000e-01,	 5.2806934666646835e-02,	 1.5406285722178770e+03,	 1.0590595910119562e+00,	 6.1793651040586587e+02,	 9.3878199536093089e+03,	 4.9888553805412374e+02,	 3.0881411039425726e+00 
1.2405409999999999e+00,	 2.8328500000000001e-01,	 5.2671677100355627e-02,	 1.5410336323726326e+03,	 -1.4374453797225422e+00,	 6.1731646232656817e+02,	 9.3543785961892954e+03,	 4.9863518008779721e+02,	 3.0905045699168534e+00 
1.2426250000000001e+00,	 2.8326380000000001e-01,	 5.2527149548783916e-02,	 1.5414614339347715e+03,	 -3.9868100381282119e+00,	 6.1665365854195647e+02,	 9.3186947060257753e+03,	 4.9836741949426329e+02,	 3.0930324281626747e+00 
1.2447260000000000e+00,	 2.8324250000000001e-01,	 5.2375935779533103e-02,	 1.5419108595070197e+03,	 -6.5917750186106385e+00,	 6.1595048353107904e+02,	 9.2812727036948327e+03,	 4.9808319230287191e+02,	 3.0957176901703569e+00 
1.2468440000000001e+00,	 2.8322110000000000e-01,	 5.2217912813804529e-02,	 1.5423765231871457e+03,	 -9.2481008823085915e+00,	 6.1521452315768829e+02,	 9.2422141102687783e+03,	 4.9778553927300521e+02,	 3.0985316508606027e+00 
1.2489790000000001e+00,	 2.8319939999999999e-01,	 5.2053507550102282e-02,	 1.5428520088599371e+03,	 -1.1954359176276606e+01,	 6.1445390151162019e+02,	 9.2017248480052167e+03,	 4.9747772505268091e+02,	 3.1014420203701460e+00 
1.2511319999999999e+00,	 2.8317759999999997e-01,	 5.1886069283605681e-02,	 1.5433410999606040e+03,	 -1.4709442545064560e+01,	 6.1366641851502141e+02,	 9.1603710776645785e+03,	 4.9715883957778937e+02,	 3.1044629455925521e+00 
1.2533030000000001e+00,	 2.8315550000000000e-01,	 5.1713559552667335e-02,	 1.5438364953471323e+03,	 -1.7508880431740103e+01,	 6.1286063848435560e+02,	 9.1179267510449390e+03,	 4.9683233299182996e+02,	 3.1075589792483731e+00 
1.2554909999999999e+00,	 2.8313329999999998e-01,	 5.1539861362217901e-02,	 1.5443418831760828e+03,	 -2.0352661200554280e+01,	 6.1203323643573094e+02,	 9.0750325327740193e+03,	 4.9649684160575885e+02,	 3.1107468574551254e+00 
1.2576970000000001e+00,	 2.8311100000000000e-01,	 5.1363590204489551e-02,	 1.5448515047706364e+03,	 -2.3233561629141612e+01,	 6.1119044772320660e+02,	 9.0315412095501961e+03,	 4.9615487808145059e+02,	 3.1139998254038637e+00 
1.2599220000000000e+00,	 2.8308839999999996e-01,	 5.1184281111343238e-02,	 1.5453589343848012e+03,	 -2.6145457474639954e+01,	 6.1034084566893580e+02,	 8.9875015961434910e+03,	 4.9580991130519624e+02,	 3.1172835734765085e+00 
1.2621640000000001e+00,	 2.8306559999999997e-01,	 5.1004551218711974e-02,	 1.5458663910220143e+03,	 -2.9087119681013249e+01,	 6.0948263608773027e+02,	 8.9433495481465397e+03,	 4.9546120573909741e+02,	 3.1206076307011976e+00 
1.2644249999999999e+00,	 2.8304269999999998e-01,	 5.0824586401522688e-02,	 1.5463738723937390e+03,	 -3.2054364206870098e+01,	 6.0861553550011513e+02,	 8.8991151131772822e+03,	 4.9510863817821479e+02,	 3.1239730850023437e+00 
1.2667050000000000e+00,	 2.8301959999999998e-01,	 5.0643469867338260e-02,	 1.5468768362910448e+03,	 -3.5040385231720876e+01,	 6.0774521214255071e+02,	 8.8547221386304591e+03,	 4.9475450757655085e+02,	 3.1273563658675556e+00 
1.2690030000000001e+00,	 2.8299629999999998e-01,	 5.0462327218949027e-02,	 1.5473754614656084e+03,	 -3.8041048572644172e+01,	 6.0687243339148210e+02,	 8.8103796562864009e+03,	 4.9439912315370100e+02,	 3.1307559489184880e+00 
1.2713200000000000e+00,	 2.8297279999999997e-01,	 5.0281364951504204e-02,	 1.5478694471686322e+03,	 -4.1051256942475575e+01,	 6.0599774479753262e+02,	 8.7661319620766681e+03,	 4.9404270458538747e+02,	 3.1341697794618804e+00 
1.2736559999999999e+00,	 2.8294910000000001e-01,	 5.0100694165666183e-02,	 1.5483579969514781e+03,	 -4.4064333944707428e+01,	 6.0512260072510628e+02,	 8.7220195222460134e+03,	 4.9368584289962359e+02,	 3.1375922568382961e+00 
1.2760110000000000e+00,	 2.8292519999999999e-01,	 4.9920406467938015e-02,	 1.5488411108945243e+03,	 -4.7073499143503184e+01,	 6.0424727168393065e+02,	 8.6780619973373759e+03,	 4.9332864756161166e+02,	 3.1410223171710165e+00 
1.2783860000000000e+00,	 2.8290110000000002e-01,	 4.9740648387674100e-02,	 1.5493190055541022e+03,	 -5.0070153328680377e+01,	 6.0337223923441638e+02,	 8.6342914533318617e+03,	 4.9297131457001166e+02,	 3.1444585522000192e+00 
1.2807800000000000e+00,	 2.8287679999999998e-01,	 4.9561201276889684e-02,	 1.5497921125876892e+03,	 -5.3045368726909274e+01,	 6.0249730077781010e+02,	 8.5906666562400769e+03,	 4.9261376080089389e+02,	 3.1479016077732846e+00 
1.2831939999999999e+00,	 2.8285230000000000e-01,	 4.9381967858333514e-02,	 1.5502612551317677e+03,	 -5.5987696042979138e+01,	 6.0162243285901400e+02,	 8.5471701864335409e+03,	 4.9225597617752203e+02,	 3.1513521394895561e+00 
1.2856280000000000e+00,	 2.8282760000000001e-01,	 4.9203188833007339e-02,	 1.5507276274496844e+03,	 -5.8884149556466582e+01,	 6.0074669940642298e+02,	 8.5038302217755718e+03,	 4.9189757696377660e+02,	 3.1548136652193488e+00 
1.2880810000000000e+00,	 2.8280279999999997e-01,	 4.9024766091993410e-02,	 1.5511944478845789e+03,	 -6.1719369329106193e+01,	 5.9986743121488496e+02,	 8.4605919741233065e+03,	 4.9153746822960011e+02,	 3.1582980273774854e+00 
1.2905549999999999e+00,	 2.8277769999999997e-01,	 4.8845127667150386e-02,	 1.5516591034724388e+03,	 -6.4475211945223549e+01,	 5.9898875495197649e+02,	 8.4172428193572578e+03,	 4.9117733817416797e+02,	 3.1617869067584183e+00 
1.2930500000000000e+00,	 2.8275240000000001e-01,	 4.8666204739809815e-02,	 1.5521268705437951e+03,	 -6.7131893612459692e+01,	 5.9810657408429370e+02,	 8.3740585355061885e+03,	 4.9081550591408859e+02,	 3.1652992881023376e+00 
1.2955639999999999e+00,	 2.8272690000000000e-01,	 4.8486636699365551e-02,	 1.5525971182681669e+03,	 -6.9665163506664101e+01,	 5.9722349025236406e+02,	 8.3308416346389095e+03,	 4.9045303594525353e+02,	 3.1688238411349046e+00 
1.2981000000000000e+00,	 2.8270109999999998e-01,	 4.8306884502240632e-02,	 1.5530699404894240e+03,	 -7.2050097853272121e+01,	 5.9634155713740620e+02,	 8.2877003726162857e+03,	 4.9009077074080886e+02,	 3.1723517578720219e+00 
1.3006570000000000e+00,	 2.8267520000000002e-01,	 4.8129061673999399e-02,	 1.5535491944238220e+03,	 -7.4257058850815696e+01,	 5.9545960780994869e+02,	 8.2449806216840025e+03,	 4.8972823089219867e+02,	 3.1758897395927872e+00 
1.3032340000000000e+00,	 2.8264909999999999e-01,	 4.7952102343384456e-02,	 1.5540297588553481e+03,	 -7.6251309844025954e+01,	 5.9458755115798931e+02,	 8.2026352900602087e+03,	 4.8936949351289627e+02,	 3.1793958548808798e+00 
1.3058330000000000e+00,	 2.8262270000000000e-01,	 4.7778136988601581e-02,	 1.5545087883083286e+03,	 -7.7996520336308720e+01,	 5.9373429733666239e+02,	 8.1611485999437809e+03,	 4.8901823632702354e+02,	 3.1828348237533484e+00 
1.3084530000000001e+00,	 2.8259610000000002e-01,	 4.7610160209324362e-02,	 1.5549839578526805e+03,	 -7.9452440569599275e+01,	 5.9290852553209572e+02,	 8.1211452022733392e+03,	 4.8867805219129565e+02,	 3.1861722716290579e+00 
1.3110949999999999e+00,	 2.8256929999999997e-01,	 4.7450473487846992e-02,	 1.5554483501158365e+03,	 -8.0574646130248667e+01,	 5.9212473250333744e+02,	 8.0832067914899153e+03,	 4.8835494238464076e+02,	 3.1893480803392213e+00 
1.3137589999999999e+00,	 2.8254229999999997e-01,	 4.7302243348603966e-02,	 1.5558926757631589e+03,	 -8.1313699103228757e+01,	 5.9140264319015000e+02,	 8.0481291445635652e+03,	 4.8805707992422379e+02,	 3.1922823983687669e+00 
1.3164450000000001e+00,	 2.8251500000000002e-01,	 4.7169829643448388e-02,	 1.5563044616514646e+03,	 -8.1616933647628272e+01,	 5.9076560330000257e+02,	 8.0169550076655014e+03,	 4.8779414941204317e+02,	 3.1948786256895167e+00 
1.3191530000000000e+00,	 2.8248760000000001e-01,	 4.7055420765424141e-02,	 1.5566762321197291e+03,	 -8.1443486786616404e+01,	 5.9023024475914690e+02,	 7.9902627105857355e+03,	 4.8757307699980151e+02,	 3.1970700677938781e+00 
1.3218829999999999e+00,	 2.8245989999999999e-01,	 4.6967604360260151e-02,	 1.5569907153276245e+03,	 -8.0749431401606330e+01,	 5.8982508866065109e+02,	 7.9698764352077114e+03,	 4.8740570408112853e+02,	 3.1987381966284461e+00 
1.3246359999999999e+00,	 2.8243200000000002e-01,	 4.6913893391666239e-02,	 1.5572359690262256e+03,	 -7.9443090968030788e+01,	 5.8957557147054558e+02,	 7.9573945971089734e+03,	 4.8730259811905802e+02,	 3.1997799123832715e+00 
1.3274120000000000e+00,	 2.8240379999999998e-01,	 4.6891599330431619e-02,	 1.5573957563481017e+03,	 -7.7519555099465990e+01,	 5.8950607703756282e+02,	 7.9526756369367704e+03,	 4.8727387761453485e+02,	 3.2000973311498844e+00 
1.3302099999999999e+00,	 2.8237540000000000e-01,	 4.6903185941252826e-02,	 1.5574841360271007e+03,	 -7.5010623446620755e+01,	 5.8960446238023746e+02,	 7.9559682776956797e+03,	 4.8731453759176270e+02,	 3.1997596582925718e+00 
1.3330320000000000e+00,	 2.8234680000000001e-01,	 4.6949899058414596e-02,	 1.5574561463667812e+03,	 -7.1888747566326515e+01,	 5.8987991200125305e+02,	 7.9676125523604587e+03,	 4.8742835536245315e+02,	 3.1986534218361431e+00 
1.3358770000000000e+00,	 2.8231790000000001e-01,	 4.7030503886216261e-02,	 1.5573490267436289e+03,	 -6.8191751915257157e+01,	 5.9032629502513146e+02,	 7.9873312862438015e+03,	 4.8761274763599687e+02,	 3.1968837523254541e+00 
1.3387460000000000e+00,	 2.8228880000000001e-01,	 4.7139009217403938e-02,	 1.5571695555546194e+03,	 -6.4017620535543699e+01,	 5.9090150679984288e+02,	 8.0135598537579372e+03,	 4.8785025382939779e+02,	 3.1945969462408836e+00 
1.3416390000000000e+00,	 2.8225950000000000e-01,	 4.7267063874414775e-02,	 1.5569331936456349e+03,	 -5.9457202440855752e+01,	 5.9156845622636706e+02,	 8.0443984114097248e+03,	 4.8812549402046108e+02,	 3.1919416108122443e+00 
1.3445549999999999e+00,	 2.8222989999999998e-01,	 4.7404853318976758e-02,	 1.5566633418916872e+03,	 -5.4622826471407066e+01,	 5.9227900987633234e+02,	 8.0775394225944092e+03,	 4.8841855838185370e+02,	 3.1891118165600743e+00 
1.3474960000000000e+00,	 2.8220010000000001e-01,	 4.7542604641937353e-02,	 1.5563901778998008e+03,	 -4.9632516213631142e+01,	 5.9297711876382130e+02,	 8.1105600488827295e+03,	 4.8870631880917045e+02,	 3.1863335813800315e+00 
1.3504609999999999e+00,	 2.8216999999999998e-01,	 4.7669342580229673e-02,	 1.5561370249160636e+03,	 -4.4599586114107211e+01,	 5.9361753428099030e+02,	 8.1409637444701211e+03,	 4.8897014910067259e+02,	 3.1837853878639231e+00 
1.3534500000000000e+00,	 2.8213969999999999e-01,	 4.7777752149679199e-02,	 1.5559290107140760e+03,	 -3.9620636575395721e+01,	 5.9415850789710930e+02,	 8.1669137848621558e+03,	 4.8919290171202493e+02,	 3.1816352594696893e+00 
1.3564650000000000e+00,	 2.8210910000000000e-01,	 4.7860664039793506e-02,	 1.5557818660412854e+03,	 -3.4767295244763694e+01,	 5.9457286267925747e+02,	 8.1867917031627157e+03,	 4.8936344887087756e+02,	 3.1799888123536393e+00 
1.3595040000000000e+00,	 2.8207830000000000e-01,	 4.7915140319684538e-02,	 1.5557165699741520e+03,	 -3.0087118411693933e+01,	 5.9484146583767063e+02,	 8.1998127869251748e+03,	 4.8947397336189522e+02,	 3.1789381369294722e+00 
1.3625689999999999e+00,	 2.8204720000000000e-01,	 4.7939051812843386e-02,	 1.5557127605261621e+03,	 -2.5601866242885016e+01,	 5.9496687123031927e+02,	 8.2056343678988887e+03,	 4.8952556647072271e+02,	 3.1784313500436845e+00 
1.3656590000000000e+00,	 2.8201579999999998e-01,	 4.7933723186352722e-02,	 1.5557917266274271e+03,	 -2.1302423712241890e+01,	 5.9494159045191532e+02,	 8.2043736498336075e+03,	 4.8951516612791943e+02,	 3.1785277912347842e+00 
1.3687739999999999e+00,	 2.8198419999999996e-01,	 4.7902308907515276e-02,	 1.5559443080672031e+03,	 -1.7204885199064115e+01,	 5.9478662995477384e+02,	 8.1968612188306088e+03,	 4.8945141158902169e+02,	 3.1791499421536984e+00 
1.3719159999999999e+00,	 2.8195239999999999e-01,	 4.7833005065414227e-02,	 1.5562037284779831e+03,	 -1.3419694991724125e+01,	 5.9445272030906722e+02,	 8.1804071973767605e+03,	 4.8931400475844083e+02,	 3.1804967232810841e+00 
1.3750830000000001e+00,	 2.8192020000000001e-01,	 4.7759016683406354e-02,	 1.5563985883664534e+03,	 -1.1053522572738524e+01,	 5.9410639096303498e+02,	 8.1629951442980246e+03,	 4.8917144633187309e+02,	 3.1817839134512753e+00 
1.1565000000000001e+00,	 2.8488340000000001e-01,	 5.1759305404118619e-02,	 1.5445719646299776e+03,	 2.2127137097838407e+01,	 6.1212849815497680e+02,	 9.1150903116010250e+03,	 4.9653547946039913e+02,	 3.1110172670629574e+00 
1.1579079999999999e+00,	 2.8486970000000000e-01,	 5.1562225299612116e-02,	 1.5450325836061356e+03,	 2.4262209072327114e+01,	 6.1121228689165559e+02,	 9.0667922702728065e+03,	 4.9616374235052274e+02,	 3.1143409707722705e+00 
1.1593279999999999e+00,	 2.8485590000000000e-01,	 5.1325202101509641e-02,	 1.5456873628531073e+03,	 2.7120548172456274e+01,	 6.1011692986410139e+02,	 9.0089397370072329e+03,	 4.9571895404709966e+02,	 3.1185518725274446e+00 
1.1607580000000000e+00,	 2.8484199999999998e-01,	 5.1101142670622705e-02,	 1.5463093249393489e+03,	 3.0077108882886179e+01,	 6.0908033776391255e+02,	 8.9543719200932064e+03,	 4.9529766037847173e+02,	 3.1225703943811789e+00 
1.1621999999999999e+00,	 2.8482799999999997e-01,	 5.0879318586131865e-02,	 1.5469179626828168e+03,	 3.3031418757363078e+01,	 6.0805865807186115e+02,	 8.9005470536230496e+03,	 4.9488207649269225e+02,	 3.1265439925602285e+00 
1.1636530000000000e+00,	 2.8481390000000001e-01,	 5.0658631656789792e-02,	 1.5475226095147900e+03,	 3.5944248864648657e+01,	 6.0703445136623805e+02,	 8.8470143532044567e+03,	 4.9446511412210111e+02,	 3.1305342821377127e+00 
1.1651180000000001e+00,	 2.8479959999999999e-01,	 5.0437821689562068e-02,	 1.5481188491006233e+03,	 3.8809010791592442e+01,	 6.0601213229961263e+02,	 8.7936176466896195e+03,	 4.9404856929223814e+02,	 3.1345201883300886e+00 
1.1665939999999999e+00,	 2.8478529999999996e-01,	 5.0219875819803229e-02,	 1.5487062225099526e+03,	 4.1628038719089453e+01,	 6.0499508770788907e+02,	 8.7409255329474545e+03,	 4.9363382477306629e+02,	 3.1384915471034667e+00 
1.1680820000000001e+00,	 2.8477079999999999e-01,	 5.0005204597986713e-02,	 1.5492788101876067e+03,	 4.4401112236079456e+01,	 6.0399279175634194e+02,	 8.6891421407672715e+03,	 4.9322475345627845e+02,	 3.1424110797608065e+00 
1.1695810000000000e+00,	 2.8475620000000001e-01,	 4.9796325142270038e-02,	 1.5498338863058536e+03,	 4.7124013597021083e+01,	 6.0301144465403672e+02,	 8.6387874007125283e+03,	 4.9282390310191767e+02,	 3.1462559624940689e+00 
1.1710929999999999e+00,	 2.8474149999999998e-01,	 4.9593506026452149e-02,	 1.5503643001970772e+03,	 4.9789932853831985e+01,	 6.0206043299454564e+02,	 8.5900330745819465e+03,	 4.9243513252575167e+02,	 3.1499856392876207e+00 
1.1726160000000001e+00,	 2.8472670000000000e-01,	 4.9399995737222001e-02,	 1.5508687140178965e+03,	 5.2386098993124342e+01,	 6.0114484469327135e+02,	 8.5435029937248892e+03,	 4.9206055269334632e+02,	 3.1535818438753536e+00 
1.1741520000000001e+00,	 2.8471180000000001e-01,	 4.9216527126771138e-02,	 1.5513404486640818e+03,	 5.4895599510069445e+01,	 6.0027590784179756e+02,	 8.4994694252869667e+03,	 4.9170479469868093e+02,	 3.1569987257052166e+00 
1.1757000000000000e+00,	 2.8469679999999997e-01,	 4.9045492774338603e-02,	 1.5517722644859352e+03,	 5.7298445271481384e+01,	 5.9946489096389485e+02,	 8.4584890723326935e+03,	 4.9137251776662595e+02,	 3.1601884655523422e+00 
1.1772600000000000e+00,	 2.8468159999999998e-01,	 4.8890078151227853e-02,	 1.5521591277389475e+03,	 5.9568939213548241e+01,	 5.9872343311488760e+02,	 8.4212570716472492e+03,	 4.9106854271922253e+02,	 3.1631058473050064e+00 
1.1788330000000000e+00,	 2.8466629999999998e-01,	 4.8752451047548939e-02,	 1.5524904581916669e+03,	 6.1675984436576307e+01,	 5.9806920008170391e+02,	 8.3883748535379109e+03,	 4.9080017083221924e+02,	 3.1656775452413584e+00 
1.1804180000000000e+00,	 2.8465089999999998e-01,	 4.8636668121425856e-02,	 1.5527566418829633e+03,	 6.3583741340217486e+01,	 5.9751979972153651e+02,	 8.3607657195877418e+03,	 4.9057468877698119e+02,	 3.1678314752394572e+00 
1.1820160000000000e+00,	 2.8463539999999998e-01,	 4.8546782480402104e-02,	 1.5529455549397248e+03,	 6.5248689515471369e+01,	 5.9709659814763995e+02,	 8.3394034686242030e+03,	 4.9040092988687286e+02,	 3.1694795074107169e+00 
1.1836260000000001e+00,	 2.8461969999999998e-01,	 4.8488138980109022e-02,	 1.5530464470480958e+03,	 6.6616857272096112e+01,	 5.9682517340369930e+02,	 8.3255433443837355e+03,	 4.9028945539729881e+02,	 3.1705240964139723e+00 
1.1852499999999999e+00,	 2.8460389999999997e-01,	 4.8463431299274641e-02,	 1.5530466157596425e+03,	 6.7652058237964425e+01,	 5.9672464334072788e+02,	 8.3198993178835881e+03,	 4.9024816113914210e+02,	 3.1708826912994654e+00 
1.1868860000000001e+00,	 2.8458800000000001e-01,	 4.8480458874387913e-02,	 1.5529283249298389e+03,	 6.8286300096865787e+01,	 5.9683239200989851e+02,	 8.3243253312363195e+03,	 4.9029242041616715e+02,	 3.1704119792932253e+00 
1.1885360000000000e+00,	 2.8457199999999999e-01,	 4.8543168985352304e-02,	 1.5526808358035901e+03,	 6.8467461191659154e+01,	 5.9716644592783575e+02,	 8.3397582023844425e+03,	 4.9042961236035416e+02,	 3.1690371950401270e+00 
1.1901980000000001e+00,	 2.8455579999999997e-01,	 4.8654809983558756e-02,	 1.5522918360988967e+03,	 6.8124992517830123e+01,	 5.9774585320600954e+02,	 8.3670485732125690e+03,	 4.9066747702540596e+02,	 3.1666782105430888e+00 
1.1918750000000000e+00,	 2.8453950000000000e-01,	 4.8821400996397250e-02,	 1.5517501383011406e+03,	 6.7250573041590087e+01,	 5.9859835021459071e+02,	 8.4076706505558177e+03,	 4.9101724400379396e+02,	 3.1632427255763136e+00 
1.1935640000000001e+00,	 2.8452309999999997e-01,	 4.9043872740599639e-02,	 1.5510629141549348e+03,	 6.5823119594141843e+01,	 5.9972058424071702e+02,	 8.4618174076946962e+03,	 4.9147730059577697e+02,	 3.1587602640652670e+00 
1.1952670000000001e+00,	 2.8450650000000000e-01,	 4.9316373419031737e-02,	 1.5502380515076061e+03,	 6.3821329558797494e+01,	 6.0108634656573099e+02,	 8.5282109255895775e+03,	 4.9203661060890221e+02,	 3.1533247392111936e+00 
1.1969840000000000e+00,	 2.8448989999999996e-01,	 4.9638987319457525e-02,	 1.5492811784589057e+03,	 6.1331026642099367e+01,	 6.0269144823454542e+02,	 8.6069222449993904e+03,	 4.9269312381650036e+02,	 3.1469784673000780e+00 
1.1987150000000000e+00,	 2.8447299999999998e-01,	 5.0001274883517639e-02,	 1.5482195256916375e+03,	 5.8415408475919399e+01,	 6.0448641380037111e+02,	 8.6955600667827312e+03,	 4.9342625990671422e+02,	 3.1399244158889443e+00 
1.2004589999999999e+00,	 2.8445609999999999e-01,	 5.0393410491502949e-02,	 1.5470909436276659e+03,	 5.5158850100400741e+01,	 6.0640565718772950e+02,	 8.7915800109337379e+03,	 4.9420895292586533e+02,	 3.1324279312418910e+00 
1.2022180000000000e+00,	 2.8443900000000000e-01,	 5.0800593880366562e-02,	 1.5459294789168648e+03,	 5.1675624687799520e+01,	 6.0838550871546408e+02,	 8.8915523094251566e+03,	 4.9501506596018493e+02,	 3.1247390676302187e+00 
1.2039910000000000e+00,	 2.8442170000000000e-01,	 5.1209651735849827e-02,	 1.5447726810346194e+03,	 4.8086389947069584e+01,	 6.1035681232914976e+02,	 8.9921916824039145e+03,	 4.9581639651478645e+02,	 3.1171234720022909e+00 