TITLE = "Final State"
VARIABLES = "X", "Y", "rho", "u", "v", "T", "p", "c", "M"
ZONE I=48, J=48, DATAPACKING=POINT
2.6491699999999998e+00,	 2.0000000000000001e-01,	 1.3898448333155365e-02,	 5.5307806639814294e+02,	 2.5753239758962820e-02,	 6.6004384056988636e+02,	 2.6391801558114767e+03,	 4.9301069981850588e+02,	 1.1218378570715204e+00 
2.6566350000000001e+00,	 2.0000000000000001e-01,	 1.3864577507798454e-02,	 5.5414929768311504e+02,	 3.0632020897750536e-02,	 6.5949408794638589e+02,	 2.6305555909529949e+03,	 4.9280534195532528e+02,	 1.1244790820063442e+00 
2.6640990000000002e+00,	 2.0000000000000001e-01,	 1.3810266849767647e-02,	 5.5595757794311567e+02,	 2.8346560858123232e-02,	 6.5857155668341920e+02,	 2.6165857848692699e+03,	 4.9246054171906820e+02,	 1.1289383241244986e+00 
2.6715640000000000e+00,	 2.0000000000000001e-01,	 1.3755926550590523e-02,	 5.5774684112128830e+02,	 2.6415231153373721e-02,	 6.5765347233736418e+02,	 2.6026567980381546e+03,	 4.9211716369903576e+02,	 1.1333618960868239e+00 
2.6790280000000002e+00,	 2.0000000000000001e-01,	 1.3701271856254181e-02,	 5.5951852847724240e+02,	 2.5555142842627859e-02,	 6.5673491136736016e+02,	 2.5886952365938550e+03,	 4.9177336746565578e+02,	 1.1377568735458485e+00 
2.6864930000000000e+00,	 2.0000000000000001e-01,	 1.3646264744732749e-02,	 5.6127118074132295e+02,	 2.4930890790775616e-02,	 6.5581558724037222e+02,	 2.5746930735931292e+03,	 4.9142904478583898e+02,	 1.1421204897232284e+00 
2.6939570000000002e+00,	 2.0000000000000001e-01,	 1.3590946500776014e-02,	 5.6299477432672461e+02,	 2.4448033683816511e-02,	 6.5489643290614549e+02,	 2.5606620511743763e+03,	 4.9108454434598895e+02,	 1.1464314675334184e+00 
2.7014220000000000e+00,	 2.0000000000000001e-01,	 1.3535170244116511e-02,	 5.6468290880347126e+02,	 2.3421235896915131e-02,	 6.5397462720598025e+02,	 2.5465637877297272e+03,	 4.9073880728223423e+02,	 1.1506791411432622e+00 
2.7088860000000001e+00,	 2.0000000000000001e-01,	 1.3478850562256853e-02,	 5.6632658594600798e+02,	 2.2385176780966659e-02,	 6.5304821866574707e+02,	 2.5323751607550798e+03,	 4.9039109827293350e+02,	 1.1548467914342539e+00 
2.7163499999999998e+00,	 2.0000000000000001e-01,	 1.3422138733058376e-02,	 5.6793176559562062e+02,	 2.3439494488265676e-02,	 6.5211957856358094e+02,	 2.5181343663034409e+03,	 4.9004230408260264e+02,	 1.1589443632678338e+00 
2.7238150000000001e+00,	 2.0000000000000001e-01,	 1.3365456653636676e-02,	 5.6950848610320031e+02,	 2.5142307379981521e-02,	 6.5119614452991061e+02,	 2.5039494660886662e+03,	 4.8969521892498375e+02,	 1.1629855972627468e+00 
2.7312789999999998e+00,	 2.0000000000000001e-01,	 1.3309202094468665e-02,	 5.7107497910498910e+02,	 2.7077284612657390e-02,	 6.5028485272565626e+02,	 2.4899211552367601e+03,	 4.8935245624401006e+02,	 1.1670013554854994e+00 
2.7387440000000001e+00,	 2.0000000000000001e-01,	 1.3253858232946386e-02,	 5.7264619902931292e+02,	 2.9715314078303696e-02,	 6.4939449877952302e+02,	 2.4761723152486370e+03,	 4.8901733685196399e+02,	 1.1710141065482249e+00 
2.7462080000000002e+00,	 2.0000000000000001e-01,	 1.3199912714626595e-02,	 5.7424163144066802e+02,	 3.3610760587861568e-02,	 6.4853416394881015e+02,	 2.4628267156632396e+03,	 4.8869329800835135e+02,	 1.1750552642415926e+00 
2.7536730000000000e+00,	 2.0000000000000001e-01,	 1.3147745456255990e-02,	 5.7587055793323202e+02,	 3.8127793581523350e-02,	 6.4771107672704784e+02,	 2.4499800561483621e+03,	 4.8838308696842290e+02,	 1.1791369819337469e+00 
2.7611370000000002e+00,	 2.0000000000000001e-01,	 1.3097143716964070e-02,	 5.7753035736372794e+02,	 4.1269082287210865e-02,	 6.4692096201959646e+02,	 2.4375736934852712e+03,	 4.8808511737615180e+02,	 1.1832574653021917e+00 
2.7686020000000000e+00,	 2.0000000000000001e-01,	 1.3047298572391675e-02,	 5.7919415765450321e+02,	 3.9667945680735478e-02,	 6.4614800184026103e+02,	 2.4253953686552522e+03,	 4.8779344100236148e+02,	 1.1873758651258528e+00 
2.7760660000000001e+00,	 2.0000000000000001e-01,	 1.2997148382018563e-02,	 5.8083511021443928e+02,	 3.7685602056038714e-02,	 6.4537140604596493e+02,	 2.4131689803375625e+03,	 4.8750021698387815e+02,	 1.1914561085337974e+00 
2.7835310000000000e+00,	 2.0000000000000001e-01,	 1.2946282665960407e-02,	 5.8243681569310502e+02,	 3.8513325182318661e-02,	 6.4458305169601545e+02,	 2.4007885146772505e+03,	 4.8720237270975235e+02,	 1.1954720452755769e+00 
2.7909950000000001e+00,	 2.0000000000000001e-01,	 1.2893780633320171e-02,	 5.8397432793959058e+02,	 3.3476597360035415e-02,	 6.4376446121669289e+02,	 2.3880158913636060e+03,	 4.8689291225800571e+02,	 1.1993896690565746e+00 
2.7984599999999999e+00,	 2.0000000000000001e-01,	 1.2839438673357994e-02,	 5.8543592100647322e+02,	 3.1566652885734417e-02,	 6.4291120994790697e+02,	 2.3747996322941140e+03,	 4.8657013912502413e+02,	 1.2031891700347050e+00 
2.8059240000000001e+00,	 2.0000000000000001e-01,	 1.2784004832963436e-02,	 5.8684596699153167e+02,	 2.9640249351603309e-02,	 6.4203759932370974e+02,	 2.3613334856130950e+03,	 4.8623944233859811e+02,	 1.2069073724615822e+00 
2.8133880000000002e+00,	 2.0000000000000001e-01,	 1.2728325731202316e-02,	 5.8822659170312818e+02,	 2.7283921775909950e-02,	 6.4116001248027828e+02,	 2.3478354026068232e+03,	 4.8590701378990900e+02,	 1.2105744013611190e+00 
2.8208530000000001e+00,	 2.0000000000000001e-01,	 1.2673749786621422e-02,	 5.8961960774188822e+02,	 3.1538910112652238e-02,	 6.4030522414635311e+02,	 2.3346517688756562e+03,	 4.8558300249366732e+02,	 1.2142509222058078e+00 
2.8283170000000002e+00,	 2.0000000000000001e-01,	 1.2621483317295653e-02,	 5.9105645899133765e+02,	 3.8083551536620200e-02,	 6.3949729939605550e+02,	 2.3220900088397202e+03,	 4.8527655617471140e+02,	 1.2179785994142731e+00 
2.8357820000000000e+00,	 2.0000000000000001e-01,	 1.2571877099681817e-02,	 5.9254897837048452e+02,	 4.4880335631634016e-02,	 6.3874338626757094e+02,	 2.3102367101828954e+03,	 4.8499042184778574e+02,	 1.2217746029139107e+00 
2.8432460000000002e+00,	 2.0000000000000001e-01,	 1.2524888058026758e-02,	 5.9409141202086471e+02,	 5.2126001958007845e-02,	 6.3804271647340192e+02,	 2.2990771540344258e+03,	 4.8472434364767116e+02,	 1.2256273531404784e+00 
2.8507110000000000e+00,	 2.0000000000000001e-01,	 1.2480242003603247e-02,	 5.9567909967320020e+02,	 5.8728788684143343e-02,	 6.3738977003856417e+02,	 2.2885374998157918e+03,	 4.8447625677327994e+02,	 1.2295320859181633e+00 
2.8581750000000001e+00,	 2.0000000000000001e-01,	 1.2437473823181182e-02,	 5.9729671721426985e+02,	 6.2176609343466499e-02,	 6.3677473075897819e+02,	 2.2784942559257483e+03,	 4.8424245646969013e+02,	 1.2334662367380536e+00 
2.8656400000000000e+00,	 2.0000000000000001e-01,	 1.2395732648708885e-02,	 5.9892685441974527e+02,	 6.0842921259755933e-02,	 6.3617993398637168e+02,	 2.2687262968740511e+03,	 4.8401624370764188e+02,	 1.2374106557298190e+00 
2.8731040000000001e+00,	 2.0000000000000001e-01,	 1.2354340399245919e-02,	 6.0054895351242794e+02,	 5.8016649204856635e-02,	 6.3559091916800162e+02,	 2.2590569760486110e+03,	 4.8379212569924476e+02,	 1.2413367734061580e+00 
2.8805689999999999e+00,	 2.0000000000000001e-01,	 1.2313034348449381e-02,	 6.0215904742279190e+02,	 5.9552366073924029e-02,	 6.3500140164049776e+02,	 2.2494156500199711e+03,	 4.8356771240738146e+02,	 1.2452424653619349e+00 
2.8880330000000001e+00,	 2.0000000000000001e-01,	 1.2271240508003023e-02,	 6.0373554199905038e+02,	 5.5567326911746290e-02,	 6.3439855937820016e+02,	 2.2396522645046807e+03,	 4.8333811899726732e+02,	 1.2490956554569814e+00 
2.8954979999999999e+00,	 2.0000000000000001e-01,	 1.2228441594192063e-02,	 6.0526444107255872e+02,	 5.2401191485026297e-02,	 6.3377081010652500e+02,	 2.2296324880709280e+03,	 4.8309892374406905e+02,	 1.2528788900004755e+00 
2.9029620000000000e+00,	 2.0000000000000001e-01,	 1.2184686891152766e-02,	 6.0674076609546728e+02,	 5.1774972910039185e-02,	 6.3311822500854419e+02,	 2.2193670116382514e+03,	 4.8285013952207385e+02,	 1.2565819467404027e+00 
2.9104260000000002e+00,	 2.0000000000000001e-01,	 1.2140292954342768e-02,	 6.0817463157115139e+02,	 5.2057917425497868e-02,	 6.3244659292848883e+02,	 2.2089351269978615e+03,	 4.8259396012087461e+02,	 1.2602201520442220e+00 
2.9178910000000000e+00,	 2.0000000000000001e-01,	 1.2095798075806633e-02,	 6.0958023766798215e+02,	 5.1010394706232975e-02,	 6.3176639649808544e+02,	 2.1984722484763342e+03,	 4.8233437535850544e+02,	 1.2638125560700573e+00 
2.9253550000000001e+00,	 2.0000000000000001e-01,	 1.2051527996401405e-02,	 6.1097387030678510e+02,	 5.1615002454324724e-02,	 6.3108401646098173e+02,	 2.1880600276884402e+03,	 4.8207381680808749e+02,	 1.2673865519857246e+00 
2.9328200000000000e+00,	 2.0000000000000001e-01,	 1.2007809772681781e-02,	 6.1236498509564478e+02,	 5.1887489301034012e-02,	 6.3040612049548304e+02,	 2.1777807651775538e+03,	 4.8181483092563042e+02,	 1.2709550391329798e+00 
2.9402840000000001e+00,	 2.0000000000000001e-01,	 1.1964682425428114e-02,	 6.1376075764154098e+02,	 5.1270667133508613e-02,	 6.2973340852531794e+02,	 2.1676434475132187e+03,	 4.8155768786473675e+02,	 1.2745321593856327e+00 
2.9477490000000000e+00,	 2.0000000000000001e-01,	 1.1922062991487719e-02,	 6.1515623203096936e+02,	 5.0994242664027495e-02,	 6.2906411035577821e+02,	 2.1576264525648271e+03,	 4.8130171338486196e+02,	 1.2781093792880256e+00 
2.9552130000000001e+00,	 2.0000000000000001e-01,	 1.1879705173970087e-02,	 6.1654592683160627e+02,	 5.0202353229219010e-02,	 6.2839293373033183e+02,	 2.1476667469055178e+03,	 4.8104488370205718e+02,	 1.2816806700668315e+00 
2.9626779999999999e+00,	 2.0000000000000001e-01,	 1.1837465323943060e-02,	 6.1791825299429877e+02,	 5.0568504246177953e-02,	 6.2771669119168700e+02,	 2.1377274508918022e+03,	 4.8078597676549134e+02,	 1.2852252039890082e+00 
2.9701420000000001e+00,	 2.0000000000000001e-01,	 1.1795226327062463e-02,	 6.1926934053727712e+02,	 5.1812486212872433e-02,	 6.2703260301654132e+02,	 2.1277781208983752e+03,	 4.8052392410376092e+02,	 1.2887377956462736e+00 
2.9776069999999999e+00,	 2.0000000000000001e-01,	 1.1753016188427261e-02,	 6.2059398178613992e+02,	 5.3313755056052708e-02,	 6.2634097034430465e+02,	 2.1178251070249535e+03,	 4.8025883601967627e+02,	 1.2922073214093726e+00 
2.9850710000000000e+00,	 2.0000000000000001e-01,	 1.1710876791849874e-02,	 6.2189746554493775e+02,	 5.5478382275906513e-02,	 6.2564240428103108e+02,	 2.1078782645942179e+03,	 4.7999094190345716e+02,	 1.2956441751865131e+00 
2.9925359999999999e+00,	 2.0000000000000001e-01,	 1.1669242254772000e-02,	 6.2317704301493131e+02,	 5.3484619040745751e-02,	 6.2494601157877662e+02,	 2.0980464260609601e+03,	 4.7972373234884651e+02,	 1.2990331794903698e+00 
3.0000000000000000e+00,	 2.0000000000000001e-01,	 1.1638403357243633e-02,	 6.2404341870341557e+02,	 5.9413298405658732e-02,	 6.2445382085497397e+02,	 2.0908538141821546e+03,	 4.7953478636426235e+02,	 1.3013517252065692e+00 
2.6491699999999998e+00,	 2.0581279999999999e-01,	 1.4157162357295600e-02,	 5.7242769243692601e+02,	 2.7619477364455247e-01,	 6.4838179425061639e+02,	 2.6408088213620613e+03,	 4.8863588667322273e+02,	 1.1714812085657180e+00 
2.6566350000000001e+00,	 2.0580899999999999e-01,	 1.4121164481836002e-02,	 5.7345771433161826e+02,	 2.7169171701614370e-01,	 6.4776931719764980e+02,	 2.6316057226385701e+03,	 4.8840504353399285e+02,	 1.1741438510605744e+00 
2.6640990000000002e+00,	 2.0580530000000000e-01,	 1.4066624856893308e-02,	 5.7514508327120143e+02,	 2.6193082913861943e-01,	 6.4681931646604971e+02,	 2.6175972394212790e+03,	 4.8804677140054434e+02,	 1.1784631650458015e+00 
2.6715640000000000e+00,	 2.0580160000000000e-01,	 1.4012220398983113e-02,	 5.7680866973590685e+02,	 2.5558881827421087e-01,	 6.4587138187694347e+02,	 2.6036520133281711e+03,	 4.8768901612762619e+02,	 1.1827388095444480e+00 
2.6790280000000002e+00,	 2.0579790000000001e-01,	 1.3957644061711915e-02,	 5.7845069371399404e+02,	 2.4916248960110557e-01,	 6.4492078702178605e+02,	 2.5896938881143119e+03,	 4.8732999311762114e+02,	 1.1869795734830555e+00 
2.6864930000000000e+00,	 2.0579410000000001e-01,	 1.3902803078317635e-02,	 5.8006989960437215e+02,	 2.4322744303885038e-01,	 6.4396679798742207e+02,	 2.5757030081843050e+03,	 4.8696942207310536e+02,	 1.1911835205759351e+00 
2.6939570000000002e+00,	 2.0579040000000001e-01,	 1.3847696701416258e-02,	 5.8166032006373257e+02,	 2.3883032234277723e-01,	 6.4300990743044747e+02,	 2.5616815765255383e+03,	 4.8660748596555135e+02,	 1.1953378973230502e+00 
2.7014220000000000e+00,	 2.0578669999999999e-01,	 1.3792186089035881e-02,	 5.8321602466385957e+02,	 2.3587288940970541e-01,	 6.4204875320221913e+02,	 2.5475988994207946e+03,	 4.8624366594802325e+02,	 1.1994317113095503e+00 
2.7088860000000001e+00,	 2.0578289999999999e-01,	 1.3736202942730744e-02,	 5.8473052112387359e+02,	 2.3737835571851998e-01,	 6.4108160319011063e+02,	 2.5334360748334507e+03,	 4.8587730140283219e+02,	 1.2034531508652937e+00 
2.7163499999999998e+00,	 2.0577920000000000e-01,	 1.3679879565311658e-02,	 5.8620862337420260e+02,	 2.4938242412431799e-01,	 6.4010913204509086e+02,	 2.5192208062923332e+03,	 4.8550864242367680e+02,	 1.2074114139213667e+00 
2.7238150000000001e+00,	 2.0577540000000000e-01,	 1.3623625358636844e-02,	 5.8766079135000996e+02,	 2.6815388430224174e-01,	 6.3913791747370635e+02,	 2.5050546971828126e+03,	 4.8514018020348607e+02,	 1.2113217509293943e+00 
2.7312789999999998e+00,	 2.0577170000000000e-01,	 1.3567877086994791e-02,	 5.8910523621580546e+02,	 2.9187973895982938e-01,	 6.3817458388595264e+02,	 2.4910436746573550e+03,	 4.8477443123668138e+02,	 1.2152153054375114e+00 
2.7387440000000001e+00,	 2.0576790000000000e-01,	 1.3513131934869650e-02,	 5.9055774729196628e+02,	 3.2097829262712951e-01,	 6.3722836163598322e+02,	 2.4773139688821207e+03,	 4.8441491009529858e+02,	 1.2191157254106630e+00 
2.7462080000000002e+00,	 2.0576410000000001e-01,	 1.3459862516207066e-02,	 5.9203643460050955e+02,	 3.5570610935785352e-01,	 6.3630709631715854e+02,	 2.4639808490317223e+03,	 4.8406461489561701e+02,	 1.2230527149468904e+00 
2.7536730000000000e+00,	 2.0576030000000001e-01,	 1.3408353143764914e-02,	 5.9354892657518303e+02,	 3.9087591335501304e-01,	 6.3541614888686672e+02,	 2.4511146475333185e+03,	 4.8372560626317420e+02,	 1.2270366662293739e+00 
2.7611370000000002e+00,	 2.0575650000000001e-01,	 1.3358358230029644e-02,	 5.9509091333591437e+02,	 4.1589834344411214e-01,	 6.3455146085754359e+02,	 2.4386522320971653e+03,	 4.8339636208425617e+02,	 1.2310623441640851e+00 
2.7686020000000000e+00,	 2.0575270000000001e-01,	 1.3309090722991270e-02,	 5.9663848574671749e+02,	 4.2019592080273160e-01,	 6.3369977724828937e+02,	 2.4263970954632641e+03,	 4.8307185018814010e+02,	 1.2350929442079663e+00 
2.7760660000000001e+00,	 2.0574890000000001e-01,	 1.3259607526606192e-02,	 5.9816693364033949e+02,	 4.1588486113790313e-01,	 6.3284530419330042e+02,	 2.4141161915990242e+03,	 4.8274605622981306e+02,	 1.2390926254004868e+00 
2.7835310000000000e+00,	 2.0574509999999999e-01,	 1.3209452478819135e-02,	 5.9966044697414088e+02,	 3.9997857274465098e-01,	 6.3198110304414945e+02,	 2.4017004911069880e+03,	 4.8241632934582879e+02,	 1.2430354113050521e+00 
2.7909950000000001e+00,	 2.0574129999999999e-01,	 1.3157715173606378e-02,	 6.0109308638453899e+02,	 3.7065722036535265e-01,	 6.3109140502775131e+02,	 2.3889259270656289e+03,	 4.8207663879697105e+02,	 1.2468830727108988e+00 
2.7984599999999999e+00,	 2.0573749999999999e-01,	 1.3104263404712860e-02,	 6.0245734255564764e+02,	 3.4887422231560267e-01,	 6.3017420922725773e+02,	 2.3757633408352194e+03,	 4.8172619872235276e+02,	 1.2506221276058245e+00 
2.8059240000000001e+00,	 2.0573379999999999e-01,	 1.3049677953806843e-02,	 6.0377105868483818e+02,	 3.3923472161452850e-01,	 6.2924039913883291e+02,	 2.3623613542640496e+03,	 4.8136914860197123e+02,	 1.2542788746215559e+00 
2.8133880000000002e+00,	 2.0573000000000000e-01,	 1.2994838152908202e-02,	 6.0505656125089718e+02,	 3.4761271723279819e-01,	 6.2830633489591935e+02,	 2.3489417701813150e+03,	 4.8101173616067723e+02,	 1.2578833646228273e+00 
2.8208530000000001e+00,	 2.0572630000000000e-01,	 1.2941123218386096e-02,	 6.0635506388405929e+02,	 3.8668924070987026e-01,	 6.2739626402297051e+02,	 2.3358440169165624e+03,	 4.8066324898349717e+02,	 1.2614968763838814e+00 
2.8283170000000002e+00,	 2.0572250000000000e-01,	 1.2889602784060521e-02,	 6.0769434200544129e+02,	 4.4477560402565308e-01,	 6.2652971241746536e+02,	 2.3233312994354160e+03,	 4.8033119135400852e+02,	 1.2651572825398325e+00 
2.8357820000000000e+00,	 2.0571870000000000e-01,	 1.2840680566216922e-02,	 6.0908671250962277e+02,	 5.0834148760794862e-01,	 6.2571262393047357e+02,	 2.3114946726299459e+03,	 4.8001787729800117e+02,	 1.2688838342189643e+00 
2.8432460000000002e+00,	 2.0571500000000001e-01,	 1.2794335545082181e-02,	 6.1052946278694719e+02,	 5.7152392586865897e-01,	 6.2494478431006246e+02,	 2.3003256478559424e+03,	 4.7972326130798353e+02,	 1.2726706823168104e+00 
2.8507110000000000e+00,	 2.0571120000000001e-01,	 1.2750194326315058e-02,	 6.1201521089153584e+02,	 6.2638715818251312e-01,	 6.2422022956804301e+02,	 2.2897316141608635e+03,	 4.7944508747736887e+02,	 1.2765080870051495e+00 
2.8581750000000001e+00,	 2.0570749999999999e-01,	 1.2707768595832778e-02,	 6.1353016698356271e+02,	 6.6122494201409809e-01,	 6.2353025670176123e+02,	 2.2795901289732769e+03,	 4.7918004034455907e+02,	 1.2803757912287150e+00 
2.8656400000000000e+00,	 2.0570369999999999e-01,	 1.2666373160576670e-02,	 6.1506047994558992e+02,	 6.7058920454605186e-01,	 6.2286357051699338e+02,	 2.2697349598429328e+03,	 4.7892379924918077e+02,	 1.2842561728510982e+00 
2.8731040000000001e+00,	 2.0569999999999999e-01,	 1.2625402907991041e-02,	 6.1659010110956069e+02,	 6.6636861944825554e-01,	 6.2220871740727409e+02,	 2.2600147592645544e+03,	 4.7867197266106257e+02,	 1.2881273531947048e+00 
2.8805689999999999e+00,	 2.0569630000000000e-01,	 1.2584498520712202e-02,	 6.1811117739269002e+02,	 6.5710876418237385e-01,	 6.2155901575307871e+02,	 2.2503404245888710e+03,	 4.7842199609366958e+02,	 1.2919797411550378e+00 
2.8880330000000001e+00,	 2.0569260000000000e-01,	 1.2543064921365220e-02,	 6.1960398495274262e+02,	 6.3354920345351273e-01,	 6.2090203859877909e+02,	 2.2405605931723967e+03,	 4.7816908734874107e+02,	 1.2957849540049955e+00 
2.8954979999999999e+00,	 2.0568890000000001e-01,	 1.2500659910874203e-02,	 6.2105512789888110e+02,	 6.1040499739119958e-01,	 6.2022806673138814e+02,	 2.2305619662344789e+03,	 4.7790949727281509e+02,	 1.2995251850226961e+00 
2.9029620000000000e+00,	 2.0568520000000001e-01,	 1.2457279636097501e-02,	 6.2246026704793758e+02,	 5.9564545606312835e-01,	 6.1953553144095088e+02,	 2.2203394219896386e+03,	 4.7764261025946985e+02,	 1.3031930959899700e+00 
2.9104260000000002e+00,	 2.0568159999999999e-01,	 1.2413113884086066e-02,	 6.2382555516445871e+02,	 5.9215548447347255e-01,	 6.1882699781525150e+02,	 2.2099371868764069e+03,	 4.7736940343834789e+02,	 1.3067989521694903e+00 
2.9178910000000000e+00,	 2.0567790000000000e-01,	 1.2368636051269965e-02,	 6.2516292648241665e+02,	 5.9248376997323859e-01,	 6.1811145653331573e+02,	 2.1994725245290992e+03,	 4.7709333572185261e+02,	 1.3103582893122871e+00 
2.9253550000000001e+00,	 2.0567430000000000e-01,	 1.2324277504927018e-02,	 6.2648952274588976e+02,	 5.9580007020501369e-01,	 6.1739657683363453e+02,	 2.1890497077531563e+03,	 4.7681736363873335e+02,	 1.3138988925904238e+00 
2.9328200000000000e+00,	 2.0567060000000001e-01,	 1.2280361808042501e-02,	 6.2781699267541944e+02,	 5.9858688574078678e-01,	 6.1668946188007817e+02,	 2.1787511380276101e+03,	 4.7654423183329646e+02,	 1.3174375768203987e+00 
2.9402840000000001e+00,	 2.0566699999999999e-01,	 1.2236989667248222e-02,	 6.2915219983814518e+02,	 5.9899630545553872e-01,	 6.1599166777020002e+02,	 2.1685995758783260e+03,	 4.7627454676683453e+02,	 1.3209870005692237e+00 
2.9477490000000000e+00,	 2.0566340000000000e-01,	 1.2194087108465921e-02,	 6.3049117283354781e+02,	 5.9869982328700189e-01,	 6.1530263739480279e+02,	 2.1585792958128382e+03,	 4.7600809880334702e+02,	 1.3245393485410111e+00 
2.9552130000000001e+00,	 2.0565980000000000e-01,	 1.2151414558445837e-02,	 6.3182695832767558e+02,	 5.9901120692660392e-01,	 6.1461756637119754e+02,	 2.1486305364976211e+03,	 4.7574303397583759e+02,	 1.3280851156080606e+00 
2.9626779999999999e+00,	 2.0565620000000001e-01,	 1.2108781590657119e-02,	 6.3314811739430411e+02,	 6.0498101083035971e-01,	 6.1393240097961063e+02,	 2.1387052603285379e+03,	 4.7547778483953545e+02,	 1.3316046019719008e+00 
2.9701420000000001e+00,	 2.0565259999999999e-01,	 1.2066034082231652e-02,	 6.3444800848075920e+02,	 6.1607195271845172e-01,	 6.1324358818490668e+02,	 2.1287639221920522e+03,	 4.7521097443966892e+02,	 1.3350876594187433e+00 
2.9776069999999999e+00,	 2.0564890000000000e-01,	 1.2023168955484510e-02,	 6.3572177096852192e+02,	 6.2965709026267624e-01,	 6.1255066344220779e+02,	 2.1188045755263752e+03,	 4.7494242005212578e+02,	 1.3385245367718608e+00 
2.9850710000000000e+00,	 2.0564510000000000e-01,	 1.1980273193527506e-02,	 6.3697345538322895e+02,	 6.4401218872418742e-01,	 6.1185465863128354e+02,	 2.1088463106353956e+03,	 4.7467251897951201e+02,	 1.3419226002737903e+00 
2.9925359999999999e+00,	 2.0564109999999999e-01,	 1.1937819751362291e-02,	 6.3820404312806647e+02,	 6.4883766323712311e-01,	 6.1116114006745443e+02,	 2.0989915346081561e+03,	 4.7440342930698597e+02,	 1.3452777394221342e+00 
3.0000000000000000e+00,	 2.0563850000000000e-01,	 1.1905784591449357e-02,	 6.3904955582109710e+02,	 6.5918347477997818e-01,	 6.1065597677703818e+02,	 2.0916285938396882e+03,	 4.7420732657416380e+02,	 1.3476170864199610e+00 
2.6491690000000001e+00,	 2.1156670000000000e-01,	 1.4645853851928146e-02,	 6.0786922283105912e+02,	 8.4926166283510485e-01,	 6.2690208741940592e+02,	 2.6414618915064152e+03,	 4.8047391144853680e+02,	 1.2651463515577410e+00 
2.6566339999999999e+00,	 2.1156059999999999e-01,	 1.4605506473545724e-02,	 6.0883075624930484e+02,	 8.3579918913009432e-01,	 6.2622031728743991e+02,	 2.6313202800034665e+03,	 4.8021257728030002e+02,	 1.2678371178597891e+00 
2.6640980000000001e+00,	 2.1155440000000000e-01,	 1.4549304818258741e-02,	 6.1031610066809662e+02,	 8.0922191200049909e-01,	 6.2526409654215172e+02,	 2.6171925288769207e+03,	 4.7984580168865068e+02,	 1.2719015879606432e+00 
2.6715629999999999e+00,	 2.1154829999999999e-01,	 1.4493591430765142e-02,	 6.1177839038869342e+02,	 7.9628718321388881e-01,	 6.2431447646813626e+02,	 2.6032109200377545e+03,	 4.7948128023887836e+02,	 1.2759182346077418e+00 
2.6790270000000000e+00,	 2.1154210000000001e-01,	 1.4437878662179913e-02,	 6.1322052330965528e+02,	 7.8825761943548267e-01,	 6.2336511078324156e+02,	 2.5892609205779449e+03,	 4.7911657921531264e+02,	 1.2798994160092261e+00 
2.6864919999999999e+00,	 2.1153590000000000e-01,	 1.4382017354479191e-02,	 6.1463718011955530e+02,	 7.7870882902721472e-01,	 6.2241442912913442e+02,	 2.5753093112447359e+03,	 4.7875109426085703e+02,	 1.2838355479003776e+00 
2.6939560000000000e+00,	 2.1152969999999999e-01,	 1.4325872408607276e-02,	 6.1602547537906003e+02,	 7.6981964093008393e-01,	 6.2146116966069599e+02,	 2.5613269222711115e+03,	 4.7838433791152858e+02,	 1.2877218327692908e+00 
2.7014209999999999e+00,	 2.1152350000000000e-01,	 1.4269331063135370e-02,	 6.1738334336842445e+02,	 7.6468481388543375e-01,	 6.2050402502457814e+02,	 2.5472886153537820e+03,	 4.7801580367025605e+02,	 1.2915552418839984e+00 
2.7088850000000000e+00,	 2.1151739999999999e-01,	 1.4212382630630273e-02,	 6.1870796164311628e+02,	 7.6382964290731092e-01,	 6.1954301404826958e+02,	 2.5331930796211577e+03,	 4.7764549467942516e+02,	 1.2953297791564671e+00 
2.7163499999999998e+00,	 2.1151120000000001e-01,	 1.4155091377136558e-02,	 6.2000051540675304e+02,	 7.8098349045060433e-01,	 6.1857661557019264e+02,	 2.5190460849318479e+03,	 4.7727281996995242e+02,	 1.2990494772537395e+00 
2.7238140000000000e+00,	 2.1150490000000000e-01,	 1.4097847184840421e-02,	 6.2127077480790444e+02,	 8.1111536289126696e-01,	 6.1760827687285905e+02,	 2.5049314399074074e+03,	 4.7689910494310351e+02,	 1.3027311182888885e+00 
2.7312780000000001e+00,	 2.1149870000000001e-01,	 1.4041162068617257e-02,	 6.2253638875677245e+02,	 8.5130355456475637e-01,	 6.1664423264834693e+02,	 2.4909652192461540e+03,	 4.7652675616196024e+02,	 1.3064050712264588e+00 
2.7387429999999999e+00,	 2.1149250000000000e-01,	 1.3985562626010934e-02,	 6.2381413703375438e+02,	 9.0177983376043125e-01,	 6.1569375925473059e+02,	 2.4772773469685853e+03,	 4.7615936387584367e+02,	 1.3100966528472651e+00 
2.7462070000000001e+00,	 2.1148620000000001e-01,	 1.3931448148552270e-02,	 6.2511785302295766e+02,	 9.6051185015765705e-01,	 6.1476331076739234e+02,	 2.4639627683838239e+03,	 4.7579943715648528e+02,	 1.3138279328064688e+00 
2.7536719999999999e+00,	 2.1147990000000000e-01,	 1.3878881892930049e-02,	 6.2644999012982635e+02,	 1.0191566512432020e+00,	 6.1385372032618966e+02,	 2.4510338535577098e+03,	 4.7544731560428517e+02,	 1.3176030205449332e+00 
2.7611360000000000e+00,	 2.1147360000000001e-01,	 1.3827518461603110e-02,	 6.2780131320861449e+02,	 1.0597354637757246e+00,	 6.1296015353203995e+02,	 2.4384082996229167e+03,	 4.7510114302276725e+02,	 1.3214074873324455e+00 
2.7686009999999999e+00,	 2.1146730000000000e-01,	 1.3776776241432306e-02,	 6.2915481633314755e+02,	 1.0664553223417963e+00,	 6.1207495218857753e+02,	 2.4259516979238642e+03,	 4.7475796238164372e+02,	 1.3252136247053676e+00 
2.7760650000000000e+00,	 2.1146100000000001e-01,	 1.3726062906988861e-02,	 6.3049346976707375e+02,	 1.0617514357887288e+00,	 6.1119084805502052e+02,	 2.4135303528227064e+03,	 4.7441495932664077e+02,	 1.3289934294154704e+00 
2.7835299999999998e+00,	 2.1145470000000000e-01,	 1.3674742991863767e-02,	 6.3179889907137601e+02,	 1.0287417755440142e+00,	 6.1029922936640480e+02,	 2.4009987382399172e+03,	 4.7406878952771729e+02,	 1.3327174253277208e+00 
2.7909940000000000e+00,	 2.1144840000000001e-01,	 1.3622120406207461e-02,	 6.3304931643244504e+02,	 9.8068353324804036e-01,	 6.0938983016875295e+02,	 2.3881953828377109e+03,	 4.7371545588691049e+02,	 1.3363509004703755e+00 
2.7984589999999998e+00,	 2.1144220000000000e-01,	 1.3568246845771008e-02,	 6.3424445921280449e+02,	 9.4174361870786849e-01,	 6.0846410537584222e+02,	 2.3751368452354504e+03,	 4.7335550828841917e+02,	 1.3398917880329873e+00 
2.8059229999999999e+00,	 2.1143590000000001e-01,	 1.3513436244407881e-02,	 6.3539337516260889e+02,	 9.2378085659750697e-01,	 6.0752627318555426e+02,	 2.3618961526165253e+03,	 4.7299057367773173e+02,	 1.3433545657188821e+00 
2.8133880000000002e+00,	 2.1142970000000000e-01,	 1.3458608925460264e-02,	 6.3652017460741740e+02,	 9.4463953360621977e-01,	 6.0659079666053788e+02,	 2.3486912403071888e+03,	 4.7262627499646982e+02,	 1.3467742045587043e+00 
2.8208519999999999e+00,	 2.1142340000000001e-01,	 1.3405011832151724e-02,	 6.3765984211827492e+02,	 1.0160835475315486e+00,	 6.0567651751543838e+02,	 2.3358119460832345e+03,	 4.7226995958884106e+02,	 1.3502037102161586e+00 
2.8283170000000002e+00,	 2.1141720000000000e-01,	 1.3353396242976538e-02,	 6.3883270979935037e+02,	 1.1190269400641988e+00,	 6.0479374439751780e+02,	 2.3234266377974427e+03,	 4.7192566751710689e+02,	 1.3536743895391008e+00 
2.8357809999999999e+00,	 2.1141090000000001e-01,	 1.3304126684138155e-02,	 6.4004959232989245e+02,	 1.2333687574749250e+00,	 6.0394758480178393e+02,	 2.3116152877078216e+03,	 4.7159541922500017e+02,	 1.3572031334079979e+00 
2.8432460000000002e+00,	 2.1140470000000000e-01,	 1.3257255836923736e-02,	 6.4131223650450499e+02,	 1.3446683354542412e+00,	 6.0313776577535350e+02,	 2.3003827257086991e+03,	 4.7127913759619759e+02,	 1.3607936253818800e+00 
2.8507099999999999e+00,	 2.1139839999999999e-01,	 1.3212354792509279e-02,	 6.4261095041671979e+02,	 1.4371795960157869e+00,	 6.0235856135311701e+02,	 2.2896297118529678e+03,	 4.7097461225301851e+02,	 1.3644314168964844e+00 
2.8581750000000001e+00,	 2.1139220000000000e-01,	 1.3168940326988654e-02,	 6.4393492345458026e+02,	 1.4977344328547550e+00,	 6.0160290423000606e+02,	 2.2792433236633633e+03,	 4.7067910138052383e+02,	 1.3681012463926923e+00 
2.8656389999999998e+00,	 2.1138589999999999e-01,	 1.3126685079731767e-02,	 6.4527715907972413e+02,	 1.5198384630422321e+00,	 6.0086839053923859e+02,	 2.2691560414618434e+03,	 4.7039168103163564e+02,	 1.3717907330334593e+00 
2.8731040000000001e+00,	 2.1137970000000000e-01,	 1.3085259327167059e-02,	 6.4663046388457826e+02,	 1.5153689077817065e+00,	 6.0015037057411223e+02,	 2.2592919249660176e+03,	 4.7011054494213380e+02,	 1.3754897575931255e+00 
2.8805679999999998e+00,	 2.1137349999999999e-01,	 1.3044075561595989e-02,	 6.4798094879294922e+02,	 1.4935000004954668e+00,	 5.9943920111287275e+02,	 2.2495123622462352e+03,	 4.6983192529810356e+02,	 1.3791797343859573e+00 
2.8880330000000001e+00,	 2.1136730000000001e-01,	 1.3002589648339866e-02,	 6.4931288163991076e+02,	 1.4507044414600438e+00,	 5.9872543949141493e+02,	 2.2396879102000657e+03,	 4.6955212387563080e+02,	 1.3828379624208196e+00 
2.8954970000000002e+00,	 2.1136099999999999e-01,	 1.2960458210150610e-02,	 6.5061545066584313e+02,	 1.4065158489810821e+00,	 5.9800202670439512e+02,	 2.2297334515458638e+03,	 4.6926836887275954e+02,	 1.3864496610894983e+00 
2.9029620000000000e+00,	 2.1135480000000001e-01,	 1.2917506602729282e-02,	 6.5188207377345941e+02,	 1.3727461366093023e+00,	 5.9726422272431694e+02,	 2.2196021157999903e+03,	 4.6897879215461234e+02,	 1.3900063927302251e+00 
2.9104260000000002e+00,	 2.1134860000000000e-01,	 1.2873748712204949e-02,	 6.5311324176714584e+02,	 1.3555661563988313e+00,	 5.9651095910813569e+02,	 2.2092933845742004e+03,	 4.6868296318880783e+02,	 1.3935105387478015e+00 
2.9178910000000000e+00,	 2.1134240000000001e-01,	 1.2829395131028369e-02,	 6.5431563567173191e+02,	 1.3496980745221756e+00,	 5.9574625489632456e+02,	 2.1988592935969587e+03,	 4.6838245003882730e+02,	 1.3969717005187230e+00 