TITLE = "Final State"
VARIABLES = "X", "Y", "rho", "u", "v", "T", "p", "c", "M"
ZONE I=51, J=48, DATAPACKING=POINT
5.6100000000000005e-01,	 0.0000000000000000e+00,	 4.8058470072756286e-02,	 5.8036688065016847e+01,	 2.3869813368188115e+00,	 7.9753310438914559e+02,	 1.1026777147752015e+04,	 5.4193139738298964e+02,	 1.0718285466498592e-01 
5.7074999999999998e-01,	 0.0000000000000000e+00,	 4.8105233300808188e-02,	 4.9203243725603905e+01,	 2.1082921356339210e+00,	 7.9795831093056881e+02,	 1.1043391409223730e+04,	 5.4207584409507638e+02,	 9.0851478211380080e-02 
5.8050000000000002e-01,	 0.0000000000000000e+00,	 4.8114987229026393e-02,	 4.1606965089838226e+01,	 1.7047159098715361e+00,	 7.9841619584323257e+02,	 1.1051968803091560e+04,	 5.4223134893196914e+02,	 7.6797243911818178e-02 
5.9025000000000005e-01,	 0.0000000000000000e+00,	 4.8121269422858381e-02,	 3.5440394153500392e+01,	 2.9092967047771623e+00,	 7.9889860162303626e+02,	 1.1060090326297650e+04,	 5.4239513320814103e+02,	 6.5560332952045164e-02 
5.9999999999999998e-01,	 0.0000000000000000e+00,	 4.8205571023530014e-02,	 2.1255207302011783e+01,	 1.5210379549346378e+01,	 7.9999959065326334e+02,	 1.1094735011829394e+04,	 5.4276875101568078e+02,	 4.8154830393692165e-02 
5.9999999999999998e-01,	 1.0000000000000000e-02,	 4.8081933272159136e-02,	 5.4740141666637605e+00,	 3.6268646174701935e+01,	 8.0039652876380069e+02,	 1.1071769999569733e+04,	 5.4290338788741474e+02,	 6.7561589017104615e-02 
5.9999999999999998e-01,	 2.0000000000000000e-02,	 4.7844597789203150e-02,	 2.6736615790738072e+00,	 4.6957125834802028e+01,	 8.0019882950733722e+02,	 1.1014397791667390e+04,	 5.4283633473260443e+02,	 8.6643391720888710e-02 
5.9999999999999998e-01,	 2.9999999999999999e-02,	 4.7726292673295832e-02,	 2.1930219782179985e+00,	 5.5560560994813883e+01,	 7.9983196068401389e+02,	 1.0982125233850618e+04,	 5.4271188281427010e+02,	 1.0245551299087352e-01 
5.9999999999999998e-01,	 4.0000000000000001e-02,	 4.7614364257833927e-02,	 1.7805913674492007e+00,	 6.4718529229891999e+01,	 7.9935027228375134e+02,	 1.0949771458213238e+04,	 5.4254843761437485e+02,	 1.1933131621404246e-01 
5.9999999999999998e-01,	 5.0000000000000003e-02,	 4.7491934792236561e-02,	 1.5042033509628994e+00,	 7.4085302968810495e+01,	 7.9880429747191852e+02,	 1.0914156903183202e+04,	 5.4236311936929644e+02,	 1.3662538836308027e-01 
5.9999999999999998e-01,	 5.9999999999999998e-02,	 4.7349722567561016e-02,	 1.3323684884031470e+00,	 8.3089989128236866e+01,	 7.9830556032921299e+02,	 1.0874681106877151e+04,	 5.4219377947718544e+02,	 1.5326747376294836e-01 
5.9999999999999998e-01,	 7.0000000000000007e-02,	 4.7199510049863780e-02,	 1.1557014513730826e+00,	 9.1120423605124444e+01,	 7.9790016967463293e+02,	 1.0834677414188918e+04,	 5.4205609522845077e+02,	 1.6811498501216732e-01 
5.9999999999999998e-01,	 8.0000000000000002e-02,	 4.7072439553815480e-02,	 7.1743517092113351e-01,	 9.9193128706034173e+01,	 7.9728015075753660e+02,	 1.0797111737728748e+04,	 5.4184544835735187e+02,	 1.8307014199939350e-01 
5.9999999999999998e-01,	 8.9999999999999997e-02,	 4.6944406715339546e-02,	 8.4831575356822730e-01,	 1.0911178493622202e+02,	 7.9629471757262991e+02,	 1.0754435692858728e+04,	 5.4151048606216352e+02,	 2.0150132899006154e-01 
5.9999999999999998e-01,	 1.0000000000000001e-01,	 4.6783144240370653e-02,	 8.4959945176903418e-01,	 1.2051100435965554e+02,	 7.9502887084259442e+02,	 1.0700454985084611e+04,	 5.4107990307740101e+02,	 2.2272865516545093e-01 
5.9999999999999998e-01,	 1.1000000000000000e-01,	 4.6582952235116548e-02,	 8.4857789741741785e-01,	 1.3303854705317474e+02,	 7.9348267109214066e+02,	 1.0633944588250777e+04,	 5.4055349151639484e+02,	 2.4612042177817467e-01 
5.9999999999999998e-01,	 1.2000000000000000e-01,	 4.6329670409949023e-02,	 8.8465525633154751e-01,	 1.4678493457587396e+02,	 7.9166503663281014e+02,	 1.0551898697069117e+04,	 5.3993401234865053e+02,	 2.7186211101779501e-01 
5.9999999999999998e-01,	 1.3000000000000000e-01,	 4.6013863194807991e-02,	 9.2630547620825832e-01,	 1.6211374567244238e+02,	 7.8945246739159086e+02,	 1.0450681708796565e+04,	 5.3917897252367516e+02,	 3.0067269001825292e-01 
5.9999999999999998e-01,	 1.4000000000000001e-01,	 4.5616065562126426e-02,	 9.8019213955828599e-01,	 1.7955835017155317e+02,	 7.8666968287830173e+02,	 1.0323814085594660e+04,	 5.3822784277266612e+02,	 3.3361526712358797e-01 
5.9999999999999998e-01,	 1.4999999999999999e-01,	 4.5104636491156827e-02,	 1.0524959153829831e+00,	 1.9988551086414515e+02,	 7.8309267733563797e+02,	 1.0161651290353202e+04,	 5.3700278126272758e+02,	 3.7222950937100480e-01 
5.9999999999999998e-01,	 1.6000000000000000e-01,	 4.4424068246353629e-02,	 1.0752842362739710e+00,	 2.2424188472030124e+02,	 7.7835614805060209e+02,	 9.9477903808606643e+03,	 5.3537628973879100e+02,	 4.1885392966374591e-01 
5.9999999999999998e-01,	 1.7000000000000001e-01,	 4.3475936353436009e-02,	 5.4909590071782066e-01,	 2.5469056989058564e+02,	 7.7182893180067902e+02,	 9.6538364222957625e+03,	 5.3312675790578646e+02,	 4.7773096739217996e-01 
5.9999999999999998e-01,	 1.7999999999999999e-01,	 4.2072785269297822e-02,	 -1.5909012174793657e-01,	 2.9714076504966476e+02,	 7.6261566700543176e+02,	 9.2307486264578783e+03,	 5.2993525782532333e+02,	 5.6071152702258298e-01 
5.9999999999999998e-01,	 1.9000000000000000e-01,	 3.8773430233369405e-02,	 5.5589045955233836e+00,	 3.9380587864987319e+02,	 7.4043806096760841e+02,	 8.2594836242617730e+03,	 5.2217289055146296e+02,	 7.5424273866572134e-01 
5.9999999999999998e-01,	 2.0000000000000001e-01,	 2.1535118022023247e-02,	 2.8803910866364527e+02,	 4.6091531345161917e+02,	 6.1926616419777372e+02,	 3.8366708738100601e+03,	 4.7753876209032740e+02,	 1.1381606483791320e+00 
6.0700529999999997e-01,	 2.0000000000000001e-01,	 3.2641456507412608e-03,	 6.9715065888052777e+02,	 2.7600899763279227e+02,	 4.8176596294078792e+02,	 4.5241352563731812e+02,	 4.2119965845165279e+02,	 1.7801533395946663e+00 
6.1401050000000001e-01,	 2.0000000000000001e-01,	 1.3447168346817943e-03,	 8.3145915433323376e+02,	 5.1364432499786432e+01,	 4.1982651079073690e+02,	 1.6241668379854485e+02,	 3.9319219044029938e+02,	 2.1186692282047868e+00 
6.2101580000000001e-01,	 2.0000000000000001e-01,	 1.3247103920405467e-03,	 8.5402648537226958e+02,	 -2.5390946426061284e+01,	 3.8702824378609455e+02,	 1.4750051613309162e+02,	 3.7752114644609338e+02,	 2.2631946778292349e+00 
6.2802100000000005e-01,	 2.0000000000000001e-01,	 1.4980099849043137e-03,	 8.4299418671471233e+02,	 -1.7282905530263783e+01,	 3.9055582731368156e+02,	 1.6831691699469786e+02,	 3.7923770926438607e+02,	 2.2233319970966972e+00 
6.3502630000000004e-01,	 2.0000000000000001e-01,	 1.6483504311695038e-03,	 8.2989551789673965e+02,	 -1.0002860310860513e+01,	 4.0030772701882069e+02,	 1.8983376303488575e+02,	 3.8394316459794589e+02,	 2.1616631711504937e+00 
6.4203149999999998e-01,	 2.0000000000000001e-01,	 1.7670506722742177e-03,	 8.1871126448709356e+02,	 -7.0183627952863334e+00,	 4.0754800836570917e+02,	 2.0718471686669278e+02,	 3.8739975446632536e+02,	 2.1134276332995472e+00 
6.4903679999999997e-01,	 2.0000000000000001e-01,	 1.8890297306764572e-03,	 8.0841547407850919e+02,	 -4.2375521832441549e+00,	 4.1404114422937596e+02,	 2.2501539409756106e+02,	 3.9047362441012706e+02,	 2.0703743599170559e+00 
6.5604200000000001e-01,	 2.0000000000000001e-01,	 2.0074208240275391e-03,	 7.9995162489511688e+02,	 -3.4080570834834294e+00,	 4.1956592913249915e+02,	 2.4230845949125373e+02,	 3.9307014648400599e+02,	 2.0351555358246745e+00 
6.6304730000000001e-01,	 2.0000000000000001e-01,	 2.1264228162552225e-03,	 7.9244163868677606e+02,	 -3.2096456016165451e+00,	 4.2475386094977461e+02,	 2.5984651482536543e+02,	 3.9549283611545661e+02,	 2.0036978330538369e+00 
6.7005250000000005e-01,	 2.0000000000000001e-01,	 2.2506616521877337e-03,	 7.8510415082113605e+02,	 -3.2367106668583050e+00,	 4.3014017831943477e+02,	 2.7851600659708680e+02,	 3.9799256498188112e+02,	 1.9726771095417011e+00 
6.7705780000000004e-01,	 2.0000000000000001e-01,	 2.3818438006685274e-03,	 7.7795634242567246e+02,	 -3.2765889242635318e+00,	 4.3571643058070686e+02,	 2.9857067645405840e+02,	 4.0056400638121113e+02,	 1.9421696162268476e+00 
6.8406310000000004e-01,	 2.0000000000000001e-01,	 2.5171018532503049e-03,	 7.7137805066886563e+02,	 -3.2135576824251801e+00,	 4.4114091854830724e+02,	 3.1945380843077442e+02,	 4.0304972125145713e+02,	 1.9138699366383958e+00 
6.9106829999999997e-01,	 2.0000000000000001e-01,	 2.6549787399416137e-03,	 7.6542106379303380e+02,	 -3.1403130008241344e+00,	 4.4629055443960601e+02,	 3.4088561942855358e+02,	 4.0539538574127749e+02,	 1.8881011787749518e+00 
6.9807359999999996e-01,	 2.0000000000000001e-01,	 2.7954481101011312e-03,	 7.6000485956226805e+02,	 -3.0946799491770500e+00,	 4.5118451661970653e+02,	 3.6285704552479524e+02,	 4.0761208094599186e+02,	 1.8645452274595329e+00 
7.0507880000000001e-01,	 2.0000000000000001e-01,	 2.9372215300881082e-03,	 7.5515036332791169e+02,	 -3.0247022995031481e+00,	 4.5577433142984501e+02,	 3.8513811732899774e+02,	 4.0968011515268864e+02,	 1.8432830713289401e+00 
7.1208410000000000e-01,	 2.0000000000000001e-01,	 3.0786791355708982e-03,	 7.5085113847574439e+02,	 -2.9357003950340568e+00,	 4.6001221603588112e+02,	 4.0744006348757824e+02,	 4.1158035366407927e+02,	 1.8243263333981949e+00 
7.1908930000000004e-01,	 2.0000000000000001e-01,	 3.2200282650419292e-03,	 7.4700604846717169e+02,	 -2.8645238397040154e+00,	 4.6394707872403455e+02,	 4.2979174115954061e+02,	 4.1333689794595239e+02,	 1.8072703995582067e+00 
7.2609460000000003e-01,	 2.0000000000000001e-01,	 3.3617125568052349e-03,	 7.4344438225337467e+02,	 -2.8087706772790457e+00,	 4.6767196318962863e+02,	 4.5230547906630471e+02,	 4.1499285645852257e+02,	 1.7914758688092352e+00 
7.3309979999999997e-01,	 2.0000000000000001e-01,	 3.5036866378466663e-03,	 7.4004483136751196e+02,	 -2.7438683554181384e+00,	 4.7124842624787539e+02,	 4.7501257540373075e+02,	 4.1657663736081099e+02,	 1.7765036531250864e+00 
7.4010509999999996e-01,	 2.0000000000000001e-01,	 3.6458224511347723e-03,	 7.3675640842112171e+02,	 -2.6810225823042662e+00,	 4.7470098870374113e+02,	 4.9790396959105925e+02,	 4.1809985957962039e+02,	 1.7621658309201536e+00 
7.4711030000000000e-01,	 2.0000000000000001e-01,	 3.7882835000294995e-03,	 7.3350408309351224e+02,	 -2.6503166523540234e+00,	 4.7807432858411721e+02,	 5.2103612305098784e+02,	 4.1958278902270558e+02,	 1.7481862706619369e+00 
7.5411560000000000e-01,	 2.0000000000000001e-01,	 3.9286808600336523e-03,	 7.3053900554982033e+02,	 -2.4644389476278223e+00,	 4.8122117399493129e+02,	 5.4390295308549855e+02,	 4.2096144130581024e+02,	 1.7354158616196835e+00 
7.6112080000000004e-01,	 2.0000000000000001e-01,	 4.0670480060182390e-03,	 7.2803056493173381e+02,	 -2.4181193831790684e+00,	 4.8418177566939295e+02,	 5.6652316788966027e+02,	 4.2225438953593687e+02,	 1.7241610716133680e+00 
7.6812610000000003e-01,	 2.0000000000000001e-01,	 4.2182446706101207e-03,	 7.2737091277440345e+02,	 -2.5461488175782510e+00,	 4.8622042539794097e+02,	 5.9005827175795332e+02,	 4.2314240785001317e+02,	 1.7189848042663749e+00 
7.7559060000000002e-01,	 2.0000000000000001e-01,	 4.3598540436284999e-03,	 7.2599820506600076e+02,	 -1.7587773722318985e+00,	 4.8878717279808654e+02,	 6.1308640823574603e+02,	 4.2425781766743938e+02,	 1.7112244140369495e+00 
7.8305499999999995e-01,	 2.0000000000000001e-01,	 4.4820694203784673e-03,	 7.2354509890843769e+02,	 -1.7547328745004078e+00,	 4.9177297021195250e+02,	 6.3412251116937989e+02,	 4.2555165202149323e+02,	 1.7002571209553190e+00 
5.5569170000000001e-01,	 1.3366340000000001e-02,	 4.7939497792785786e-02,	 5.9711518167851906e+01,	 1.6550896600107880e+01,	 7.9710013820214317e+02,	 1.0993508132328354e+04,	 5.4178427507341598e+02,	 1.1436816357622051e-01 
5.6361180000000000e-01,	 1.4776640000000001e-02,	 4.7990579693663986e-02,	 5.2814182303882468e+01,	 1.6346199698758415e+01,	 7.9760121210905618e+02,	 1.1012140371920976e+04,	 5.4195453681359788e+02,	 1.0201215176484370e-01 
5.7038940000000005e-01,	 1.6908920000000001e-02,	 4.8030693334452861e-02,	 4.6433097272398811e+01,	 1.6102698694380170e+01,	 7.9811852834257479e+02,	 1.1028493368511852e+04,	 5.4213026149293637e+02,	 9.0653491652623014e-02 
5.7551169999999996e-01,	 1.9565289999999999e-02,	 4.8037514201683111e-02,	 4.1509172398308408e+01,	 1.6319521873048227e+01,	 7.9841174768123096e+02,	 1.1034111845235640e+04,	 5.4222983848149579e+02,	 8.2256626998409091e-02 
5.7888399999999995e-01,	 2.2321379999999998e-02,	 4.8043570142502948e-02,	 3.3232093330869269e+01,	 2.3499014854738085e+01,	 7.9865118971930019e+02,	 1.1038812406160350e+04,	 5.4231113919214465e+02,	 7.5051110319419342e-02 
5.8154479999999997e-01,	 2.5937050000000000e-02,	 4.7978730407175055e-02,	 2.2288637841574786e+01,	 3.9272263013096300e+01,	 7.9855211987456778e+02,	 1.1022546916919635e+04,	 5.4227750226321848e+02,	 8.3271624734730140e-02 
5.8413769999999998e-01,	 3.1330190000000001e-02,	 4.7853113532410833e-02,	 1.7104479211327018e+01,	 5.0757098873862446e+01,	 7.9844576536260274e+02,	 1.0992223737515171e+04,	 5.4224138966762200e+02,	 9.8778169947879371e-02 
5.8620240000000001e-01,	 3.8438170000000001e-02,	 4.7739359740764452e-02,	 1.4451885025284671e+01,	 6.0252450985909164e+01,	 7.9833278338578384e+02,	 1.0964541898983787e+04,	 5.4220302408653822e+02,	 1.1427711605153594e-01 
5.8753509999999998e-01,	 4.6767980000000001e-02,	 4.7623730983672140e-02,	 1.2515761944234535e+01,	 6.9545904424236767e+01,	 7.9808534696144261e+02,	 1.0934594718480414e+04,	 5.4211899197771902e+02,	 1.3034615135821137e-01 
5.8833919999999995e-01,	 5.5868399999999999e-02,	 4.7500119607990485e-02,	 1.0898134149343228e+01,	 7.8765273311109468e+01,	 7.9764431165205019e+02,	 1.0900186107898302e+04,	 5.4196917926709989e+02,	 1.4671617286405805e-01 
5.8913479999999996e-01,	 6.5401009999999996e-02,	 4.7358325057724693e-02,	 9.3411630632376532e+00,	 8.7782545522676912e+01,	 7.9713344269527158e+02,	 1.0860687090994319e+04,	 5.4179559338922604e+02,	 1.6293627327168511e-01 
5.9113780000000005e-01,	 7.5340509999999999e-02,	 4.7206589747779158e-02,	 8.0257175409770500e+00,	 9.5914663436503403e+01,	 7.9661062965524945e+02,	 1.0818789287420830e+04,	 5.4161789148504556e+02,	 1.7770804406336299e-01 
5.9258359999999999e-01,	 8.3823229999999999e-02,	 4.7079984190396412e-02,	 7.5399190656288146e+00,	 1.0390561681039111e+02,	 7.9597718374943020e+02,	 1.0781194098603466e+04,	 5.4140250779969881e+02,	 1.9242397943745757e-01 
5.9304449999999997e-01,	 9.3505809999999995e-02,	 4.6946397120635544e-02,	 7.7241501888387631e+00,	 1.1380665666186682e+02,	 7.9505959718259464e+02,	 1.0738209926609625e+04,	 5.4109035882627188e+02,	 2.1081225308082630e-01 
5.9325419999999995e-01,	 1.0354729999999999e-01,	 4.6762902975410525e-02,	 8.0389787526597321e+00,	 1.2516055851596875e+02,	 7.9381359967130254e+02,	 1.0679475805707449e+04,	 5.4066620094155553e+02,	 2.3197022800717437e-01 
5.9344019999999997e-01,	 1.1363400000000000e-01,	 4.6533996849811562e-02,	 8.4650393689646517e+00,	 1.3770197484728712e+02,	 7.9228735288764619e+02,	 1.0606766712940836e+04,	 5.4014618775727956e+02,	 2.5541588730276926e-01 
5.9365389999999996e-01,	 1.2368500000000000e-01,	 4.6254549461292760e-02,	 9.0128870448519738e+00,	 1.5157123322261469e+02,	 7.9040201120191045e+02,	 1.0517982144883012e+04,	 5.3950313402840800e+02,	 2.8144222719757483e-01 
5.9389860000000005e-01,	 1.3368279999999999e-01,	 4.5908591544167862e-02,	 9.6907839869392500e+00,	 1.6713255369035835e+02,	 7.8806281763857044e+02,	 1.0408418443501856e+04,	 5.3870421313226518e+02,	 3.1077029362374819e-01 
5.9415600000000002e-01,	 1.4364550000000001e-01,	 4.5472326931223613e-02,	 1.0549588735325035e+01,	 1.8491044051276842e+02,	 7.8512103245893161e+02,	 1.0271023618963172e+04,	 5.3769779984590218e+02,	 3.4445209907273977e-01 
5.9440999999999999e-01,	 1.5360470000000001e-01,	 4.4909190285635399e-02,	 1.1641955376568781e+01,	 2.0567875146162712e+02,	 7.8130305701251132e+02,	 1.0094497058942652e+04,	 5.3638881767077237e+02,	 3.8406462580433509e-01 
5.9464010000000000e-01,	 1.6360410000000000e-01,	 4.4158343602399334e-02,	 1.3010446483078017e+01,	 2.3072090628869111e+02,	 7.7615223577268512e+02,	 9.8602885618443288e+03,	 5.3461779454211478e+02,	 4.3224795301496932e-01 
5.9484720000000002e-01,	 1.7370169999999999e-01,	 4.3103441179197260e-02,	 1.5374676091375992e+01,	 2.6275595837814444e+02,	 7.6882680545138783e+02,	 9.5338957302137478e+03,	 5.3208891570659398e+02,	 4.9466428737263257e-01 
5.9509120000000004e-01,	 1.8398809999999999e-01,	 4.1352458364747838e-02,	 2.3803700178256513e+01,	 3.0863342934655657e+02,	 7.5687724068914872e+02,	 9.0044401692508891e+03,	 5.2793770073277665e+02,	 5.8633814453160160e-01 
5.9569209999999995e-01,	 1.9436090000000000e-01,	 3.7582976933480047e-02,	 5.3027211971789463e+01,	 3.9900128532831741e+02,	 7.3072296216634709e+02,	 7.9008509645930726e+03,	 5.1873593085254299e+02,	 7.7594300413285255e-01 
5.9847349999999999e-01,	 2.0327539999999999e-01,	 2.2873960245943854e-02,	 3.1728821071506258e+02,	 4.9031335674822265e+02,	 6.1458947190838785e+02,	 4.0444215506190167e+03,	 4.7573216063081094e+02,	 1.2276228868940784e+00 
6.0591960000000000e-01,	 2.0406850000000001e-01,	 6.5573051053529887e-03,	 6.7474183184831134e+02,	 3.9878200490595782e+02,	 4.8594853282784305e+02,	 9.1673878180157851e+02,	 4.2302408151173859e+02,	 1.8527910689052312e+00 
6.1326749999999997e-01,	 2.0426340000000001e-01,	 2.9195239894500772e-03,	 8.2525807202908834e+02,	 1.9740100672006236e+02,	 4.2454082106751423e+02,	 3.5658366232948816e+02,	 3.9539364182614810e+02,	 2.1460607341102729e+00 
6.2049270000000001e-01,	 2.0434970000000000e-01,	 1.9251570552705518e-03,	 8.7831483316672200e+02,	 5.4311242614032921e+01,	 3.8460377795259910e+02,	 2.1301473622970798e+02,	 3.7633683360311448e+02,	 2.3383106309994890e+00 
6.2764050000000005e-01,	 2.0443310000000001e-01,	 1.6918428235390293e-03,	 8.9275651744241554e+02,	 -7.9462156667775599e+00,	 3.6914343314175017e+02,	 1.7967394272203816e+02,	 3.6869523686919678e+02,	 2.4214901391758259e+00 
6.3474050000000004e-01,	 2.0452780000000001e-01,	 1.7257488549971549e-03,	 8.8995385189582271e+02,	 -2.4699825338711783e+01,	 3.6677854766425503e+02,	 1.8210063402003141e+02,	 3.6751233220760884e+02,	 2.4224943437510795e+00 
6.4181149999999998e-01,	 2.0462870000000000e-01,	 1.8260848083154297e-03,	 8.8355944557178543e+02,	 -2.7439247289811785e+01,	 3.7170810497542237e+02,	 1.9527781714126110e+02,	 3.6997379893517274e+02,	 2.3893189548629814e+00 
6.4886200000000005e-01,	 2.0473620000000001e-01,	 1.9450107169749114e-03,	 8.7733933541351178e+02,	 -2.8700524920808725e+01,	 3.7768628099553047e+02,	 2.1134070215208800e+02,	 3.7293707348464130e+02,	 2.3537714924315933e+00 
6.5589869999999995e-01,	 2.0484900000000000e-01,	 2.0755612939915456e-03,	 8.7099074884709728e+02,	 -2.6622476789417576e+01,	 3.8372686115241476e+02,	 2.2913303194262932e+02,	 3.7590755490240110e+02,	 2.3181165431465907e+00 
6.6292540000000000e-01,	 2.0496490000000001e-01,	 2.2177569970624747e-03,	 8.6484710006126113e+02,	 -2.5212504064458287e+01,	 3.8948166161825009e+02,	 2.4850258441490652e+02,	 3.7871583173285495e+02,	 2.2846008906703368e+00 
6.6994560000000003e-01,	 2.0508129999999999e-01,	 2.3651183464884220e-03,	 8.5933634877256156e+02,	 -2.4575473325993737e+01,	 3.9470423750012276e+02,	 2.6856820924843157e+02,	 3.8124648478367948e+02,	 2.2549393067797152e+00 
6.7696109999999998e-01,	 2.0519720000000000e-01,	 2.5142597470681452e-03,	 8.5439747097973952e+02,	 -2.4303213207017336e+01,	 3.9952000001512647e+02,	 2.8898719852964098e+02,	 3.8356521619525518e+02,	 2.2284164874796537e+00 
6.8397359999999996e-01,	 2.0531189999999999e-01,	 2.6652640520731120e-03,	 8.4968732687027295e+02,	 -2.3834601242420007e+01,	 4.0416929364134029e+02,	 3.0990850469456956e+02,	 3.8579057301037864e+02,	 2.2033238060011033e+00 
6.9098430000000000e-01,	 2.0542550000000001e-01,	 2.8195386664312877e-03,	 8.4505386467056428e+02,	 -2.3304754896048372e+01,	 4.0876282903941637e+02,	 3.3157317542164930e+02,	 3.8797670618169423e+02,	 2.1789327489303574e+00 
6.9799420000000001e-01,	 2.0553810000000000e-01,	 2.9758151700222512e-03,	 8.4059389337419964e+02,	 -2.2680023443016744e+01,	 4.1320865469472466e+02,	 3.5375721004666002e+02,	 3.9008087507527853e+02,	 2.1557063054171959e+00 
7.0500419999999997e-01,	 2.0565050000000001e-01,	 3.1323821375489674e-03,	 8.3636842582394752e+02,	 -2.1856361888016579e+01,	 4.1742978965189747e+02,	 3.7617342840249330e+02,	 3.9206824897265483e+02,	 2.1339497893414401e+00 
7.1201550000000002e-01,	 2.0576349999999999e-01,	 3.2889155816108297e-03,	 8.3234367207029959e+02,	 -2.0969528926927243e+01,	 4.2143821227384615e+02,	 3.9876457946093154e+02,	 3.9394619404402687e+02,	 2.1135063344751202e+00 
7.1902929999999998e-01,	 2.0587670000000000e-01,	 3.4454868355454412e-03,	 8.2846333857189757e+02,	 -2.0168071133603199e+01,	 4.2527353033428147e+02,	 4.2154979728188005e+02,	 3.9573469700592801e+02,	 2.0941019166439796e+00 
7.2604760000000002e-01,	 2.0598669999999999e-01,	 3.6015750468481609e-03,	 8.2466720311407494e+02,	 -1.9447190813224580e+01,	 4.2897249057160082e+02,	 4.4447961566310096e+02,	 3.9745198903508532e+02,	 2.0754619287801237e+00 
7.3307259999999996e-01,	 2.0609320000000000e-01,	 3.7572916674366917e-03,	 8.2095008143142661e+02,	 -1.8785622700848435e+01,	 4.3255636217519356e+02,	 4.6757098250952600e+02,	 3.9910880176978384e+02,	 2.0574965606543891e+00 
7.4010699999999996e-01,	 2.0619799999999999e-01,	 3.9130312183843947e-03,	 8.1732874150837142e+02,	 -1.8195435345577259e+01,	 4.3603405269859513e+02,	 4.9086679803294237e+02,	 4.0070997839578496e+02,	 2.0402068692787196e+00 
7.4715430000000005e-01,	 2.0630270000000001e-01,	 4.0691940682256187e-03,	 8.1384522913492378e+02,	 -1.7710147540772336e+01,	 4.3939946661887495e+02,	 5.1439633496690135e+02,	 4.0225339319123458e+02,	 2.0236943082053198e+00 
7.5421819999999995e-01,	 2.0641319999999999e-01,	 4.2263002541002501e-03,	 8.1060052951811269e+02,	 -1.7147895695796137e+01,	 4.4264472417064587e+02,	 5.3820233505040380e+02,	 4.0373611504208378e+02,	 2.0081975753407040e+00 
7.6130900000000001e-01,	 2.0653420000000000e-01,	 4.3824704050778067e-03,	 8.0787947022784317e+02,	 -1.6811718347097621e+01,	 4.4564550521965828e+02,	 5.6187338403158856e+02,	 4.0510230925410974e+02,	 1.9946920966087662e+00 
7.6845680000000005e-01,	 2.0667620000000000e-01,	 4.5449131328792009e-03,	 8.0480869464884950e+02,	 -1.6433675182448344e+01,	 4.4849171549405747e+02,	 5.8642158794611737e+02,	 4.0639388654644142e+02,	 1.9807789593866580e+00 
7.7548720000000004e-01,	 2.0666480000000001e-01,	 4.6967805417661461e-03,	 7.9949098539136048e+02,	 -1.5035061388307051e+01,	 4.5269346573883081e+02,	 6.1169429699671878e+02,	 4.0829312436261750e+02,	 1.9584761493669887e+00 
7.8295519999999996e-01,	 2.0665570000000000e-01,	 4.8335556037228996e-03,	 7.9575406008629739e+02,	 -1.4340254244552867e+01,	 4.5618979551574080e+02,	 6.3436939554742230e+02,	 4.0986679591998194e+02,	 1.9418095588945374e+00 
5.4720939999999996e-01,	 2.6208519999999999e-02,	 4.7689736392064565e-02,	 6.3635672758617261e+01,	 2.7299765773483923e+01,	 7.9616280511599643e+02,	 1.0923372498609389e+04,	 5.4146563147786537e+02,	 1.2788313323204117e-01 
5.5357160000000005e-01,	 2.8184780000000000e-02,	 4.7723475723321751e-02,	 5.9033891316206478e+01,	 2.7994311091965329e+01,	 7.9657614138781037e+02,	 1.0936775515084464e+04,	 5.4160616702131358e+02,	 1.2063221139340820e-01 
5.5903760000000002e-01,	 3.0596390000000001e-02,	 4.7760576320374011e-02,	 5.3654764720804295e+01,	 2.9813586530577044e+01,	 7.9692968430523842e+02,	 1.0950135670930700e+04,	 5.4172634372067989e+02,	 1.1330713638511145e-01 
5.6339870000000003e-01,	 3.3303779999999998e-02,	 4.7783990775815979e-02,	 4.8656134027362661e+01,	 3.1826078404848751e+01,	 7.9718061299138583e+02,	 1.0958953488409654e+04,	 5.4181162350359443e+02,	 1.0730760518903637e-01 
5.6665730000000003e-01,	 3.6222320000000002e-02,	 4.7789078884855590e-02,	 4.3047337085917114e+01,	 3.5754418885678263e+01,	 7.9730819167555023e+02,	 1.0961874442546059e+04,	 5.4185497682120922e+02,	 1.0327371314722504e-01 
5.6949059999999996e-01,	 3.9765109999999999e-02,	 4.7793348257446439e-02,	 3.6029821653111483e+01,	 4.4634101007453566e+01,	 7.9728164386134131e+02,	 1.0962488724630679e+04,	 5.4184595572676335e+02,	 1.0586326389842642e-01 
5.7212609999999997e-01,	 4.4566250000000002e-02,	 4.7759218753146170e-02,	 2.9954543410464677e+01,	 5.5363862299140486e+01,	 7.9709677906728359e+02,	 1.0952120303793967e+04,	 5.4178313348011113e+02,	 1.1618643494833120e-01 
5.7442660000000001e-01,	 5.0607020000000003e-02,	 4.7677806434131956e-02,	 2.5477302019002373e+01,	 6.5437931863819870e+01,	 7.9677703080847709e+02,	 1.0929065015031376e+04,	 5.4167445684607128e+02,	 1.2963988876787416e-01 
5.7626980000000005e-01,	 5.7620810000000001e-02,	 4.7572034625862104e-02,	 2.2199375250078678e+01,	 7.4746252944766468e+01,	 7.9638497880128887e+02,	 1.0899453519302169e+04,	 5.4154117571495260e+02,	 1.4398381754611386e-01 
5.7791780000000004e-01,	 6.5395350000000005e-02,	 4.7449782442115916e-02,	 1.9732548523231451e+01,	 8.3810864200470832e+01,	 7.9593275674301185e+02,	 1.0865270465128460e+04,	 5.4138739855485233e+02,	 1.5904039314639137e-01 
5.7983560000000001e-01,	 7.3545059999999995e-02,	 4.7312794828857724e-02,	 1.7459012738160585e+01,	 9.3297848419440257e+01,	 7.9546354422965089e+02,	 1.0827515684706728e+04,	 5.4122779764088170e+02,	 1.7537414487159109e-01 
5.8310689999999998e-01,	 8.1889909999999996e-02,	 4.7166855070320222e-02,	 1.5669096917919971e+01,	 1.0217369359892807e+02,	 7.9500155770364211e+02,	 1.0787848455031293e+04,	 5.4107060862404808e+02,	 1.9104382291067110e-01 
5.8515519999999999e-01,	 8.9916389999999999e-02,	 4.7041937252972357e-02,	 1.5241723757935883e+01,	 1.1022478076660518e+02,	 7.9438465855060326e+02,	 1.0750928760420416e+04,	 5.4086063999300359e+02,	 2.0573431397683870e-01 
5.8608810000000000e-01,	 9.9513950000000004e-02,	 4.6890613036497317e-02,	 1.5286740024472815e+01,	 1.2012430940813744e+02,	 7.9346027299053662e+02,	 1.0703875165296606e+04,	 5.4054586220203919e+02,	 2.2401999332758618e-01 
5.8655590000000002e-01,	 1.0973629999999999e-01,	 4.6672624358896291e-02,	 1.6035707299877750e+01,	 1.3152252376446896e+02,	 7.9219883543373260e+02,	 1.0637176333909825e+04,	 5.4011601328798633e+02,	 2.4531115600883066e-01 
5.8690410000000004e-01,	 1.2006740000000000e-01,	 4.6403378124182201e-02,	 1.7184085934389913e+01,	 1.4431922910978429e+02,	 7.9055515366422651e+02,	 1.0553869253539868e+04,	 5.3955539657049928e+02,	 2.6936748971944879e-01 
5.8727730000000000e-01,	 1.3027800000000000e-01,	 4.6075621649927734e-02,	 1.8606561663323596e+01,	 1.5868541035772091e+02,	 7.8846612531356641e+02,	 1.0451633697956684e+04,	 5.3884204208997232e+02,	 2.9651089665601843e-01 
5.8769859999999996e-01,	 1.4034820000000001e-01,	 4.5670452487316181e-02,	 2.0294175022988632e+01,	 1.7494569607277299e+02,	 7.8584107865846374e+02,	 1.0325235813435742e+04,	 5.3794430867240158e+02,	 3.2739235158822766e-01 
5.8816179999999996e-01,	 1.5030430000000000e-01,	 4.5158217817057186e-02,	 2.2287827146441934e+01,	 1.9360247128984244e+02,	 7.8255095330148288e+02,	 1.0166684731955700e+04,	 5.3681700654572467e+02,	 3.6303088665263533e-01 
5.8865880000000004e-01,	 1.6021400000000000e-01,	 4.4498406366817470e-02,	 2.4684760446274751e+01,	 2.1551031231681037e+02,	 7.7820223105074047e+02,	 9.9624663336475769e+03,	 5.3532335279811866e+02,	 4.0521193916715620e-01 
5.8919259999999996e-01,	 1.7014150000000000e-01,	 4.3615815907525959e-02,	 2.8245806638319888e+01,	 2.4228298254464076e+02,	 7.7230598296644871e+02,	 9.6908827227317252e+03,	 5.3329148965152615e+02,	 4.5739319904633785e-01 
5.8983799999999997e-01,	 1.8014700000000000e-01,	 4.2320218031785692e-02,	 3.5940756107512058e+01,	 2.7741080220360487e+02,	 7.6363286869877254e+02,	 9.2974199376005217e+03,	 5.3028856253288529e+02,	 5.2750396175018832e-01 
5.9084360000000002e-01,	 1.9018119999999999e-01,	 4.0082038527467979e-02,	 5.5111710690130451e+01,	 3.2786241724915863e+02,	 7.4859436437250235e+02,	 8.6322953660273743e+03,	 5.2504101426118609e+02,	 6.3321172457535058e-01 
5.9283310000000000e-01,	 1.9973460000000001e-01,	 3.5878193396813175e-02,	 1.0610924093982229e+02,	 4.0445414999507022e+02,	 7.1858499973222558e+02,	 7.4171771411869204e+03,	 5.1440955532240878e+02,	 8.1285721723213589e-01 
5.9734109999999996e-01,	 2.0667880000000000e-01,	 2.3583512415881212e-02,	 3.4450348308877551e+02,	 4.9347005634773268e+02,	 6.0652356159724741e+02,	 4.1151540856581023e+03,	 4.7260008111231826e+02,	 1.2734375188354055e+00 
6.0478690000000002e-01,	 2.0749080000000000e-01,	 1.0318308865407917e-02,	 6.1987534222553518e+02,	 4.7693229009891138e+02,	 4.9857966625530389e+02,	 1.4800385375822448e+03,	 4.2848659012445694e+02,	 1.8253052450999425e+00 
6.1218320000000004e-01,	 2.0793819999999999e-01,	 5.3223410549563342e-03,	 7.8252653320581931e+02,	 3.2870828540671340e+02,	 4.4092324045035497e+02,	 6.7514278146390063e+02,	 4.0295026785826553e+02,	 2.1063690871556027e+00 
6.1946979999999996e-01,	 2.0826680000000000e-01,	 3.3090466224279971e-03,	 8.7171721629363253e+02,	 1.7638682049208251e+02,	 3.9689486613178423e+02,	 3.7784032395105993e+02,	 3.8230298960727578e+02,	 2.3263841501038667e+00 
6.2667870000000003e-01,	 2.0856130000000001e-01,	 2.5279291898419667e-03,	 9.1411958031629138e+02,	 6.7701205493740446e+01,	 3.6703241726606393e+02,	 2.6693115531116359e+02,	 3.6763949895568868e+02,	 2.4932663274808209e+00 
6.3383259999999997e-01,	 2.0884580000000000e-01,	 2.2274860600138744e-03,	 9.3302256681504275e+02,	 3.6791680268757307e+00,	 3.5131536499754611e+02,	 2.2513451270544553e+02,	 3.5968185199523805e+02,	 2.5940419723808543e+00 
6.4095179999999996e-01,	 2.0911790000000000e-01,	 2.1484657764906921e-03,	 9.4099654746621627e+02,	 -2.7846044892054536e+01,	 3.4352434461994994e+02,	 2.1233221844538474e+02,	 3.5567121083627370e+02,	 2.6468503489061139e+00 