TITLE = "Final State"
VARIABLES = "X", "Y", "rho", "u", "v", "T", "p", "c", "M"
ZONE I=51, J=48, DATAPACKING=POINT
1.1562779999999999e+00,	 2.0000000000000001e-01,	 1.5047371382881832e-02,	 -3.3779325979891252e+02,	 -7.8559872234588490e-02,	 7.5407947491977143e+02,	 3.2644325332005860e+03,	 5.2696104729635499e+02,	 6.4102132532804679e-01 
1.1637430000000000e+00,	 2.0000000000000001e-01,	 1.5132730880906163e-02,	 -3.3395149585499155e+02,	 -2.0511367750609050e-01,	 7.5569919819313327e+02,	 3.2900023456444333e+03,	 5.2752668610326316e+02,	 6.3305149794873217e-01 
1.1712070000000001e+00,	 2.0000000000000001e-01,	 1.5265958223349807e-02,	 -3.2851951956770193e+02,	 -2.5917064632610198e-01,	 7.5770718112336135e+02,	 3.3277861529956394e+03,	 5.2822707183125021e+02,	 6.2192878653354566e-01 
1.1786710000000000e+00,	 2.0000000000000001e-01,	 1.5409617648712209e-02,	 -3.2244265475782470e+02,	 -3.3412693515916203e-01,	 7.5985577967472182e+02,	 3.3686273592232023e+03,	 5.2897547735467526e+02,	 6.0956101308811739e-01 
1.1861360000000001e+00,	 2.0000000000000001e-01,	 1.5559512208910539e-02,	 -3.1583430011586290e+02,	 -4.1005443470258940e-01,	 7.6206166294085983e+02,	 3.4112694846166842e+03,	 5.2974273645577966e+02,	 5.9620367505188343e-01 
1.1936000000000000e+00,	 2.0000000000000001e-01,	 1.5713923183455075e-02,	 -3.0875747770842611e+02,	 -4.6798247313138785e-01,	 7.6429114506643350e+02,	 3.4552015926285608e+03,	 5.3051707629038617e+02,	 5.8199414527196114e-01 
1.2010650000000000e+00,	 2.0000000000000001e-01,	 1.5873856488259244e-02,	 -3.0123368749756196e+02,	 -4.8893449631244879e-01,	 7.6656458753002471e+02,	 3.5007503400948635e+03,	 5.3130552221113044e+02,	 5.6696960919990091e-01 
1.2085290000000000e+00,	 2.0000000000000001e-01,	 1.6042090807754254e-02,	 -2.9326744837679178e+02,	 -4.7386217596578328e-01,	 7.6893533860866637e+02,	 3.5487934953615286e+03,	 5.3212647114276763e+02,	 5.5112430430400916e-01 
1.2159940000000000e+00,	 2.0000000000000001e-01,	 1.6220672133247203e-02,	 -2.8485954847867396e+02,	 -4.3203719874232727e-01,	 7.7144103132119267e+02,	 3.5999918523585407e+03,	 5.3299277347861960e+02,	 5.3445354286456548e-01 
1.2234579999999999e+00,	 2.0000000000000001e-01,	 1.6409426333531152e-02,	 -2.7605954124816128e+02,	 -4.2179756362648591e-01,	 7.7407086462864333e+02,	 3.6542988170620015e+03,	 5.3390048355874421e+02,	 5.1706239643174412e-01 
1.2309230000000000e+00,	 2.0000000000000001e-01,	 1.6605214544771922e-02,	 -2.6693130583706574e+02,	 -4.5704061353573899e-01,	 7.7674822779319175e+02,	 3.7106902209985597e+03,	 5.3482301639249931e+02,	 4.9910286006476334e-01 
1.2383869999999999e+00,	 2.0000000000000001e-01,	 1.6803936286049381e-02,	 -2.5753602718544749e+02,	 -5.2204008833062665e-01,	 7.7936230020915775e+02,	 3.7677350707704700e+03,	 5.3572220853421618e+02,	 4.8072779545939442e-01 
1.2458520000000000e+00,	 2.0000000000000001e-01,	 1.7000917544203673e-02,	 -2.4791441613454350e+02,	 -5.9405286887516984e-01,	 7.8186706147884865e+02,	 3.8241526164150109e+03,	 5.3658238603664586e+02,	 4.6202621315964321e-01 
1.2533160000000001e+00,	 2.0000000000000001e-01,	 1.7193927117300580e-02,	 -2.3812271448949195e+02,	 -6.5987993778082221e-01,	 7.8419878480386228e+02,	 3.8791018618124322e+03,	 5.3738190189806369e+02,	 4.4311806551053279e-01 
1.2607809999999999e+00,	 2.0000000000000001e-01,	 1.7382901365971478e-02,	 -2.2816516326737067e+02,	 -7.0216345115586676e-01,	 7.8639021356784190e+02,	 3.9326953397317452e+03,	 5.3813222988139466e+02,	 4.2399661463554900e-01 
1.2682450000000001e+00,	 2.0000000000000001e-01,	 1.7569081270376652e-02,	 -2.1805572734583757e+02,	 -7.3502949465180478e-01,	 7.8847136873366662e+02,	 3.9853357678177031e+03,	 5.3884383377791323e+02,	 4.0467562678488284e-01 
1.2757090000000000e+00,	 2.0000000000000001e-01,	 1.7752832362532941e-02,	 -2.0780049626798797e+02,	 -7.6063543940510114e-01,	 7.9046022580955741e+02,	 4.0371753386422611e+03,	 5.3952300137727127e+02,	 3.8515853420969831e-01 
1.2831740000000000e+00,	 2.0000000000000001e-01,	 1.7933868913854227e-02,	 -1.9742895568414315e+02,	 -7.9270605347096446e-01,	 7.9235375354598841e+02,	 4.0881144722122112e+03,	 5.4016882178702645e+02,	 3.6549785757680003e-01 
1.2906380000000000e+00,	 2.0000000000000001e-01,	 1.8111137449881277e-02,	 -1.8694782140964256e+02,	 -8.1568202932864531e-01,	 7.9413876412667253e+02,	 4.1378244328697010e+03,	 5.4077692430975571e+02,	 3.4570558111871985e-01 
1.2981030000000000e+00,	 2.0000000000000001e-01,	 1.8284790642530056e-02,	 -1.7636903047600936e+02,	 -8.2964666997551784e-01,	 7.9581863556779103e+02,	 4.1863355369093752e+03,	 5.4134858498646122e+02,	 3.2579928478887765e-01 
1.3055669999999999e+00,	 2.0000000000000001e-01,	 1.8456338891053279e-02,	 -1.6569566006534546e+02,	 -8.2063155287927603e-01,	 7.9742802956253024e+02,	 4.2341573230840431e+03,	 5.4189569653057595e+02,	 3.0577414299754491e-01 
1.3130320000000000e+00,	 2.0000000000000001e-01,	 1.8626938773543468e-02,	 -1.5493877173603721e+02,	 -8.1436778703141721e-01,	 7.9898572631914817e+02,	 4.2816429211363629e+03,	 5.4242470812712304e+02,	 2.8564501134178572e-01 
1.3204959999999999e+00,	 2.0000000000000001e-01,	 1.8796281916946725e-02,	 -1.4411185065355625e+02,	 -7.9818683144812530e-01,	 8.0049163239014320e+02,	 4.3287119216250085e+03,	 5.4293564099286823e+02,	 2.6543488804050475e-01 
1.3279609999999999e+00,	 2.0000000000000001e-01,	 1.8963901564298172e-02,	 -1.3324953752776531e+02,	 -7.8962394397320823e-01,	 8.0193902121831775e+02,	 4.3752107352957073e+03,	 5.4342626703219116e+02,	 2.4520691252693350e-01 
1.3354250000000001e+00,	 2.0000000000000001e-01,	 1.9127795393528546e-02,	 -1.2238261957926736e+02,	 -7.8593242408528408e-01,	 8.0330486252427022e+02,	 4.4205392482583502e+03,	 5.4388884476761007e+02,	 2.2501866756695529e-01 
1.3428899999999999e+00,	 2.0000000000000001e-01,	 1.9284452324981098e-02,	 -1.1156880140475243e+02,	 -7.9672245732734015e-01,	 8.0460893521483365e+02,	 4.4639785395943436e+03,	 5.4433013611347712e+02,	 2.0497054764795195e-01 
1.3503540000000001e+00,	 2.0000000000000001e-01,	 1.9436598540299117e-02,	 -1.0083464929366119e+02,	 -7.9250559179935753e-01,	 8.0571630504252380e+02,	 4.5053896223918282e+03,	 5.4470458355499102e+02,	 1.8512376547168394e-01 
1.3578190000000001e+00,	 2.0000000000000001e-01,	 1.9583354868100804e-02,	 -9.0198790006419159e+01,	 -7.7980034997011072e-01,	 8.0663948324059083e+02,	 4.5446088223055485e+03,	 5.4501655157212554e+02,	 1.6550352554938416e-01 
1.3652830000000000e+00,	 2.0000000000000001e-01,	 1.9719868351300567e-02,	 -7.9683802502178949e+01,	 -7.7478157794124547e-01,	 8.0749405852554173e+02,	 4.5811370487419654e+03,	 5.4530517765033471e+02,	 1.4613389411555813e-01 
1.3727469999999999e+00,	 2.0000000000000001e-01,	 1.9848376756188793e-02,	 -6.9324127922784726e+01,	 -7.6828694059666369e-01,	 8.0822586485314525e+02,	 4.6151697255847776e+03,	 5.4555221811016975e+02,	 1.2707928365673879e-01 
1.3802120000000000e+00,	 2.0000000000000001e-01,	 1.9969486198398112e-02,	 -5.9105715595260321e+01,	 -7.5452941974144005e-01,	 8.0885433051280665e+02,	 4.6469408383292548e+03,	 5.4576428395985261e+02,	 1.0830780468296297e-01 
1.3876759999999999e+00,	 2.0000000000000001e-01,	 2.0084439761130314e-02,	 -4.9049332874329437e+01,	 -7.3709036275015616e-01,	 8.0939660010042576e+02,	 4.6768240918267611e+03,	 5.4594719809899959e+02,	 8.9852775243798047e-02 
1.3951410000000000e+00,	 2.0000000000000001e-01,	 2.0193477215309605e-02,	 -3.9152740611686326e+01,	 -7.1889563971548687e-01,	 8.0985447873307021e+02,	 4.7048744040591446e+03,	 5.4610159843452186e+02,	 7.1707059823496663e-02 
1.4026050000000001e+00,	 2.0000000000000001e-01,	 2.0295943973056001e-02,	 -2.9458299494045264e+01,	 -7.0713237553184816e-01,	 8.1021514118364064e+02,	 4.7308540259271349e+03,	 5.4622318596804496e+02,	 5.3946420100455715e-02 
1.4100699999999999e+00,	 2.0000000000000001e-01,	 2.0389508273450818e-02,	 -1.9973680781008614e+01,	 -7.0689608484703559e-01,	 8.1045237732748615e+02,	 4.7540548726945617e+03,	 5.4630314892564354e+02,	 3.6584423719626766e-02 
1.4175340000000001e+00,	 2.0000000000000001e-01,	 2.0472550555760510e-02,	 -1.0755980873189490e+01,	 -7.0477926735695728e-01,	 8.1052658972367044e+02,	 4.7738542599566563e+03,	 5.4632816059739139e+02,	 1.9729984725940928e-02 
1.4249989999999999e+00,	 2.0000000000000001e-01,	 2.0543612040750496e-02,	 -1.7997926545466578e+00,	 -7.1273225164906551e-01,	 8.1041158502446183e+02,	 4.7897448944550579e+03,	 5.4628940028066427e+02,	 3.5435048430836149e-03 
1.4324630000000000e+00,	 2.0000000000000001e-01,	 2.0605658637273844e-02,	 6.9103530724042592e+00,	 -6.9987502396559420e-01,	 8.1019535381887908e+02,	 4.8029292207942208e+03,	 5.4621651589804469e+02,	 1.2716027142184620e-02 
1.4399280000000001e+00,	 2.0000000000000001e-01,	 2.0660795027918902e-02,	 1.5416337571213118e+01,	 -6.7983082783422688e-01,	 8.0985955250263532e+02,	 4.8137848504270887e+03,	 5.4610330910563789e+02,	 2.8257144114379296e-02 
1.4473920000000000e+00,	 2.0000000000000001e-01,	 2.0709959656358939e-02,	 2.3719554226332406e+01,	 -6.5470213231877361e-01,	 8.0948861288475450e+02,	 4.8230296771199401e+03,	 5.4597822905107296e+02,	 4.3460685277444018e-02 
1.4548570000000001e+00,	 2.0000000000000001e-01,	 2.0754405051807624e-02,	 3.1849825116806521e+01,	 -6.3401234247865479e-01,	 8.0909526395198384e+02,	 4.8310316736709428e+03,	 5.4584556131132842e+02,	 5.8361077145855186e-02 
1.4623210000000000e+00,	 2.0000000000000001e-01,	 2.0794571271694026e-02,	 3.9795339403459231e+01,	 -6.1477389118394909e-01,	 8.0866610715445381e+02,	 4.8378138064354471e+03,	 5.4570077959363311e+02,	 7.2933903050277540e-02 
1.4697849999999999e+00,	 2.0000000000000001e-01,	 2.0830189761361119e-02,	 4.7569988329367689e+01,	 -5.9976803711046056e-01,	 8.0819058997744150e+02,	 4.8432507381612777e+03,	 5.4554031271496797e+02,	 8.7204864688225373e-02 
1.4772500000000000e+00,	 2.0000000000000001e-01,	 2.0861867053066196e-02,	 5.5168903669011300e+01,	 -5.8064793853717700e-01,	 8.0767824381194464e+02,	 4.8475410502281538e+03,	 5.4536736477271177e+02,	 1.0116476119184274e-01 
1.4847140000000001e+00,	 2.0000000000000001e-01,	 2.0890174930979465e-02,	 6.2616790223266946e+01,	 -5.6411335954575681e-01,	 8.0713463204738082e+02,	 4.8508516858512230e+03,	 5.4518380280394990e+02,	 1.1485911887405149e-01 
1.4921789999999999e+00,	 2.0000000000000001e-01,	 2.0915508794173560e-02,	 6.9910265183263647e+01,	 -5.4540595964350325e-01,	 8.0656664017734170e+02,	 4.8533166429476651e+03,	 5.4499194233076730e+02,	 1.2828151614168279e-01 
1.4996430000000001e+00,	 2.0000000000000001e-01,	 2.0937502274157457e-02,	 7.7061916980538172e+01,	 -5.3369384732202119e-01,	 8.0595652016122881e+02,	 4.8547449884546695e+03,	 5.4478577623053434e+02,	 1.4145700635817521e-01 
1.5071079999999999e+00,	 2.0000000000000001e-01,	 2.0955873349853257e-02,	 8.4072375623154784e+01,	 -5.2211447448503878e-01,	 8.0529451688517452e+02,	 4.8550135305401100e+03,	 5.4456198992914085e+02,	 1.5438829445588528e-01 
1.5145720000000000e+00,	 2.0000000000000001e-01,	 2.0969696446840391e-02,	 9.0975869022244211e+01,	 -5.2055150072129663e-01,	 8.0457214775878970e+02,	 4.8538580970405910e+03,	 5.4431769233553155e+02,	 1.6714018220131577e-01 
1.5220370000000001e+00,	 2.0000000000000001e-01,	 2.0976984503654483e-02,	 9.7807841307170051e+01,	 -5.1984102519924269e-01,	 8.0384159434250773e+02,	 4.8511362179847129e+03,	 5.4407051533637014e+02,	 1.7977306249381150e-01 
1.5295010000000000e+00,	 2.0000000000000001e-01,	 2.0988460432471399e-02,	 1.0401619075919493e+02,	 -5.4952732897352519e-01,	 8.0309915368092584e+02,	 4.8493071041717276e+03,	 5.4381920127733349e+02,	 1.9127247090035815e-01 
1.1562770000000000e+00,	 2.0650890000000000e-01,	 1.4825723015512673e-02,	 -2.8362928457415040e+02,	 -2.2351902582541592e+00,	 7.6548398400867313e+02,	 3.2649905457847653e+03,	 5.3093090727062111e+02,	 5.3422787778487890e-01 
1.1637409999999999e+00,	 2.0650560000000001e-01,	 1.4913009246930847e-02,	 -2.7939874479582448e+02,	 -2.6929216737865556e+00,	 7.6695768068718530e+02,	 3.2905358417204402e+03,	 5.3144173108418761e+02,	 5.2576172646994901e-01 
1.1712060000000000e+00,	 2.0650230000000000e-01,	 1.5045573019557636e-02,	 -2.7360396944261987e+02,	 -3.2000424263703513e+00,	 7.6862795631687561e+02,	 3.3270156723363339e+03,	 5.3202010159795668e+02,	 5.1430891738084716e-01 
1.1786700000000001e+00,	 2.0649899999999999e-01,	 1.5189424452883713e-02,	 -2.6714424894683339e+02,	 -3.7182555247448033e+00,	 7.7047855009954310e+02,	 3.3669123313558703e+03,	 5.3266017797012694e+02,	 5.0157705619999493e-01 
1.1861349999999999e+00,	 2.0649560000000000e-01,	 1.5343733434418321e-02,	 -2.6012907966886434e+02,	 -4.2251872622305351e+00,	 7.7240912075022857e+02,	 3.4096388102687838e+03,	 5.3332709773132649e+02,	 4.8781206251304793e-01 
1.1935990000000001e+00,	 2.0649229999999999e-01,	 1.5507096146822960e-02,	 -2.5263383715523329e+02,	 -4.6642263612280566e+00,	 7.7441541492955298e+02,	 3.4548914457453557e+03,	 5.3401929380913236e+02,	 4.7316060078162758e-01 
1.2010639999999999e+00,	 2.0648900000000001e-01,	 1.5678239675963386e-02,	 -2.4471326194392981e+02,	 -4.9635376094957611e+00,	 7.7646783220850352e+02,	 3.5022787179223897e+03,	 5.3472647574842279e+02,	 4.5773606838820480e-01 
1.2085280000000000e+00,	 2.0648569999999999e-01,	 1.5856019168749166e-02,	 -2.3639402114214471e+02,	 -5.1138458160636837e+00,	 7.7854712301214420e+02,	 3.5514769785176750e+03,	 5.3544196481300776e+02,	 4.4159655650797158e-01 
1.2159930000000001e+00,	 2.0648230000000001e-01,	 1.6039583625774022e-02,	 -2.2768423365025586e+02,	 -5.1800091716700987e+00,	 7.8064031703214084e+02,	 3.6022512836014530e+03,	 5.3616127361563861e+02,	 4.2476613293923926e-01 
1.2234570000000000e+00,	 2.0647900000000000e-01,	 1.6228870950315815e-02,	 -2.1859653936387440e+02,	 -5.3027064012407479e+00,	 7.8274739292455411e+02,	 3.6546002036624936e+03,	 5.3688437948357443e+02,	 4.0727734812977762e-01 
1.2309220000000001e+00,	 2.0647570000000001e-01,	 1.6423775079525048e-02,	 -2.0915841867786901e+02,	 -5.5851044175022331e+00,	 7.8485895718904078e+02,	 3.7084680805022945e+03,	 5.3760804995271167e+02,	 3.8919241299423485e-01 
1.2383860000000000e+00,	 2.0647230000000000e-01,	 1.6623706062156397e-02,	 -1.9941163441682139e+02,	 -6.0380798893049867e+00,	 7.8694166962141162e+02,	 3.7635728855218463e+03,	 5.3832087939904295e+02,	 3.7060243445263880e-01 
1.2458510000000000e+00,	 2.0646900000000001e-01,	 1.6826559820659850e-02,	 -1.8942547124617647e+02,	 -6.5974898604846537e+00,	 7.8897304180298238e+02,	 3.8193322100906007e+03,	 5.3901522900248528e+02,	 3.5164187956374493e-01 
1.2533150000000000e+00,	 2.0646570000000000e-01,	 1.7029860517510566e-02,	 -1.7926719690093489e+02,	 -7.1651248185766665e+00,	 7.9089020258289133e+02,	 3.8748707785551255e+03,	 5.3966972022101504e+02,	 3.3244468673717753e-01 
1.2607800000000000e+00,	 2.0646229999999999e-01,	 1.7231127142416182e-02,	 -1.6899302297795833e+02,	 -7.6457237840268881e+00,	 7.9266473550917567e+02,	 3.9294626211306672e+03,	 5.4027481376391836e+02,	 3.1311082317545091e-01 
1.2682439999999999e+00,	 2.0645900000000000e-01,	 1.7429342943474296e-02,	 -1.5862902025367069e+02,	 -8.0232077308028611e+00,	 7.9428680692162538e+02,	 3.9827981957676839e+03,	 5.4082732758950340e+02,	 2.9368299862400954e-01 
1.2757090000000000e+00,	 2.0645559999999999e-01,	 1.7624501689368282e-02,	 -1.4818468911489956e+02,	 -8.3167317324600987e+00,	 7.9577259975992865e+02,	 4.0349277771316501e+03,	 5.4133292703454254e+02,	 2.7417118510972227e-01 
1.2831729999999999e+00,	 2.0645230000000001e-01,	 1.7817390064290763e-02,	 -1.3766441253701601e+02,	 -8.5658258309280235e+00,	 7.9714869443857947e+02,	 4.0861411480679708e+03,	 5.4180077651625822e+02,	 2.5457816725325993e-01 
1.2906380000000000e+00,	 2.0644889999999999e-01,	 1.8008287000768897e-02,	 -1.2707264686720202e+02,	 -8.7618006565344775e+00,	 7.9843116754752975e+02,	 4.1365647108689564e+03,	 5.4223643280263855e+02,	 2.3490556692017478e-01 
1.2981020000000001e+00,	 2.0644560000000001e-01,	 1.8197202525215422e-02,	 -1.1642212239669294e+02,	 -8.8873217541516762e+00,	 7.9961778960453239e+02,	 4.1861714709351227e+03,	 5.4263921694350688e+02,	 2.1517214749743144e-01 
1.3055669999999999e+00,	 2.0644219999999999e-01,	 1.8383639517969647e-02,	 -1.0572582262582230e+02,	 -8.9086777099802550e+00,	 8.0073292227353215e+02,	 4.2349581000169355e+03,	 5.4301746258948731e+02,	 1.9539056830261228e-01 
1.3130310000000001e+00,	 2.0643890000000001e-01,	 1.8567352003139824e-02,	 -9.4991276472742172e+01,	 -8.8693752853694559e+00,	 8.0177997482209867e+02,	 4.2828721823546948e+03,	 5.4337237622947623e+02,	 1.7557838921514671e-01 
1.3204959999999999e+00,	 2.0643549999999999e-01,	 1.8748198588764614e-02,	 -8.4231525576067270e+01,	 -8.7911498670840427e+00,	 8.0274684610869735e+02,	 4.3298025365573803e+03,	 5.4369990552265676e+02,	 1.5576431666615212e-01 
1.3279600000000000e+00,	 2.0643220000000001e-01,	 1.8926054231286314e-02,	 -7.3461203911542199e+01,	 -8.7119338013014183e+00,	 8.0364138155967430e+02,	 4.3757480634570848e+03,	 5.4400275530980889e+02,	 1.3598457672591474e-01 
1.3354250000000001e+00,	 2.0642880000000000e-01,	 1.9100318718911234e-02,	 -6.2712512170872429e+01,	 -8.6594582780114990e+00,	 8.0444787295078982e+02,	 4.4204701204533385e+03,	 5.4427565285577862e+02,	 1.1631522708220458e-01 
1.3428890000000000e+00,	 2.0642540000000001e-01,	 1.9270943222160185e-02,	 -5.2020256539429710e+01,	 -8.6292005461212291e+00,	 8.0513139352900737e+02,	 4.4637480165118950e+03,	 5.4450683291732594e+02,	 9.6841965976120617e-02 
1.3503540000000001e+00,	 2.0642210000000000e-01,	 1.9434784669105528e-02,	 -4.1426414328681261e+01,	 -8.5976340626044170e+00,	 8.0570622006174176e+02,	 4.5049127806007300e+03,	 5.4470117456822209e+02,	 7.7674120677342390e-02 
1.3578180000000000e+00,	 2.0641870000000001e-01,	 1.9590846563619424e-02,	 -3.0976126193665038e+01,	 -8.5516368733444352e+00,	 8.0617398335978919e+02,	 4.5437237509336064e+03,	 5.4485926832600830e+02,	 5.8978322836907647e-02 
1.3652830000000000e+00,	 2.0641540000000000e-01,	 1.9739975949653082e-02,	 -2.0686629100665570e+01,	 -8.4838390513795705e+00,	 8.0650745433868155e+02,	 4.5802052739727405e+03,	 5.4497194621679648e+02,	 4.1027277508233949e-02 
1.3727469999999999e+00,	 2.0641200000000001e-01,	 1.9881336886909004e-02,	 -1.0569790403347975e+01,	 -8.3823194161227654e+00,	 8.0674205754425816e+02,	 4.6143466799119815e+03,	 5.4505120330768648e+02,	 2.4750216360247532e-02 
1.3802120000000000e+00,	 2.0640860000000000e-01,	 2.0015009785846274e-02,	 -6.3102870099284836e-01,	 -8.2406018654308308e+00,	 8.0689977389197520e+02,	 4.6462795695113773e+03,	 5.4510447887655744e+02,	 1.5161730564910861e-02 
1.3876759999999999e+00,	 2.0640530000000001e-01,	 2.0140716029637924e-02,	 9.1275949308712168e+00,	 -8.0731951577648786e+00,	 8.0701429552687102e+02,	 4.6761245654017375e+03,	 5.4514316028611984e+02,	 2.2353074212867113e-02 
1.3951410000000000e+00,	 2.0640190000000000e-01,	 2.0259100652531968e-02,	 1.8698360051906249e+01,	 -7.9125408612952928e+00,	 8.0703983985029276e+02,	 4.7037591265808132e+03,	 5.4515178789227400e+02,	 3.7243975194103718e-02 
1.4026050000000001e+00,	 2.0639850000000001e-01,	 2.0369930382798170e-02,	 2.8061311025853310e+01,	 -7.7895305463047428e+00,	 8.0696040517657161e+02,	 4.7290260689492243e+03,	 5.4512495834936567e+02,	 5.3423340449888411e-02 
1.4100699999999999e+00,	 2.0639510000000000e-01,	 2.0472045408273916e-02,	 3.7201341918359816e+01,	 -7.7216345082338149e+00,	 8.0677887101443400e+02,	 4.7516636308476927e+03,	 5.4506363912724578e+02,	 6.9706091462190145e-02 
1.4175340000000001e+00,	 2.0639179999999999e-01,	 2.0564846863150407e-02,	 4.6088246422484239e+01,	 -7.6796365088926457e+00,	 8.0647808153950973e+02,	 4.7714237282083468e+03,	 5.4496202225565196e+02,	 8.5737517146984479e-02 
1.4249980000000000e+00,	 2.0638840000000000e-01,	 2.0647414954260025e-02,	 5.4701558844925692e+01,	 -7.6256790449316716e+00,	 8.0604588714608280e+02,	 4.7880137591088924e+03,	 5.4481597917043234e+02,	 1.0137465274071351e-01 
1.4324630000000000e+00,	 2.0638500000000001e-01,	 2.0720743442763756e-02,	 6.3048876675313487e+01,	 -7.4945728729596368e+00,	 8.0552427852663629e+02,	 4.8019087785344191e+03,	 5.4463966991500718e+02,	 1.1657753712409369e-01 
1.4399270000000000e+00,	 2.0638170000000000e-01,	 2.0785746692066235e-02,	 7.1151940359011576e+01,	 -7.3023652851194774e+00,	 8.0490034691971618e+02,	 4.8132418313217458e+03,	 5.4442869940683215e+02,	 1.3137750061399289e-01 
1.4473920000000000e+00,	 2.0637829999999999e-01,	 2.0843519788760579e-02,	 7.9033971542648985e+01,	 -7.0744501831341697e+00,	 8.0422296955579588e+02,	 4.8225581088680410e+03,	 5.4419956464478150e+02,	 1.4581041104792647e-01 
1.4548559999999999e+00,	 2.0637490000000000e-01,	 2.0895713979995040e-02,	 8.6725894413282617e+01,	 -6.8525437118357591e+00,	 8.0351641422730347e+02,	 4.8303867617811011e+03,	 5.4396045707968744e+02,	 1.5993110318939299e-01 
1.4623210000000000e+00,	 2.0637150000000001e-01,	 2.0943290001029836e-02,	 9.4241625124064271e+01,	 -6.6436230369917872e+00,	 8.0278522399737528e+02,	 4.8369791371767506e+03,	 5.4371290202657531e+02,	 1.7375991586771097e-01 
1.4697849999999999e+00,	 2.0636820000000000e-01,	 2.0986476859782787e-02,	 1.0158694815232238e+02,	 -6.4515434000886884e+00,	 8.0202944783045086e+02,	 4.8423902745084179e+03,	 5.4345690453067186e+02,	 1.8730390980417236e-01 
1.4772500000000000e+00,	 2.0636479999999999e-01,	 2.1025575502379146e-02,	 1.0876624355965998e+02,	 -6.2589790198292334e+00,	 8.0125161111809985e+02,	 4.8467067686120918e+03,	 5.4319330867692679e+02,	 2.0056613398325379e-01 
1.4847140000000001e+00,	 2.0636140000000000e-01,	 2.1061078682441267e-02,	 1.1578774811560830e+02,	 -6.0769704984702697e+00,	 8.0044744942950342e+02,	 4.8500182544742147e+03,	 5.4292065717910646e+02,	 2.1356179377647747e-01 
1.4921789999999999e+00,	 2.0635800000000001e-01,	 2.1092719078661636e-02,	 1.2266283416877407e+02,	 -5.9109206010136468e+00,	 7.9962061296416391e+02,	 4.8522870753612242e+03,	 5.4264017494139489e+02,	 2.2631050194440114e-01 
1.4996430000000001e+00,	 2.0635460000000000e-01,	 2.1120471766723908e-02,	 1.2939167996670341e+02,	 -5.7838965734590655e+00,	 7.9876641505092380e+02,	 4.8534811637628891e+03,	 5.4235025872765755e+02,	 2.3881409741494941e-01 
1.5071079999999999e+00,	 2.0635129999999999e-01,	 2.1144277131821380e-02,	 1.3597943648992319e+02,	 -5.6946236925870153e+00,	 7.9787891191279914e+02,	 4.8535528897126978e+03,	 5.4204887441527103e+02,	 2.5108183415278990e-01 
1.5145720000000000e+00,	 2.0634790000000000e-01,	 2.1163879553350837e-02,	 1.4243224691247650e+02,	 -5.6645740842652783e+00,	 7.9695032751283270e+02,	 4.8523986379017015e+03,	 5.4173335995885918e+02,	 2.6312731292981684e-01 
1.5220370000000001e+00,	 2.0634449999999999e-01,	 2.1176667724020815e-02,	 1.4873872048718505e+02,	 -5.6956574729962606e+00,	 7.9603889302714629e+02,	 4.8497778634402584e+03,	 5.4142349389759590e+02,	 2.7491923463022977e-01 
1.5295010000000000e+00,	 2.0634110000000000e-01,	 2.1195416041212008e-02,	 1.5430048719015542e+02,	 -5.7548614664433853e+00,	 7.9516229549990283e+02,	 4.8487262117378250e+03,	 5.4112530417829555e+02,	 2.8534567996464544e-01 
1.1562630000000000e+00,	 2.1271399999999999e-01,	 1.4476933067111862e-02,	 -1.7118094932295816e+02,	 -5.6691907678274482e+00,	 7.8347949096828552e+02,	 3.2631281999320649e+03,	 5.3713539286653361e+02,	 3.1886709074304997e-01 
1.1637280000000001e+00,	 2.1270890000000001e-01,	 1.4572856742417111e-02,	 -1.6620401421287059e+02,	 -6.6033659374228035e+00,	 7.8470183598381277e+02,	 3.2898742783781927e+03,	 5.3755423528199935e+02,	 3.0942950316949802e-01 
1.1711929999999999e+00,	 2.1270370000000000e-01,	 1.4715408246934111e-02,	 -1.5983118644448689e+02,	 -7.6932410623111238e+00,	 7.8559257403518495e+02,	 3.3258267507873652e+03,	 5.3785924553334598e+02,	 2.9750577335107953e-01 
1.1786580000000000e+00,	 2.1269850000000001e-01,	 1.4866011406588006e-02,	 -1.5282073730722053e+02,	 -8.5379704318576639e+00,	 7.8681445082193716e+02,	 3.3650903319179592e+03,	 5.3827736454481760e+02,	 2.8434979120293458e-01 
1.1861230000000000e+00,	 2.1269320000000000e-01,	 1.5029340144847981e-02,	 -1.4524321892501996e+02,	 -9.2184549482933988e+00,	 7.8802725838839842e+02,	 3.4073056334535263e+03,	 5.3869205919380397e+02,	 2.7016449545127447e-01 
1.1935880000000001e+00,	 2.1268790000000001e-01,	 1.5204670109523677e-02,	 -1.3715691954269874e+02,	 -9.8265811227753446e+00,	 7.8932889158994658e+02,	 3.4527484483872790e+03,	 5.3913677107130604e+02,	 2.5505305539675904e-01 
1.2010529999999999e+00,	 2.1268270000000000e-01,	 1.5390870722917780e-02,	 -1.2862883761396657e+02,	 -1.0423883484712004e+01,	 7.9067532082146124e+02,	 3.5009935547162054e+03,	 5.3959640216903756e+02,	 2.3916118356555746e-01 
1.2085170000000001e+00,	 2.1267730000000001e-01,	 1.5584894757184966e-02,	 -1.1972695400834240e+02,	 -1.1028642166731753e+01,	 7.9200363036619103e+02,	 3.5510843116042452e+03,	 5.4004946441548316e+02,	 2.2263485174283856e-01 
1.2159819999999999e+00,	 2.1267200000000000e-01,	 1.5783456096264949e-02,	 -1.1051379426333266e+02,	 -1.1626954691624917e+01,	 7.9324121894522114e+02,	 3.6019469920724277e+03,	 5.4047124162218222e+02,	 2.0560527160555181e-01 
1.2234470000000000e+00,	 2.1266669999999999e-01,	 1.5984684490975523e-02,	 -1.0102737521713581e+02,	 -1.2212791669790128e+01,	 7.9434986024010266e+02,	 3.6529676772265543e+03,	 5.4084879356419515e+02,	 1.8815402138176543e-01 
1.2309120000000000e+00,	 2.1266130000000000e-01,	 1.6188492172555021e-02,	 -9.1286125730843921e+01,	 -1.2803274387502206e+01,	 7.9535288213596061e+02,	 3.7042150869724683e+03,	 5.4119014947656945e+02,	 1.7032758367261652e-01 
1.2383770000000001e+00,	 2.1265590000000001e-01,	 1.6397471553210998e-02,	 -8.1290201902494317e+01,	 -1.3443352559541486e+01,	 7.9628504873015913e+02,	 3.7564307325195564e+03,	 5.4150719846313507e+02,	 1.5215734918747090e-01 
1.2458410000000000e+00,	 2.1265049999999999e-01,	 1.6613322223086646e-02,	 -7.1064683611359783e+01,	 -1.4171283602740967e+01,	 7.9718765570316509e+02,	 3.8101931427070699e+03,	 5.4181401682238140e+02,	 1.3374309653229907e-01 
1.2533060000000000e+00,	 2.1264510000000000e-01,	 1.6835160279132941e-02,	 -6.0646317616621616e+01,	 -1.4971327092775802e+01,	 7.9807389454355121e+02,	 3.8653631134358179e+03,	 5.4211510229628345e+02,	 1.1522815502782888e-01 
1.2607710000000001e+00,	 2.1263969999999999e-01,	 1.7060292399719398e-02,	 -5.0127430708265010e+01,	 -1.5765322480152509e+01,	 7.9888546085267149e+02,	 3.9210368624045714e+03,	 5.4239067236718608e+02,	 9.6882414555288912e-02 
1.2682350000000000e+00,	 2.1263430000000000e-01,	 1.7285432023219974e-02,	 -3.9585294750331300e+01,	 -1.6462036323211414e+01,	 7.9954367882964038e+02,	 3.9760548795664618e+03,	 5.4261406971364329e+02,	 7.9009810055336652e-02 
1.2757000000000001e+00,	 2.1262880000000001e-01,	 1.7508562102792259e-02,	 -2.9077028053344790e+01,	 -1.6997323813261580e+01,	 8.0000103617412333e+02,	 4.0296837863344831e+03,	 5.4276924138043012e+02,	 6.2053251883510477e-02 
1.2831649999999999e+00,	 2.1262339999999999e-01,	 1.7729051197022755e-02,	 -1.8601335664580006e+01,	 -1.7376029033852660e+01,	 8.0034877310305421e+02,	 4.0822041054745068e+03,	 5.4288719147987229e+02,	 4.6887436019902376e-02 
1.2906290000000000e+00,	 2.1261790000000000e-01,	 1.7948403850046597e-02,	 -8.1415125305029399e+00,	 -1.7629588733971236e+01,	 8.0060375398813358e+02,	 4.1340277971248461e+03,	 5.4297366305189951e+02,	 3.5763647014493527e-02 
1.2980940000000001e+00,	 2.1261240000000001e-01,	 1.8167067871931276e-02,	 2.3118899802537456e+00,	 -1.7788960464104349e+01,	 8.0079509454416905e+02,	 4.1853923896282804e+03,	 5.4303854325970940e+02,	 3.3033678060598655e-02 
1.3055589999999999e+00,	 2.1260699999999999e-01,	 1.8383818144253092e-02,	 1.2744948634910108e+01,	 -1.7851233464007173e+01,	 8.0089499426222505e+02,	 4.2358564324947483e+03,	 5.4307241441222288e+02,	 4.0388716209331647e-02 
1.3130230000000001e+00,	 2.1260150000000000e-01,	 1.8596253494416213e-02,	 2.3132893179789463e+01,	 -1.7842078088995642e+01,	 8.0090195204333179e+02,	 4.2848413583447491e+03,	 5.4307477337988098e+02,	 5.3794097639441214e-02 
1.3204880000000001e+00,	 2.1259600000000001e-01,	 1.8803096338620696e-02,	 3.3455494231619433e+01,	 -1.7763343068030562e+01,	 8.0086248853588199e+02,	 4.3322874133114783e+03,	 5.4306139352775199e+02,	 6.9750565124122754e-02 
1.3279529999999999e+00,	 2.1259049999999999e-01,	 1.9004528241510686e-02,	 4.3702869080759427e+01,	 -1.7624637600506016e+01,	 8.0071135781068620e+02,	 4.3778715985143117e+03,	 5.4301015056420931e+02,	 8.6780900187905713e-02 
1.3354170000000001e+00,	 2.1258500000000000e-01,	 1.9200467593852074e-02,	 5.3853555478912078e+01,	 -1.7467476532508613e+01,	 8.0048434722028696e+02,	 4.4217540968098310e+03,	 5.4293317039404803e+02,	 1.0427716067174742e-01 
1.3428819999999999e+00,	 2.1257940000000000e-01,	 1.9391588399946119e-02,	 6.3893967954775000e+01,	 -1.7306913536951654e+01,	 8.0018166640130380e+02,	 4.4640794821932559e+03,	 5.4283051317476998e+02,	 1.2194678880925626e-01 
1.3503460000000000e+00,	 2.1257390000000001e-01,	 1.9577668637985872e-02,	 7.3793453867551705e+01,	 -1.7148378808331607e+01,	 7.9977382865201162e+02,	 4.5046193647294867e+03,	 5.4269216022292710e+02,	 1.3959987303057492e-01 
1.3578110000000001e+00,	 2.1256839999999999e-01,	 1.9757620245641882e-02,	 8.3522990754679299e+01,	 -1.6968993634728413e+01,	 7.9927948868041210e+02,	 4.5432144748505871e+03,	 5.4252441536471690e+02,	 1.5709766431187569e-01 
1.3652750000000000e+00,	 2.1256280000000000e-01,	 1.9930340769966654e-02,	 9.3056136169919711e+01,	 -1.6744630415057813e+01,	 7.9873101560097575e+02,	 4.5797862693870438e+03,	 5.4233824075019015e+02,	 1.7433891240689992e-01 
1.3727400000000001e+00,	 2.1255730000000000e-01,	 2.0095430185036435e-02,	 1.0238570650951519e+02,	 -1.6460247077248539e+01,	 7.9812396832140428e+02,	 4.6142125737883944e+03,	 5.4213210907071789e+02,	 1.9128252446089891e-01 