TITLE = "Final State"
VARIABLES = "X", "Y", "rho", "u", "v", "T", "p", "c", "M"
ZONE I=51, J=48, DATAPACKING=POINT
1.9022239999999999e+00,	 4.6926380000000001e-01,	 2.4054596531940923e-02,	 6.6704791143473312e+02,	 1.0933822078885626e+01,	 5.8603591962131395e+02,	 4.0555732531356393e+03,	 4.6454957969198034e+02,	 1.4360954022662464e+00 
1.9096919999999999e+00,	 4.6926079999999998e-01,	 2.4006991249727848e-02,	 6.6772393677498530e+02,	 1.1454004434003121e+01,	 5.8562091074196348e+02,	 4.0446807427839676e+03,	 4.6438506217848413e+02,	 1.4380784908981528e+00 
1.9171600000000000e+00,	 4.6925770000000000e-01,	 2.3945294328796309e-02,	 6.6862495015467880e+02,	 1.1993703841425528e+01,	 5.8507475762554213e+02,	 4.0305236933489073e+03,	 4.6416846770162556e+02,	 1.4407107736812086e+00 
1.9246280000000000e+00,	 4.6925470000000002e-01,	 2.3880868767697253e-02,	 6.6950799110233675e+02,	 1.2510268733097954e+01,	 5.8450193618583216e+02,	 4.0157439490357251e+03,	 4.6394118840300700e+02,	 1.4433399741355144e+00 
1.9320960000000000e+00,	 4.6925159999999999e-01,	 2.3813472964233036e-02,	 6.7037118529799341e+02,	 1.3015162835205571e+01,	 5.8390104634041745e+02,	 4.0002941642802994e+03,	 4.6370265263690760e+02,	 1.4459643768799426e+00 
1.9395640000000001e+00,	 4.6924860000000002e-01,	 2.3743955647655142e-02,	 6.7122122554964790e+02,	 1.3515795885708858e+01,	 5.8328080785066527e+02,	 3.9843794964732433e+03,	 4.6345630725740352e+02,	 1.4485880958732453e+00 
1.9470320000000001e+00,	 4.6924559999999998e-01,	 2.3673341645253559e-02,	 6.7206897138861621e+02,	 1.4017942242980300e+01,	 5.8265124165788507e+02,	 3.9682422751151007e+03,	 4.6320612313172359e+02,	 1.4512224996334853e+00 
1.9544990000000000e+00,	 4.6924250000000001e-01,	 2.3602265188877238e-02,	 6.7292389090808297e+02,	 1.4525704941626239e+01,	 5.8201787290832476e+02,	 3.9520273780241878e+03,	 4.6295429147424898e+02,	 1.4538814320399895e+00 
1.9619670000000000e+00,	 4.6923949999999998e-01,	 2.3530781994418257e-02,	 6.7378501213534946e+02,	 1.5038973111779455e+01,	 5.8138002745481936e+02,	 3.9357400465325140e+03,	 4.6270054132960632e+02,	 1.4565637318319520e+00 
1.9694350000000000e+00,	 4.6923640000000000e-01,	 2.3458562861841732e-02,	 6.7464576854509050e+02,	 1.5555957594804971e+01,	 5.8073309798374180e+02,	 3.9192946856623412e+03,	 4.6244303512050715e+02,	 1.4592610069039464e+00 
1.9769030000000001e+00,	 4.6923340000000002e-01,	 2.3385506375194036e-02,	 6.7550305626936324e+02,	 1.6074023882723832e+01,	 5.8007475641684937e+02,	 3.9026596848282416e+03,	 4.6218083910900225e+02,	 1.4619694669872119e+00 
1.9843710000000001e+00,	 4.6923029999999999e-01,	 2.3312022901596785e-02,	 6.7636475134379714e+02,	 1.6593579838431495e+01,	 5.7940826813170600e+02,	 3.8859265438590819e+03,	 4.6191524692113865e+02,	 1.4647021815107375e+00 
1.9918389999999999e+00,	 4.6922720000000001e-01,	 2.3238769413740850e-02,	 6.7724144610064627e+02,	 1.7117173041919536e+01,	 5.7873982680929907e+02,	 3.8692468183307869e+03,	 4.6164872298716074e+02,	 1.4674744990843140e+00 
1.9993069999999999e+00,	 4.6922419999999998e-01,	 2.3166145669366929e-02,	 6.7813968728661462e+02,	 1.7649630688158222e+01,	 5.7807380005338234e+02,	 3.8527160904367247e+03,	 4.6138300867220323e+02,	 1.4702954271752908e+00 
2.0067740000000001e+00,	 4.6922110000000000e-01,	 2.3094328111831958e-02,	 6.7906054378501256e+02,	 1.8192291041900958e+01,	 5.7741289957267054e+02,	 3.8363811739215625e+03,	 4.6111918815596420e+02,	 1.4731640034340867e+00 
2.0142419999999999e+00,	 4.6921810000000003e-01,	 2.3023491794489599e-02,	 6.8000785272034318e+02,	 1.8741715038975713e+01,	 5.7676015091403360e+02,	 3.8202903779848480e+03,	 4.6085847346946684e+02,	 1.4760845537504539e+00 
2.0217100000000001e+00,	 4.6921499999999999e-01,	 2.2953719572723616e-02,	 6.8098385248746831e+02,	 1.9288462920424649e+01,	 5.7611810442015621e+02,	 3.8044732258068457e+03,	 4.6060188937728384e+02,	 1.4790581205963707e+00 
2.0291779999999999e+00,	 4.6921190000000002e-01,	 2.2884495452443622e-02,	 6.8198246236544196e+02,	 1.9824356039591031e+01,	 5.7548412460712927e+02,	 3.7888257020525539e+03,	 4.6034838868294122e+02,	 1.4820743432716132e+00 
2.0366460000000002e+00,	 4.6920889999999998e-01,	 2.2814439677950542e-02,	 6.8298316465516973e+02,	 2.0341296645791999e+01,	 5.7484954373517530e+02,	 3.7730619455576152e+03,	 4.6009450778023722e+02,	 1.4850992535476135e+00 
2.0441140000000000e+00,	 4.6920580000000001e-01,	 2.2742489903221204e-02,	 6.8396583718926217e+02,	 2.0835393347020531e+01,	 5.7420169244468434e+02,	 3.7569240571329437e+03,	 4.5983517309631941e+02,	 1.4881052037789266e+00 
2.0515819999999998e+00,	 4.6920269999999997e-01,	 2.2669050594293354e-02,	 6.8492746443681563e+02,	 2.1311824741719988e+01,	 5.7353448591661277e+02,	 3.7404409747421705e+03,	 4.5956793755005748e+02,	 1.4910938986756610e+00 
2.0590500000000000e+00,	 4.6919970000000000e-01,	 2.2595361968160779e-02,	 6.8588762995458228e+02,	 2.1777994885299869e+01,	 5.7285597054661412e+02,	 3.7238714822866559e+03,	 4.5929601302186234e+02,	 1.4940980673475526e+00 
2.0665170000000002e+00,	 4.6919660000000002e-01,	 2.2522964618326608e-02,	 6.8687607749683139e+02,	 2.2243414824560830e+01,	 5.7218369088315819e+02,	 3.7075837232602212e+03,	 4.5902642866769412e+02,	 1.4971602927879819e+00 
2.0739850000000000e+00,	 4.6919349999999999e-01,	 2.2452864785996753e-02,	 6.8791583963743642e+02,	 2.2717967066791072e+01,	 5.7153267254081356e+02,	 3.6918390654300374e+03,	 4.5876521912979086e+02,	 1.5003117752978923e+00 
2.0814530000000002e+00,	 4.6919040000000001e-01,	 2.2384706428837279e-02,	 6.8900195913543894e+02,	 2.3205803358960480e+01,	 5.7090423151578284e+02,	 3.6765849282652002e+03,	 4.5851292718260834e+02,	 1.5035402425820203e+00 
2.0889210000000000e+00,	 4.6918739999999998e-01,	 2.2316733437039563e-02,	 6.9010135659896264e+02,	 2.3707444901599267e+01,	 5.7028276785261221e+02,	 3.6614306461277311e+03,	 4.5826329975307402e+02,	 1.5067941390318242e+00 
2.0963889999999998e+00,	 4.6918430000000000e-01,	 2.2246751109448126e-02,	 6.9116820738838896e+02,	 2.4219788408884085e+01,	 5.6964477331667979e+02,	 3.6458655626433219e+03,	 4.5800689072722366e+02,	 1.5100044210536143e+00 
2.1038570000000001e+00,	 4.6918120000000002e-01,	 2.2173328365733103e-02,	 6.9217244855153263e+02,	 2.4741108686198729e+01,	 5.6897252040849730e+02,	 3.6295444365018775e+03,	 4.5773655790620739e+02,	 1.5131290482823085e+00 
2.1113249999999999e+00,	 4.6917809999999999e-01,	 2.2096505505280001e-02,	 6.9311302589578247e+02,	 2.5269901151798514e+01,	 5.6826419851734136e+02,	 3.6124665131184806e+03,	 4.5745154783666572e+02,	 1.5161682767771933e+00 
2.1187930000000001e+00,	 4.6917500000000001e-01,	 2.2017419299120017e-02,	 6.9401432638441179e+02,	 2.5805942652622555e+01,	 5.6753158343897826e+02,	 3.5948964562351134e+03,	 4.5715657589603177e+02,	 1.5191599028567919e+00 
2.1262599999999998e+00,	 4.6917189999999998e-01,	 2.1937408089582611e-02,	 6.9490349941005491e+02,	 2.6346378315182854e+01,	 5.6678967849655533e+02,	 3.5771502714213602e+03,	 4.5685766950091170e+02,	 1.5221431336649838e+00 
2.1337280000000001e+00,	 4.6916890000000000e-01,	 2.1857266116359790e-02,	 6.9579703608226032e+02,	 2.6888899081086350e+01,	 5.6604699425239869e+02,	 3.5594120469481086e+03,	 4.5655825313167117e+02,	 1.5251425087532711e+00 
2.1411959999999999e+00,	 4.6916580000000002e-01,	 2.1777153808926787e-02,	 6.9669541511241994e+02,	 2.7431345714300640e+01,	 5.6530401524262459e+02,	 3.5417110475311956e+03,	 4.5625852131960801e+02,	 1.5281582866134342e+00 
2.1486640000000001e+00,	 4.6916269999999999e-01,	 2.1696765998324472e-02,	 6.9759135970013540e+02,	 2.7976117610840397e+01,	 5.6455584997744654e+02,	 3.5239671760978354e+03,	 4.5595649817152599e+02,	 1.5311814010859286e+00 
2.1561319999999999e+00,	 4.6915960000000001e-01,	 2.1615692899422747e-02,	 6.9847423091710777e+02,	 2.8525934801809164e+01,	 5.6379718115827029e+02,	 3.5060814356507135e+03,	 4.5565003046695273e+02,	 1.5341960849753886e+00 
2.1636000000000002e+00,	 4.6915649999999998e-01,	 2.1533765460652790e-02,	 6.9934025269626034e+02,	 2.9084194538348548e+01,	 5.6302604749048567e+02,	 3.4880154765299867e+03,	 4.5533831614946979e+02,	 1.5371971652848080e+00 
2.1710680000000000e+00,	 4.6915340000000000e-01,	 2.1451413974444569e-02,	 7.0019631900688341e+02,	 2.9650572599128097e+01,	 5.6224733169496221e+02,	 3.4698704833922052e+03,	 4.5502332021876282e+02,	 1.5401932153995261e+00 
2.1785350000000001e+00,	 4.6915030000000002e-01,	 2.1369636797968900e-02,	 7.0106270706328121e+02,	 3.0223837429456278e+01,	 5.6147255702455016e+02,	 3.4518793872807237e+03,	 4.5470970194375951e+02,	 1.5432129521726490e+00 
2.1860029999999999e+00,	 4.6914719999999999e-01,	 2.1289532600919332e-02,	 7.0196042252529389e+02,	 3.0801175731666845e+01,	 5.6071511992018134e+02,	 3.4343008039266183e+03,	 4.5440289243960564e+02,	 1.5462838561552099e+00 
2.1934710000000002e+00,	 4.6914410000000001e-01,	 2.1211541815804168e-02,	 7.0289868830426713e+02,	 3.1381998130971148e+01,	 5.5998184141189154e+02,	 3.4172450199720006e+03,	 4.5410567120201722e+02,	 1.5494166513853296e+00 
2.2009390000000000e+00,	 4.6914099999999997e-01,	 2.1134935268461736e-02,	 7.0386339750468278e+02,	 3.1965057938885408e+01,	 5.5926754557826371e+02,	 3.4005602766790903e+03,	 4.5381595708203810e+02,	 1.5525872081270309e+00 
2.2084069999999998e+00,	 4.6913790000000000e-01,	 2.1058424301849163e-02,	 7.0482721771425508e+02,	 3.2552181513982205e+01,	 5.5855747746501856e+02,	 3.3839479905669727e+03,	 4.5352777427028423e+02,	 1.5557559260663349e+00 
2.2158750000000000e+00,	 4.6913480000000002e-01,	 2.0980975738803025e-02,	 7.0576471743691900e+02,	 3.3142826046483236e+01,	 5.5783781473779459e+02,	 3.3671585761843921e+03,	 4.5323551049471513e+02,	 1.5588859848189345e+00 
2.2233429999999998e+00,	 4.6913169999999998e-01,	 2.0902066214524902e-02,	 7.0666605405309747e+02,	 3.3735964707749197e+01,	 5.5710243372232435e+02,	 3.3500725501575735e+03,	 4.5293666852063177e+02,	 1.5619642124284356e+00 
2.2308110000000001e+00,	 4.6912860000000001e-01,	 2.0821924469309437e-02,	 7.0753561287387595e+02,	 3.4328536566499530e+01,	 5.5635360632421975e+02,	 3.3327421315684728e+03,	 4.5263215949576897e+02,	 1.5649968574008470e+00 
2.2382780000000002e+00,	 4.6912549999999997e-01,	 2.0741326463323259e-02,	 7.0839032381996537e+02,	 3.4919218243002867e+01,	 5.5559972518414861e+02,	 3.3153431564106545e+03,	 4.5232538830002073e+02,	 1.5680093792132739e+00 
2.2457460000000000e+00,	 4.6912239999999999e-01,	 2.0661385244534120e-02,	 7.0925109352814229e+02,	 3.5505283805989251e+01,	 5.5485307927917381e+02,	 3.2981269897855786e+03,	 4.5202135607687319e+02,	 1.5710302832165752e+00 
2.2532139999999998e+00,	 4.6911930000000002e-01,	 2.0583201201725413e-02,	 7.1013933537941966e+02,	 3.6083308252122947e+01,	 5.5412589319996482e+02,	 3.2813405173404308e+03,	 4.5172505114530077e+02,	 1.5740890786433643e+00 
2.2606820000000001e+00,	 4.6911619999999998e-01,	 2.0507540858620520e-02,	 7.1106782446546936e+02,	 3.6645280526767635e+01,	 5.5342672994793224e+02,	 3.2651538857226647e+03,	 4.5143998123039580e+02,	 1.5772007254668383e+00 
2.2681499999999999e+00,	 4.6911310000000001e-01,	 2.0434694294550255e-02,	 7.1203799800191018e+02,	 3.7184490230427926e+01,	 5.5275951149380978e+02,	 3.2496329287279900e+03,	 4.5116776820718491e+02,	 1.5803617255612086e+00 
2.2756180000000001e+00,	 4.6910990000000002e-01,	 2.0376406154960565e-02,	 7.1280109370626428e+02,	 3.7651004928397093e+01,	 5.5223744457705470e+02,	 3.2373032023620804e+03,	 4.5095465979172019e+02,	 1.5828526684217123e+00 
1.9022180000000000e+00,	 4.7501729999999998e-01,	 2.4057214091318870e-02,	 6.6824419015128865e+02,	 1.1618504313048199e+01,	 5.8518327344836371e+02,	 4.0501133187784712e+03,	 4.6421151116504956e+02,	 1.4397428104945051e+00 
1.9096860000000000e+00,	 4.7501440000000000e-01,	 2.4009839071319150e-02,	 6.6890828177805724e+02,	 1.2132774238533468e+01,	 5.8477007168170326e+02,	 4.0392833940230576e+03,	 4.6404759081967165e+02,	 1.4417019270108953e+00 
1.9171540000000000e+00,	 4.7501149999999998e-01,	 2.3948023237349472e-02,	 6.6979636471385322e+02,	 1.2675401774785842e+01,	 5.8422138424857906e+02,	 4.0251035521014369e+03,	 4.6382983272262362e+02,	 1.4443147961317593e+00 
1.9246220000000001e+00,	 4.7500860000000000e-01,	 2.3882859790009609e-02,	 6.7067095613628499e+02,	 1.3199549897723239e+01,	 5.8364077856641109e+02,	 4.0101617902626454e+03,	 4.6359929581841686e+02,	 1.4469410124605007e+00 
1.9320900000000001e+00,	 4.7500569999999998e-01,	 2.3814988598376746e-02,	 6.7152736504451218e+02,	 1.3711035584338468e+01,	 5.8303552714015711e+02,	 3.9946187355177681e+03,	 4.6335885090006889e+02,	 1.4495618740670368e+00 
1.9395579999999999e+00,	 4.7500280000000000e-01,	 2.3745448865292649e-02,	 6.7237275068737790e+02,	 1.4217443783304596e+01,	 5.8241627868708451e+02,	 3.9787241146682031e+03,	 4.6311271625837759e+02,	 1.4521800535653502e+00 
1.9470259999999999e+00,	 4.7499989999999997e-01,	 2.3675032706296617e-02,	 6.7321885154606639e+02,	 1.4726268835169487e+01,	 5.8179052554189502e+02,	 3.9626632714484099e+03,	 4.6286386322095950e+02,	 1.4548119869609222e+00 
1.9544940000000000e+00,	 4.7499700000000000e-01,	 2.3604160807366603e-02,	 6.7407373078446915e+02,	 1.5241364455456747e+01,	 5.8116144845128701e+02,	 3.9465290109748357e+03,	 4.6261355336455222e+02,	 1.4574713900832597e+00 
1.9619610000000001e+00,	 4.7499400000000003e-01,	 2.3532801319873141e-02,	 6.7493534730314684e+02,	 1.5762109245766244e+01,	 5.8052721053981736e+02,	 3.9303040287555559e+03,	 4.6236105283371990e+02,	 1.4601562315078886e+00 
1.9694290000000001e+00,	 4.7499110000000000e-01,	 2.3460629983689137e-02,	 6.7579662441188941e+02,	 1.6286659926869810e+01,	 5.7988292488523734e+02,	 3.9139018291268953e+03,	 4.6210441086544671e+02,	 1.4628573842073014e+00 
1.9768969999999999e+00,	 4.7498820000000003e-01,	 2.3387588805462090e-02,	 6.7665507140449506e+02,	 1.6813786705329246e+01,	 5.7922652128594473e+02,	 3.8972998961175754e+03,	 4.6184279522498173e+02,	 1.4655721468470388e+00 
1.9843649999999999e+00,	 4.7498530000000000e-01,	 2.3314168651452725e-02,	 6.7751898597078412e+02,	 1.7345073576341708e+01,	 5.7856189133397186e+02,	 3.8806072920221463e+03,	 4.6157774981755909e+02,	 1.4683137875127537e+00 
1.9918330000000000e+00,	 4.7498240000000003e-01,	 2.3241067350093497e-02,	 6.7839967036096687e+02,	 1.7883646785365183e+01,	 5.7789567905732360e+02,	 3.8639851968745879e+03,	 4.6131192057524157e+02,	 1.4710986627811025e+00 
1.9993010000000000e+00,	 4.7497940000000000e-01,	 2.3168644491320108e-02,	 6.7930312663720440e+02,	 1.8433526983233843e+01,	 5.7723182733330702e+02,	 3.8475195234692915e+03,	 4.6104688077331144e+02,	 1.4739351126023299e+00 
2.0067689999999998e+00,	 4.7497650000000002e-01,	 2.3096904508953416e-02,	 6.8022877373806205e+02,	 1.8995490777516647e+01,	 5.7657134661955490e+02,	 3.8312171853161290e+03,	 4.6078303554185925e+02,	 1.4768207497465651e+00 
2.0142370000000001e+00,	 4.7497360000000000e-01,	 2.3025822198502997e-02,	 6.8117709202774734e+02,	 1.9564882590641648e+01,	 5.7591537119066561e+02,	 3.8150809222322582e+03,	 4.6052084043592430e+02,	 1.4797549799847673e+00 
2.0217049999999999e+00,	 4.7497070000000002e-01,	 2.2955415340191437e-02,	 6.8214913864811206e+02,	 2.0131300398842598e+01,	 5.7526569554148500e+02,	 3.7991248791559537e+03,	 4.6026101614965404e+02,	 1.4827371932788718e+00 
2.0291730000000001e+00,	 4.7496769999999999e-01,	 2.2885259321550139e-02,	 6.8313896303856552e+02,	 2.0684169410532419e+01,	 5.7462005172357817e+02,	 3.7832631676583123e+03,	 4.6000265891681863e+02,	 1.4857566951532692e+00 
2.0366409999999999e+00,	 4.7496480000000002e-01,	 2.2814393647929060e-02,	 6.8412722948577346e+02,	 2.1215212341454318e+01,	 5.7396869143036247e+02,	 3.7672728140122222e+03,	 4.5974186709037917e+02,	 1.4887834846518242e+00 
2.0441080000000000e+00,	 4.7496189999999999e-01,	 2.2742208993058264e-02,	 6.8509898225572249e+02,	 2.1724169995124253e+01,	 5.7330316889210985e+02,	 3.7509988069115752e+03,	 4.5947525209571728e+02,	 1.4917959656230559e+00 
2.0515759999999998e+00,	 4.7495890000000002e-01,	 2.2668779916627427e-02,	 6.8605524102953973e+02,	 2.2217156175111700e+01,	 5.7262466185478024e+02,	 3.7344627501241885e+03,	 4.5920327602345503e+02,	 1.4947952723262323e+00 
2.0590440000000001e+00,	 4.7495599999999999e-01,	 2.2595007071059096e-02,	 6.8701543527209151e+02,	 2.2703100927499250e+01,	 5.7194394733640593e+02,	 3.7178844452131866e+03,	 4.5893025312498276e+02,	 1.4978102911884712e+00 
2.0665119999999999e+00,	 4.7495300000000001e-01,	 2.2522422633948679e-02,	 6.8800827866259249e+02,	 2.3190947548310710e+01,	 5.7127654170756750e+02,	 3.7016165842323308e+03,	 4.5866241040930714e+02,	 1.5008838853414934e+00 
2.0739800000000002e+00,	 4.7495009999999999e-01,	 2.2452098415642413e-02,	 6.8905392877064821e+02,	 2.3686850635947238e+01,	 5.7063250761683332e+02,	 3.6858985997790460e+03,	 4.5840379876703685e+02,	 1.5040471716274439e+00 
2.0814480000000000e+00,	 4.7494720000000001e-01,	 2.2383783339786224e-02,	 6.9014528633319117e+02,	 2.4191210757304702e+01,	 5.7000811942980613e+02,	 3.6706626514367563e+03,	 4.5815293656399842e+02,	 1.5072895542129914e+00 
2.0889160000000002e+00,	 4.7494419999999998e-01,	 2.2315811585242384e-02,	 6.9124816635464595e+02,	 2.4701707279856354e+01,	 5.6938537440033667e+02,	 3.6555180343117959e+03,	 4.5790259764406488e+02,	 1.5105600755174291e+00 
2.0963840000000000e+00,	 4.7494130000000001e-01,	 2.2245990448888919e-02,	 6.9231776754745397e+02,	 2.5215675286142691e+01,	 5.6874145961025727e+02,	 3.6399596727831281e+03,	 4.5764360463458314e+02,	 1.5137911082248261e+00 
2.1038519999999998e+00,	 4.7493829999999998e-01,	 2.2172821490469848e-02,	 6.9332506263114715e+02,	 2.5733952584824376e+01,	 5.6806136109896170e+02,	 3.6236492038365323e+03,	 4.5736989869113700e+02,	 1.5169395279581861e+00 
2.1113200000000001e+00,	 4.7493540000000001e-01,	 2.2096242330934955e-02,	 6.9426989895975953e+02,	 2.6259687440147776e+01,	 5.6734528728464181e+02,	 3.6065820209058029e+03,	 4.5708153733890515e+02,	 1.5200052524329346e+00 
2.1187879999999999e+00,	 4.7493239999999998e-01,	 2.2017320438220623e-02,	 6.9517521502273598e+02,	 2.6796101744758108e+01,	 5.6660522072781487e+02,	 3.5890125125099880e+03,	 4.5678332287198555e+02,	 1.5230229025834687e+00 
2.1262550000000000e+00,	 4.7492950000000000e-01,	 2.1937371670783905e-02,	 6.9606686917027048e+02,	 2.7342073670776262e+01,	 5.6585539065278635e+02,	 3.5712478203381797e+03,	 4.5648097544131195e+02,	 1.5260300190416907e+00 
2.1337229999999998e+00,	 4.7492649999999997e-01,	 2.1857225750057122e-02,	 6.9696072713415947e+02,	 2.7894003210902405e+01,	 5.6510460379839219e+02,	 3.5534795524298138e+03,	 4.5617804144219843e+02,	 1.5290492573959129e+00 
2.1411910000000001e+00,	 4.7492360000000000e-01,	 2.1777093408920999e-02,	 6.9785898092617458e+02,	 2.8447716362674278e+01,	 5.6435478601605200e+02,	 3.5357541831423232e+03,	 4.5587529753943886e+02,	 1.5320824999820206e+00 
2.1486589999999999e+00,	 4.7492060000000003e-01,	 2.1696718698015115e-02,	 6.9875572931970339e+02,	 2.9002981433117093e+01,	 5.6360272115806890e+02,	 3.5180100603673222e+03,	 4.5557144427534678e+02,	 1.5351211907741058e+00 
2.1561270000000001e+00,	 4.7491770000000000e-01,	 2.1615698059914958e-02,	 6.9964163338013623e+02,	 2.9562081670279611e+01,	 5.6284357261233868e+02,	 3.5001520727320217e+03,	 4.5526452334953001e+02,	 1.5381517005845733e+00 
2.1635949999999999e+00,	 4.7491470000000002e-01,	 2.1533835768880433e-02,	 7.0051237918321510e+02,	 3.0129095199658686e+01,	 5.6207498698003724e+02,	 3.4821349091351244e+03,	 4.5495357611286772e+02,	 1.5411682511443945e+00 
2.1710630000000002e+00,	 4.7491180000000000e-01,	 2.1451504509769806e-02,	 7.0137420140112533e+02,	 3.0706315258469619e+01,	 5.6130099675140605e+02,	 3.4640448626827510e+03,	 4.5464022741674978e+02,	 1.5441793353764595e+00 
2.1785310000000000e+00,	 4.7490880000000002e-01,	 2.1369666675313908e-02,	 7.0224566113482001e+02,	 3.1294254630919831e+01,	 5.6053216342215592e+02,	 3.4461027557405209e+03,	 4.5432875252284333e+02,	 1.5472113445162625e+00 
2.1859989999999998e+00,	 4.7490589999999999e-01,	 2.1289424757929845e-02,	 7.0314681545465010e+02,	 3.1890193363720218e+01,	 5.5978033810951024e+02,	 3.4285580299610133e+03,	 4.5402396138685066e+02,	 1.5502917694062326e+00 
2.1934670000000001e+00,	 4.7490290000000002e-01,	 2.1211285770005625e-02,	 7.0408564092437746e+02,	 3.2489980560547409e+01,	 5.5905065763414143e+02,	 3.4115213632362938e+03,	 4.5372795201606920e+02,	 1.5534305591160613e+00 
2.2009349999999999e+00,	 4.7489989999999999e-01,	 2.1134816235842777e-02,	 7.0504914901183702e+02,	 3.3088928113772383e+01,	 5.5833757592921620e+02,	 3.3948865858165332e+03,	 4.5343848957175032e+02,	 1.5566062270081253e+00 
2.2084020000000000e+00,	 4.7489700000000001e-01,	 2.1058733492393039e-02,	 7.0601136639007575e+02,	 3.3685420098067468e+01,	 5.5762807022801428e+02,	 3.3783668996156380e+03,	 4.5315029522693527e+02,	 1.5597794402919090e+00 
2.2158699999999998e+00,	 4.7489399999999998e-01,	 2.0981715181146717e-02,	 7.0694766061778432e+02,	 3.4278745062777702e+01,	 5.5690970878356757e+02,	 3.3616749191512972e+03,	 4.5285831691307772e+02,	 1.5629131819870001e+00 
2.2233380000000000e+00,	 4.7489100000000001e-01,	 2.0903198103519836e-02,	 7.0784770015672257e+02,	 3.4869867827367258e+01,	 5.5617652379046774e+02,	 3.3446858070481312e+03,	 4.5256011931503997e+02,	 1.5659931710668702e+00 
2.2308059999999998e+00,	 4.7488809999999998e-01,	 2.0823403890472398e-02,	 7.0871631676632728e+02,	 3.5459906551907054e+01,	 5.5543037855565251e+02,	 3.3274480939856439e+03,	 4.5225644872553346e+02,	 1.5690276271551336e+00 
2.2382740000000001e+00,	 4.7488510000000000e-01,	 2.0743104437228752e-02,	 7.0957019660664514e+02,	 3.6050828002362522e+01,	 5.5467930215204524e+02,	 3.3101345851049409e+03,	 4.5195056515311620e+02,	 1.5720423219135879e+00 
2.2457419999999999e+00,	 4.7488209999999997e-01,	 2.0663348279943337e-02,	 7.1042954129119266e+02,	 3.6642769924756429e+01,	 5.5393453281178529e+02,	 3.2929798525174701e+03,	 4.5164704563569973e+02,	 1.5750659878381923e+00 
2.2532100000000002e+00,	 4.7487920000000000e-01,	 2.0585134584667285e-02,	 7.1131352046205416e+02,	 3.7232081915998130e+01,	 5.5320691888569274e+02,	 3.2762063771797530e+03,	 4.5135032043915015e+02,	 1.5781250967541005e+00 
2.2606780000000000e+00,	 4.7487620000000003e-01,	 2.0509119325900486e-02,	 7.1223340386958603e+02,	 3.7809992926443087e+01,	 5.5250356069274346e+02,	 3.2599581935426445e+03,	 4.5106330132780499e+02,	 1.5812332684978281e+00 
2.2681460000000002e+00,	 4.7487320000000000e-01,	 2.0435516860245282e-02,	 7.1319099208193109e+02,	 3.8365412549623429e+01,	 5.5182653851138116e+02,	 3.2442786364349240e+03,	 4.5078685653156788e+02,	 1.5843899421952548e+00 
2.2756140000000000e+00,	 4.7487020000000002e-01,	 2.0376302026156697e-02,	 7.1394065412906741e+02,	 3.8841496008671328e+01,	 5.5129361292774365e+02,	 3.2317537968273805e+03,	 4.5056913061435205e+02,	 1.5868740190221688e+00 
1.9022120000000000e+00,	 4.8077140000000002e-01,	 2.4077252760584915e-02,	 6.7040116057194803e+02,	 1.2376148813854485e+01,	 5.8376412958560252e+02,	 4.0436566752373819e+03,	 4.6364828350618183e+02,	 1.4461724793615036e+00 
1.9096800000000000e+00,	 4.8076859999999999e-01,	 2.4029515762421190e-02,	 6.7104507410739961e+02,	 1.2880371371439706e+01,	 5.8335252107449060e+02,	 4.0327939755311468e+03,	 4.6348479690076016e+02,	 1.4480921128891222e+00 
1.9171480000000001e+00,	 4.8076580000000002e-01,	 2.3966414983104055e-02,	 6.7191230225495678e+02,	 1.3430711231636785e+01,	 5.8279987489984603e+02,	 4.0183934965740355e+03,	 4.6326520087212560e+02,	 1.4506734358435784e+00 
1.9246160000000001e+00,	 4.8076310000000000e-01,	 2.3900205626027019e-02,	 6.7276468616493162e+02,	 1.3966202798488482e+01,	 5.8221669309222079e+02,	 4.0032824079842571e+03,	 4.6303335846021736e+02,	 1.4532638380591214e+00 
1.9320839999999999e+00,	 4.8076029999999997e-01,	 2.3831984359235857e-02,	 6.7360297795800557e+02,	 1.4486923853603111e+01,	 5.8161268019447141e+02,	 3.9877140548203474e+03,	 4.6279311226095285e+02,	 1.4558530031836461e+00 
1.9395519999999999e+00,	 4.8075750000000000e-01,	 2.3762468884672091e-02,	 6.7443774597143420e+02,	 1.5002488968472814e+01,	 5.8099847069820794e+02,	 3.9718833743793898e+03,	 4.6254868240287311e+02,	 1.4584509954766454e+00 
1.9470200000000000e+00,	 4.8075469999999998e-01,	 2.3692176638083602e-02,	 6.7527886156650345e+02,	 1.5521012083642850e+01,	 5.8038069784951892e+02,	 3.9559232734100488e+03,	 4.6230270411621495e+02,	 1.4610712939804777e+00 
1.9544880000000000e+00,	 4.8075190000000001e-01,	 2.3621371628947285e-02,	 6.7613025778120948e+02,	 1.6046272541300503e+01,	 5.7976014704965701e+02,	 3.9398837545414667e+03,	 4.6205548790149129e+02,	 1.4637216912273039e+00 
1.9619560000000000e+00,	 4.8074919999999999e-01,	 2.3549949380899986e-02,	 6.7698792709913073e+02,	 1.6577019019571075e+01,	 5.7913367050861063e+02,	 3.9237265281551086e+03,	 4.6180577673598521e+02,	 1.4663975351259031e+00 
1.9694240000000001e+00,	 4.8074640000000002e-01,	 2.3477641052837849e-02,	 6.7784502927465485e+02,	 1.7110779619034933e+01,	 5.7849675333848108e+02,	 3.9073770545844800e+03,	 4.6155176547937134e+02,	 1.4690897284185040e+00 
1.9768920000000001e+00,	 4.8074359999999999e-01,	 2.3404480601986161e-02,	 6.7870118803006085e+02,	 1.7647794926706062e+01,	 5.7784817306584091e+02,	 3.8908338863629760e+03,	 4.6129295908152784e+02,	 1.4717991626856806e+00 
1.9843599999999999e+00,	 4.8074080000000002e-01,	 2.3331013032419426e-02,	 6.7956549816446682e+02,	 1.8191457298214861e+01,	 5.7719234572797563e+02,	 3.8742183778251892e+03,	 4.6103111312035520e+02,	 1.4745402664349148e+00 
1.9918279999999999e+00,	 4.8073800000000000e-01,	 2.3257937088519181e-02,	 6.8044954289530483e+02,	 1.8745754448547078e+01,	 5.7653586889494034e+02,	 3.8576912040179136e+03,	 4.6076885881835341e+02,	 1.4773301080933301e+00 
1.9992960000000000e+00,	 4.8073519999999997e-01,	 2.3185551611538683e-02,	 6.8135756637926988e+02,	 1.9313475704216579e+01,	 5.7588203430324199e+02,	 3.8413236519656398e+03,	 4.6050751160815213e+02,	 1.4801739821306974e+00 
2.0067640000000000e+00,	 4.8073240000000000e-01,	 2.3113685117668512e-02,	 6.8228578504803636e+02,	 1.9894259673163234e+01,	 5.7522995334320524e+02,	 3.8250808791309810e+03,	 4.6024671754279905e+02,	 1.4830649265054332e+00 
2.0142319999999998e+00,	 4.8072959999999998e-01,	 2.3042064640855422e-02,	 6.8322965110386110e+02,	 2.0482772665377730e+01,	 5.7457813646689874e+02,	 3.8089074883232756e+03,	 4.5998588132518319e+02,	 1.4859947661041555e+00 
2.0216989999999999e+00,	 4.8072680000000001e-01,	 2.2970575085628744e-02,	 6.8418806073750466e+02,	 2.1068166823527854e+01,	 5.7392710758859153e+02,	 3.7927877831175806e+03,	 4.5972521271565046e+02,	 1.4889597968991006e+00 
2.0291670000000002e+00,	 4.8072399999999998e-01,	 2.2898835123493159e-02,	 6.8515560050534225e+02,	 2.1637982083633432e+01,	 5.7327495128045518e+02,	 3.7766461310489749e+03,	 4.5946394441901862e+02,	 1.4919499115175148e+00 
2.0366350000000000e+00,	 4.8072120000000002e-01,	 2.2826416510894110e-02,	 6.8611943704371879e+02,	 2.2184695584271100e+01,	 5.7261501425549227e+02,	 3.7603685020433950e+03,	 4.5919940767115190e+02,	 1.4949453051663044e+00 
2.0441029999999998e+00,	 4.8071839999999999e-01,	 2.2753048407749308e-02,	 6.8707190652014822e+02,	 2.2711609431943515e+01,	 5.7194348473871844e+02,	 3.7438862519466775e+03,	 4.5893006752977038e+02,	 1.4979344919762343e+00 
2.0515710000000000e+00,	 4.8071560000000002e-01,	 2.2678787813131530e-02,	 6.8801696165926478e+02,	 2.3225873572369650e+01,	 5.7126335908507872e+02,	 3.7272295826417949e+03,	 4.5865711839410409e+02,	 1.5009226904401816e+00 
2.0590389999999998e+00,	 4.8071280000000000e-01,	 2.2604674638967839e-02,	 6.8897419428716046e+02,	 2.3737194457287270e+01,	 5.7058530656330424e+02,	 3.7106396556746486e+03,	 4.5838483946362049e+02,	 1.5039393144538664e+00 
2.0665070000000001e+00,	 4.8071000000000003e-01,	 2.2532086059756352e-02,	 6.8997015892249635e+02,	 2.4252891022410843e+01,	 5.6992295061120899e+02,	 3.6944303642074497e+03,	 4.5811870740067866e+02,	 1.5070248572622256e+00 
2.0739749999999999e+00,	 4.8070720000000000e-01,	 2.2461818267744123e-02,	 6.9102006372220205e+02,	 2.4774547935724542e+01,	 5.6928355180237998e+02,	 3.6787771699878167e+03,	 4.5786165268933507e+02,	 1.5102029779484585e+00 
2.0814430000000002e+00,	 4.8070439999999998e-01,	 2.2393386753237633e-02,	 6.9211345629457571e+02,	 2.5298461527434053e+01,	 5.6866129120582627e+02,	 3.6635606452984557e+03,	 4.5761134933656058e+02,	 1.5134582297538746e+00 
2.0889110000000000e+00,	 4.8070160000000001e-01,	 2.2325068550641987e-02,	 6.9321502862728107e+02,	 2.5819420796300967e+01,	 5.6803792865513981e+02,	 3.6483800618197838e+03,	 4.5736046537484867e+02,	 1.5167373403287545e+00 
2.0963790000000002e+00,	 4.8069879999999998e-01,	 2.2254786621338986e-02,	 6.9428246098843374e+02,	 2.6335427556814331e+01,	 5.6739185878270371e+02,	 3.6327580358755981e+03,	 4.5710029710970173e+02,	 1.5199766041893719e+00 
2.1038470000000000e+00,	 4.8069590000000001e-01,	 2.2181251750838814e-02,	 6.9528990336658194e+02,	 2.6850477321379337e+01,	 5.6671003814125208e+02,	 3.6164036076442662e+03,	 4.5682557154050960e+02,	 1.5231375059200023e+00 
2.1113149999999998e+00,	 4.8069309999999998e-01,	 2.2104509166770783e-02,	 6.9623892792180891e+02,	 2.7373033084416903e+01,	 5.6599358759299696e+02,	 3.5993354527900792e+03,	 4.5653671443741246e+02,	 1.5262229550587956e+00 
2.1187830000000001e+00,	 4.8069030000000001e-01,	 2.2025540534592828e-02,	 6.9714980474278002e+02,	 2.7910219281346304e+01,	 5.6525369105546974e+02,	 3.5817883516297234e+03,	 4.5623821246842056e+02,	 1.5292631159309267e+00 
2.1262509999999999e+00,	 4.8068749999999999e-01,	 2.1945467841897565e-02,	 6.9804479924936015e+02,	 2.8462958546515111e+01,	 5.6450293778387015e+02,	 3.5640270177574712e+03,	 4.5593513073391387e+02,	 1.5322900198509437e+00 