TITLE = "Final State"
VARIABLES = "X", "Y", "rho", "u", "v", "T", "p", "c", "M"
ZONE I=51, J=46, DATAPACKING=POINT
1.9020999999999999e+00,	 7.4003620000000003e-01,	 2.1212381818570152e-02,	 7.2805518917692382e+02,	 4.9501345125176066e+01,	 5.4212003112285777e+02,	 3.3083757419924600e+03,	 4.4680464648343474e+02,	 1.6332329631226634e+00 
1.9095679999999999e+00,	 7.4003710000000000e-01,	 2.1256582916778472e-02,	 7.2799528958391693e+02,	 5.1865701910053396e+01,	 5.4227070289859716e+02,	 3.3161909534134470e+03,	 4.4686673252402323e+02,	 1.6332397835870398e+00 
1.9170370000000001e+00,	 7.4003790000000003e-01,	 2.1289384075805121e-02,	 7.2808171714010064e+02,	 5.4071495768376309e+01,	 5.4227032256377743e+02,	 3.3213058578386363e+03,	 4.4686657581353984e+02,	 1.6337914366781330e+00 
1.9245060000000000e+00,	 7.4003880000000000e-01,	 2.1308466301944662e-02,	 7.2845292206400404e+02,	 5.5992488625164654e+01,	 5.4213657522528706e+02,	 3.3234629182024237e+03,	 4.4681146409302096e+02,	 1.6351453380127163e+00 
1.9319740000000001e+00,	 7.4003960000000002e-01,	 2.1313582653848594e-02,	 7.2905455919690928e+02,	 5.7707400196965907e+01,	 5.4188274835255424e+02,	 3.3227045012159138e+03,	 4.4670685388978990e+02,	 1.6371695781402853e+00 
1.9394430000000000e+00,	 7.4004049999999999e-01,	 2.1309743574000183e-02,	 7.2983419837321662e+02,	 5.9381090854868553e+01,	 5.4151920600714720e+02,	 3.3198772443363009e+03,	 4.4655698373382819e+02,	 1.6397591697117730e+00 
1.9469120000000000e+00,	 7.4004139999999996e-01,	 2.1299393041867516e-02,	 7.3076730441328664e+02,	 6.1069872526802101e+01,	 5.4105491268182868e+02,	 3.3154196712006346e+03,	 4.4636550586462073e+02,	 1.6428569073609356e+00 
1.9543809999999999e+00,	 7.4004219999999998e-01,	 2.1283386301248888e-02,	 7.3183590710387682e+02,	 6.2673200183216601e+01,	 5.4047144807195662e+02,	 3.3093554884085206e+03,	 4.4612476437919429e+02,	 1.6464331892208879e+00 
1.9618490000000000e+00,	 7.4004309999999995e-01,	 2.1264893154084967e-02,	 7.3298992918546264e+02,	 6.4196953114306041e+01,	 5.3979182744964214e+02,	 3.3023222248082129e+03,	 4.4584418437348825e+02,	 1.6503429747583482e+00 
1.9693179999999999e+00,	 7.4004389999999998e-01,	 2.1247200365479328e-02,	 7.3419378414459857e+02,	 6.5633728670928292e+01,	 5.3903811533940939e+02,	 3.2949674301526579e+03,	 4.4553280920202951e+02,	 1.6544721642539644e+00 
1.9767870000000001e+00,	 7.4004479999999995e-01,	 2.1232431876708015e-02,	 7.3542729400936196e+02,	 6.6986147931973647e+01,	 5.3822834749942353e+02,	 3.2877307555319944e+03,	 4.4519803349088221e+02,	 1.6587487870009960e+00 
1.9842550000000001e+00,	 7.4004559999999997e-01,	 2.1221162142843510e-02,	 7.3670441192164299e+02,	 6.8272315570914486e+01,	 5.3735690089305012e+02,	 3.2806653502406316e+03,	 4.4483747696893892e+02,	 1.6632167334521593e+00 
1.9917240000000000e+00,	 7.4004650000000005e-01,	 2.1212974559524207e-02,	 7.3806023263645068e+02,	 6.9528018211566717e+01,	 5.3639671605145918e+02,	 3.2735397505523147e+03,	 4.4443986676179009e+02,	 1.6680049505373886e+00 
1.9991930000000000e+00,	 7.4004740000000002e-01,	 2.1205858667857784e-02,	 7.3950632558011830e+02,	 7.0790630428876810e+01,	 5.3535812788734484e+02,	 3.2661054374840260e+03,	 4.4400938907215311e+02,	 1.6731332713564155e+00 
2.0066619999999999e+00,	 7.4004820000000004e-01,	 2.1198452331936093e-02,	 7.4103604158412884e+02,	 7.2084620108806206e+01,	 5.3421904526180515e+02,	 3.2580178485600768e+03,	 4.4353677768423262e+02,	 1.6786292733563222e+00 
2.0141300000000002e+00,	 7.4004910000000002e-01,	 2.1190473861559908e-02,	 7.4264702873042211e+02,	 7.3426546296579559e+01,	 5.3296016301307361e+02,	 3.2491170276135531e+03,	 4.4301387428713872e+02,	 1.6845253310351775e+00 
2.0215990000000001e+00,	 7.4004990000000004e-01,	 2.1181958266521229e-02,	 7.4433173853639369e+02,	 7.4811866172183230e+01,	 5.3158761673944105e+02,	 3.2394471651449153e+03,	 4.4244305391840373e+02,	 1.6907981917323500e+00 
2.0290680000000001e+00,	 7.4005080000000001e-01,	 2.1174260864418697e-02,	 7.4608409756354740e+02,	 7.6226318767249836e+01,	 5.3011510865708192e+02,	 3.2292998975622145e+03,	 4.4182984101999375e+02,	 1.6974135392425562e+00 
2.0365359999999999e+00,	 7.4005169999999998e-01,	 2.1167169414398286e-02,	 7.4788297525922269e+02,	 7.7660091061486213e+01,	 5.2855953959414660e+02,	 3.2187454963734408e+03,	 4.4118111231712561e+02,	 1.7042984187761552e+00 
2.0440049999999998e+00,	 7.4005250000000000e-01,	 2.1160824102993067e-02,	 7.4970684201305528e+02,	 7.9104658718773877e+01,	 5.2694272574999104e+02,	 3.2079377208374572e+03,	 4.4050582978234809e+02,	 1.7113703585283533e+00 
2.0514739999999998e+00,	 7.4005339999999997e-01,	 2.1155419930702246e-02,	 7.5154136200658968e+02,	 8.0551219460009889e+01,	 5.2528733442077714e+02,	 3.1970432921112665e+03,	 4.3981336065812548e+02,	 1.7185604098759042e+00 
2.0589430000000002e+00,	 7.4005430000000005e-01,	 2.1150860597802898e-02,	 7.5337016505488145e+02,	 8.1994485476040680e+01,	 5.2360213062836056e+02,	 3.1860998742807647e+03,	 4.3910729894523860e+02,	 1.7258174582043664e+00 
2.0664110000000000e+00,	 7.4005509999999997e-01,	 2.1146667585565548e-02,	 7.5517293198570530e+02,	 8.3426332702262584e+01,	 5.2190105971961145e+02,	 3.1751193495018510e+03,	 4.3839343600618054e+02,	 1.7330714369416476e+00 
2.0738799999999999e+00,	 7.4005600000000005e-01,	 2.1142049911899181e-02,	 7.5692996090268002e+02,	 8.4841440969304685e+01,	 5.2020129358765598e+02,	 3.1640873109157637e+03,	 4.3767895763964941e+02,	 1.7402479287934791e+00 
2.0813489999999999e+00,	 7.4005679999999996e-01,	 2.1136256979286082e-02,	 7.5862442354112341e+02,	 8.6230373632754350e+01,	 5.1850799923569457e+02,	 3.1529238291094284e+03,	 4.3696603804541485e+02,	 1.7472970256176437e+00 
2.0888170000000001e+00,	 7.4005770000000004e-01,	 2.1129185087052374e-02,	 7.6024614729461109e+02,	 8.7581098690603966e+01,	 5.1683557887220809e+02,	 3.1417027175650915e+03,	 4.3626076335779311e+02,	 1.7541669990560660e+00 
2.0962860000000001e+00,	 7.4005860000000001e-01,	 2.1120926732325775e-02,	 7.6180383126757351e+02,	 8.8877720475534289e+01,	 5.1519049630964423e+02,	 3.1304786808340332e+03,	 4.3556590312500884e+02,	 1.7608606911952218e+00 
2.1037550000000000e+00,	 7.4005940000000003e-01,	 2.1109443068837847e-02,	 7.6330834868749275e+02,	 9.0110965003145296e+01,	 5.1359932609406496e+02,	 3.1191133545381658e+03,	 4.3489275847759467e+02,	 1.7673526910404873e+00 
2.1112240000000000e+00,	 7.4006030000000000e-01,	 2.1095793927584251e-02,	 7.6473989721509406e+02,	 9.1271668048666101e+01,	 5.1207530652073410e+02,	 3.1078471095013938e+03,	 4.3424704356992743e+02,	 1.7735694093998171e+00 
2.1186919999999998e+00,	 7.4006119999999997e-01,	 2.1079730860585993e-02,	 7.6610379437037818e+02,	 9.2354008788068299e+01,	 5.1062171721820863e+02,	 3.0966653949423221e+03,	 4.3363027350418298e+02,	 1.7795122082611945e+00 
2.1261610000000002e+00,	 7.4006200000000000e-01,	 2.1060751745381853e-02,	 7.6739724769607528e+02,	 9.3363372201637588e+01,	 5.0923928112915240e+02,	 3.0855010799560737e+03,	 4.3304287934154007e+02,	 1.7851714628252866e+00 
2.1336300000000001e+00,	 7.4006289999999997e-01,	 2.1038799193341305e-02,	 7.6861822010728361e+02,	 9.4303070040216596e+01,	 5.0792729068035931e+02,	 3.0743438095048296e+03,	 4.3248467953720120e+02,	 1.7905413753509662e+00 
2.1410979999999999e+00,	 7.4006380000000005e-01,	 2.1014017101484608e-02,	 7.6977712282718721e+02,	 9.5176212912449131e+01,	 5.0668720599978576e+02,	 3.0632254190814651e+03,	 4.3195640965942135e+02,	 1.7956410468693897e+00 
2.1485669999999999e+00,	 7.4006470000000002e-01,	 2.0986574664871603e-02,	 7.7088577618328588e+02,	 9.5991000967612536e+01,	 5.0552349726598135e+02,	 3.0521989955278918e+03,	 4.3146008727952193e+02,	 1.8004891507652547e+00 
2.1560359999999998e+00,	 7.4006550000000004e-01,	 2.0956569238442913e-02,	 7.7194837475483246e+02,	 9.6752715350957232e+01,	 5.0443620170886311e+02,	 3.0412797547587138e+03,	 4.3099583867179877e+02,	 1.8050940735414087e+00 
2.1635049999999998e+00,	 7.4006640000000001e-01,	 2.0923841504400423e-02,	 7.7297036171380182e+02,	 9.7467794943672118e+01,	 5.0341543808224003e+02,	 3.0303855670645671e+03,	 4.3055954200583801e+02,	 1.8094854675075600e+00 
2.1709730000000000e+00,	 7.4006729999999998e-01,	 2.0888105867960905e-02,	 7.7395539866118520e+02,	 9.8138169753885080e+01,	 5.0244797113816981e+02,	 3.0193961318918214e+03,	 4.3014561702611059e+02,	 1.8136941454831206e+00 
2.1784420000000000e+00,	 7.4006819999999995e-01,	 2.0848941809469584e-02,	 7.7490549164114896e+02,	 9.8767895757380273e+01,	 5.0152200592098973e+02,	 3.0081808937339983e+03,	 4.2974907491693466e+02,	 1.8177456511269530e+00 
2.1859109999999999e+00,	 7.4006899999999998e-01,	 2.0805936743093813e-02,	 7.7581325467276929e+02,	 9.9359540148392696e+01,	 5.0062687450351950e+02,	 2.9966179095597013e+03,	 4.2936538916105172e+02,	 1.8216417927420674e+00 
2.1933790000000002e+00,	 7.4006989999999995e-01,	 2.0758827612423703e-02,	 7.7667336231217064e+02,	 9.9920097358794294e+01,	 4.9975239793914318e+02,	 2.9846103900495841e+03,	 4.2899022544417886e+02,	 1.8253898745838402e+00 
2.2008480000000001e+00,	 7.4007080000000003e-01,	 2.0707631351037280e-02,	 7.7748485250355566e+02,	 1.0045588397546157e+02,	 4.9889212496147150e+02,	 2.9721245902951923e+03,	 4.2862083486500342e+02,	 1.8290005755915648e+00 
2.2083170000000001e+00,	 7.4007170000000000e-01,	 2.0652623036112136e-02,	 7.7825530294775649e+02,	 1.0097459958402646e+02,	 4.9804360983395947e+02,	 2.9591877999918352e+03,	 4.2825618084742354e+02,	 1.8324976181472530e+00 
2.2157860000000000e+00,	 7.4007259999999997e-01,	 2.0594587388826344e-02,	 7.7899462221868555e+02,	 1.0147984996139260e+02,	 4.9720847326843887e+02,	 2.9459241042068043e+03,	 4.2789697289278735e+02,	 1.8359015574778219e+00 
2.2232539999999998e+00,	 7.4007339999999999e-01,	 2.0534652192789393e-02,	 7.7971857071645979e+02,	 1.0197699259234972e+02,	 4.9639353051582697e+02,	 2.9325363328513085e+03,	 4.2754615974235048e+02,	 1.8392374848015087e+00 
2.2307229999999998e+00,	 7.4007429999999996e-01,	 2.0474005261445754e-02,	 7.8044102220359764e+02,	 1.0246712065693812e+02,	 4.9560776948479577e+02,	 2.9192470773481732e+03,	 4.2720763582658947e+02,	 1.8425207488311248e+00 
2.2381920000000002e+00,	 7.4007520000000004e-01,	 2.0413553422725862e-02,	 7.8118019824539363e+02,	 1.0294510729018288e+02,	 4.9485379433687535e+02,	 2.9061996877038146e+03,	 4.2688255361556031e+02,	 1.8457866827345459e+00 
2.2456600000000000e+00,	 7.4007610000000001e-01,	 2.0354188232897051e-02,	 7.8195530981133459e+02,	 1.0340528425949628e+02,	 4.9413209915827429e+02,	 2.8935220140200727e+03,	 4.2657115710614806e+02,	 1.8490767362815950e+00 
2.2531289999999999e+00,	 7.4007699999999998e-01,	 2.0296563171742357e-02,	 7.8277716184514486e+02,	 1.0384731506981714e+02,	 4.9343730183905245e+02,	 2.8812730664983628e+03,	 4.2627115154578127e+02,	 1.8524255690596927e+00 
2.2605979999999999e+00,	 7.4007789999999996e-01,	 2.0240702959077865e-02,	 7.8363388502260636e+02,	 1.0427769316160456e+02,	 4.9276543476145775e+02,	 2.8694308644156190e+03,	 4.2598084606182977e+02,	 1.8558147214754264e+00 
2.2680669999999998e+00,	 7.4007880000000004e-01,	 2.0185841465268306e-02,	 7.8450746272987487e+02,	 1.0470412833969766e+02,	 4.9211339395937534e+02,	 2.8578667854797259e+03,	 4.2569891797021359e+02,	 1.8592102203073078e+00 
2.2755350000000001e+00,	 7.4007970000000001e-01,	 2.0139194310998754e-02,	 7.8522671771888986e+02,	 1.0509121136371103e+02,	 4.9156248414195159e+02,	 2.8480706605634637e+03,	 4.2546057108892649e+02,	 1.8620479232582614e+00 
1.9020990000000000e+00,	 7.4579910000000005e-01,	 2.0924800089550308e-02,	 7.2473718900972199e+02,	 4.8572678650092406e+01,	 5.4444899257683608e+02,	 3.2775434180470434e+03,	 4.4776335999012792e+02,	 1.6222029919914351e+00 
1.9095679999999999e+00,	 7.4580000000000002e-01,	 2.0981484315505339e-02,	 7.2447460070189118e+02,	 5.1176414869232119e+01,	 5.4477220580211178e+02,	 3.2883731085418367e+03,	 4.4789624807451116e+02,	 1.6215359894413084e+00 
1.9170360000000000e+00,	 7.4580100000000005e-01,	 2.1028290860998312e-02,	 7.2439233804835010e+02,	 5.3596803487951590e+01,	 5.4495304277454511e+02,	 3.2968029854991432e+03,	 4.4797058141976316e+02,	 1.6214734611433830e+00 
1.9245049999999999e+00,	 7.4580190000000002e-01,	 2.1058214418796420e-02,	 7.2462609200709130e+02,	 5.5700085309450316e+01,	 5.4494460492733447e+02,	 3.3014432640732962e+03,	 4.4796711330264486e+02,	 1.6223594911583112e+00 
1.9319740000000001e+00,	 7.4580279999999999e-01,	 2.1070878728090277e-02,	 7.2516086988352015e+02,	 5.7618746966483720e+01,	 5.4474460839988546e+02,	 3.3022163666342399e+03,	 4.4788490303035235e+02,	 1.6241814703863788e+00 
1.9394420000000001e+00,	 7.4580369999999996e-01,	 2.1069322068210668e-02,	 7.2592553376030378e+02,	 5.9441769646459690e+01,	 5.4438565778951806e+02,	 3.2997966266880026e+03,	 4.4773731547324348e+02,	 1.6267465567596777e+00 
1.9469110000000001e+00,	 7.4580469999999999e-01,	 2.1062677982522732e-02,	 7.2681910989124344e+02,	 6.1191541455112130e+01,	 5.4392613445198538e+02,	 3.2959715305525710e+03,	 4.4754830499957495e+02,	 1.6297468635611130e+00 
1.9543800000000000e+00,	 7.4580559999999996e-01,	 2.1052059856785561e-02,	 7.2782818459999294e+02,	 6.2845079549519895e+01,	 5.4336418737490385e+02,	 3.2909065095426977e+03,	 4.4731705719107777e+02,	 1.6331511312384355e+00 
1.9618490000000000e+00,	 7.4580650000000004e-01,	 2.1040205825691900e-02,	 7.2891065883055057e+02,	 6.4377917469601044e+01,	 5.4271609234499215e+02,	 3.2851304573368429e+03,	 4.4705020995925747e+02,	 1.6368364717331254e+00 
1.9693170000000000e+00,	 7.4580749999999996e-01,	 2.1029744565371111e-02,	 7.3004702415205884e+02,	 6.5790440608726612e+01,	 5.4199181615659086e+02,	 3.2791151222340177e+03,	 4.4675180723476353e+02,	 1.6407443061501721e+00 
1.9767859999999999e+00,	 7.4580840000000004e-01,	 2.1021792746596758e-02,	 7.3124014541908923e+02,	 6.7109939816063431e+01,	 5.4119983313977446e+02,	 3.2730854352631663e+03,	 4.4642528090868888e+02,	 1.6448737203468713e+00 
1.9842550000000001e+00,	 7.4580930000000001e-01,	 2.1015380849552106e-02,	 7.3249362981901061e+02,	 6.8372809121156280e+01,	 5.4033482487897595e+02,	 3.2668572766212515e+03,	 4.4606837394232764e+02,	 1.6492488543690316e+00 
1.9917240000000000e+00,	 7.4581019999999998e-01,	 2.1009972898772076e-02,	 7.3383659927126359e+02,	 6.9623713264677349e+01,	 5.3937151972988204e+02,	 3.2601939748938926e+03,	 4.4567057277432735e+02,	 1.6539840538919126e+00 
1.9991920000000001e+00,	 7.4581120000000001e-01,	 2.1004233128055886e-02,	 7.3528386730874831e+02,	 7.0905376419200820e+01,	 5.3830721492350847e+02,	 3.2528719542134413e+03,	 4.4523065007093282e+02,	 1.6591282580397981e+00 
2.0066609999999998e+00,	 7.4581209999999998e-01,	 2.0997707038101842e-02,	 7.3683402483132249e+02,	 7.2231070215384563e+01,	 5.3712480038498109e+02,	 3.2447184246582970e+03,	 4.4474139729124579e+02,	 1.6647110719146929e+00 
2.0141300000000002e+00,	 7.4581299999999995e-01,	 2.0990906193466784e-02,	 7.3848232277500369e+02,	 7.3599641830630418e+01,	 5.3581323527238169e+02,	 3.2357470381680187e+03,	 4.4419807493907462e+02,	 1.6707430685703411e+00 
2.0215980000000000e+00,	 7.4581399999999998e-01,	 2.0984376087589345e-02,	 7.4021570113713381e+02,	 7.5006618676644763e+01,	 5.3438127427211145e+02,	 3.2260955781467605e+03,	 4.4360411810502632e+02,	 1.6771851391556856e+00 
2.0290670000000000e+00,	 7.4581489999999995e-01,	 2.0979071874206119e-02,	 7.4202627422874639e+02,	 7.6444643956152078e+01,	 5.3284848130955436e+02,	 3.2160288842469981e+03,	 4.4296745511754722e+02,	 1.6839918884420164e+00 
2.0365359999999999e+00,	 7.4581580000000003e-01,	 2.0974852717092134e-02,	 7.4389268804257426e+02,	 7.7905901054196647e+01,	 5.3123257735396726e+02,	 3.2056312068582888e+03,	 4.4229527870467120e+02,	 1.6910897270798069e+00 
2.0440049999999998e+00,	 7.4581679999999995e-01,	 2.0971826517443858e-02,	 7.4579023410959257e+02,	 7.9380521836365460e+01,	 5.2955063183733353e+02,	 3.1950207610522116e+03,	 4.4159454388637903e+02,	 1.6983971022089763e+00 
2.0514730000000001e+00,	 7.4581770000000003e-01,	 2.0970906500247095e-02,	 7.4770948968779317e+02,	 8.0857876478498497e+01,	 5.2782391252229229e+02,	 3.1844629690204902e+03,	 4.4087399670752944e+02,	 1.7058588253586020e+00 
2.0589420000000000e+00,	 7.4581860000000000e-01,	 2.0971287383693304e-02,	 7.4963255759626804e+02,	 8.2329973640692288e+01,	 5.2606308453017959e+02,	 3.1738972005535284e+03,	 4.4013800144678578e+02,	 1.7134172348068606e+00 
2.0664110000000000e+00,	 7.4581960000000003e-01,	 2.0972095197894291e-02,	 7.5154209979096663e+02,	 8.3791293110728745e+01,	 5.2428170715293061e+02,	 3.1632714582941821e+03,	 4.3939216242535088e+02,	 1.7210109501154960e+00 
2.0738789999999998e+00,	 7.4582050000000000e-01,	 2.0972451842206464e-02,	 7.5341840693989047e+02,	 8.5238084835013240e+01,	 5.2249278146369136e+02,	 3.1525315244527205e+03,	 4.3864188677829372e+02,	 1.7285736028858232e+00 
2.0813480000000002e+00,	 7.4582139999999997e-01,	 2.0971579732902416e-02,	 7.5524376638653735e+02,	 8.6662296038087845e+01,	 5.2070061248391619e+02,	 3.1415875844147854e+03,	 4.3788896188201687e+02,	 1.7360557382123660e+00 
2.0888170000000001e+00,	 7.4582240000000000e-01,	 2.0968536280701465e-02,	 7.5701027705037836e+02,	 8.8059002276746938e+01,	 5.1892153483911591e+02,	 3.1303993650123016e+03,	 4.3714025425746979e+02,	 1.7434102186683800e+00 
2.0962860000000001e+00,	 7.4582329999999997e-01,	 2.0963842584857929e-02,	 7.5870801446274982e+02,	 8.9411176188620118e+01,	 5.1717125780656977e+02,	 3.1191424414061639e+03,	 4.3640241360739850e+02,	 1.7505820944590951e+00 
2.1037539999999999e+00,	 7.4582420000000005e-01,	 2.0956873414590751e-02,	 7.6035119720799980e+02,	 9.0696841018769106e+01,	 5.1546612307708949e+02,	 3.1078249999942173e+03,	 4.3568240136195044e+02,	 1.7575678452188108e+00 
2.1112229999999998e+00,	 7.4582519999999997e-01,	 2.0948177970634294e-02,	 7.6192298489884126e+02,	 9.1907259962644332e+01,	 5.1382392550163445e+02,	 3.0966385434930489e+03,	 4.3498783841118001e+02,	 1.7642933278618853e+00 
2.1186919999999998e+00,	 7.4582610000000005e-01,	 2.0937537752499191e-02,	 7.6343136670310685e+02,	 9.3039537201484819e+01,	 5.1224626686300485e+02,	 3.0855624944939600e+03,	 4.3431952590501379e+02,	 1.7707696720603865e+00 
2.1261600000000000e+00,	 7.4582709999999997e-01,	 2.0923907718830084e-02,	 7.6487523885867347e+02,	 9.4100548679703039e+01,	 5.1073981939727685e+02,	 3.0744855203697261e+03,	 4.3368041798254058e+02,	 1.7769812446639615e+00 
2.1336290000000000e+00,	 7.4582800000000005e-01,	 2.0907578659072376e-02,	 7.6624504828116017e+02,	 9.5091752864615387e+01,	 5.0930951043149821e+02,	 3.0634829159684164e+03,	 4.3307273883192062e+02,	 1.7828944729653264e+00 
2.1410979999999999e+00,	 7.4582890000000002e-01,	 2.0888447623985104e-02,	 7.6755242955138374e+02,	 9.6016639032022212e+01,	 5.0795630771866672e+02,	 3.0525477112707526e+03,	 4.3249703292470070e+02,	 1.7885317999117618e+00 
2.1485669999999999e+00,	 7.4582990000000005e-01,	 2.0866541337267203e-02,	 7.6880608830208587e+02,	 9.6880476754084498e+01,	 5.0668441076637407e+02,	 3.0417110114375296e+03,	 4.3195521817418188e+02,	 1.7939040223982285e+00 
2.1560350000000001e+00,	 7.4583080000000002e-01,	 2.0841689210999714e-02,	 7.7000928351821528e+02,	 9.7686313103608470e+01,	 5.0549408487890082e+02,	 3.0309511083976213e+03,	 4.3144753548345574e+02,	 1.7990159066046028e+00 
2.1635040000000001e+00,	 7.4583180000000004e-01,	 2.0813630037151400e-02,	 7.7116508672296868e+02,	 9.8438717070092807e+01,	 5.0437685808712399e+02,	 3.0201806457552575e+03,	 4.3097048600458709e+02,	 1.8038880702303288e+00 
2.1709730000000000e+00,	 7.4583270000000002e-01,	 2.0782132309096674e-02,	 7.7227626205468459e+02,	 9.9140473127990248e+01,	 5.0331885702522084e+02,	 3.0092844749969699e+03,	 4.3051823825628418e+02,	 1.8085501064979257e+00 
2.1784409999999998e+00,	 7.4583370000000004e-01,	 2.0746894042140619e-02,	 7.7334463326688717e+02,	 9.9796225087136094e+01,	 5.0230703639995915e+02,	 2.9981426208470766e+03,	 4.3008528569321737e+02,	 1.8130291199643338e+00 
2.1859099999999998e+00,	 7.4583460000000001e-01,	 2.0707556851342131e-02,	 7.7436494377354120e+02,	 1.0041056761776615e+02,	 5.0133113378846468e+02,	 2.9866441169005370e+03,	 4.2966728894594468e+02,	 1.8173313618464060e+00 
2.1933790000000002e+00,	 7.4583560000000004e-01,	 2.0663941676313528e-02,	 7.7533293027064087e+02,	 1.0099160766935681e+02,	 5.0038355790373072e+02,	 2.9747202894607512e+03,	 4.2926103557068103e+02,	 1.8214619355472719e+00 
2.2008480000000001e+00,	 7.4583650000000001e-01,	 2.0616207095688583e-02,	 7.7624855968416398e+02,	 1.0154917596998978e+02,	 4.9945920841902728e+02,	 2.9623661066817331e+03,	 4.2886436922876135e+02,	 1.8254319803167476e+00 
2.2083159999999999e+00,	 7.4583750000000004e-01,	 2.0564718197965924e-02,	 7.7711754468578329e+02,	 1.0209353784030462e+02,	 4.9855491455774887e+02,	 2.9496175040326461e+03,	 4.2847595400867090e+02,	 1.8292627602787788e+00 
2.2157849999999999e+00,	 7.4583840000000001e-01,	 2.0510106964740201e-02,	 7.7794828926223568e+02,	 1.0262893563144137e+02,	 4.9766995948886154e+02,	 2.9365627756380086e+03,	 4.2809550406058742e+02,	 1.8329756285412453e+00 
2.2232539999999998e+00,	 7.4583940000000004e-01,	 2.0453284222837594e-02,	 7.7875449252869203e+02,	 1.0315449398084705e+02,	 4.9680650398780898e+02,	 2.9233462914419483e+03,	 4.2772397079666348e+02,	 1.8365974431527083e+00 
2.2307220000000001e+00,	 7.4584030000000001e-01,	 2.0395331797066440e-02,	 7.7955087103271626e+02,	 1.0366704326236783e+02,	 4.9597042963997524e+02,	 2.9101575169161642e+03,	 4.2736391147917817e+02,	 1.8401498603803432e+00 
2.2381910000000000e+00,	 7.4584130000000004e-01,	 2.0337223941737186e-02,	 7.8035485917007543e+02,	 1.0416208558210536e+02,	 4.9516729196143405e+02,	 2.8971671895691388e+03,	 4.2701775059641045e+02,	 1.8436609829116282e+00 
2.2456600000000000e+00,	 7.4584229999999996e-01,	 2.0279775151645821e-02,	 7.8118475035553206e+02,	 1.0463453646884744e+02,	 4.9440305195302659e+02,	 2.8845243934202504e+03,	 4.2668809426457364e+02,	 1.8471599322523533e+00 
2.2531289999999999e+00,	 7.4584320000000004e-01,	 2.0223449376346906e-02,	 7.8205421970006296e+02,	 1.0508318561908035e+02,	 4.9367867750307346e+02,	 2.8722982901616533e+03,	 4.2637539873386885e+02,	 1.8506756188211366e+00 
2.2605970000000002e+00,	 7.4584419999999996e-01,	 2.0168292606598821e-02,	 7.8296074972418251e+02,	 1.0551253649406532e+02,	 4.9298740627237140e+02,	 2.8604535255840738e+03,	 4.2607677909542912e+02,	 1.8542156843147515e+00 
2.2680660000000001e+00,	 7.4584510000000004e-01,	 2.0113914734126211e-02,	 7.8388957818234155e+02,	 1.0593331826681444e+02,	 4.9232012300701041e+02,	 2.8488798247693499e+03,	 4.2578832327050151e+02,	 1.8577658477865742e+00 
2.2755350000000001e+00,	 7.4584609999999996e-01,	 2.0067860190859620e-02,	 7.8465413298826479e+02,	 1.0631745757498562e+02,	 4.9175746222352666e+02,	 2.8391083243743706e+03,	 4.2554494211415499e+02,	 1.8607298262794627e+00 
1.9020980000000001e+00,	 7.5156170000000000e-01,	 2.0541307134365354e-02,	 7.2053075895929965e+02,	 4.7203691486269413e+01,	 5.4776294030046279e+02,	 3.2370593329466597e+03,	 4.4912401382574205e+02,	 1.6077415024519968e+00 
1.9095670000000000e+00,	 7.5156270000000003e-01,	 2.0623171756404469e-02,	 7.1981826168308658e+02,	 5.0190216542800123e+01,	 5.4837554907415210e+02,	 3.2535948986776984e+03,	 4.4937508998193084e+02,	 1.6057096700695896e+00 
1.9170360000000000e+00,	 7.5156369999999995e-01,	 2.0691349727063064e-02,	 7.1934576748467919e+02,	 5.2924297074192552e+01,	 5.4879956261225539e+02,	 3.2668749838528847e+03,	 4.4954878873998416e+02,	 1.6044755384679434e+00 
1.9245040000000000e+00,	 7.5156469999999997e-01,	 2.0732719383549824e-02,	 7.1933064451940459e+02,	 5.5346526649930468e+01,	 5.4890891547138904e+02,	 3.2740589279152678e+03,	 4.4959357466922404e+02,	 1.6046864796740070e+00 
1.9319729999999999e+00,	 7.5156570000000000e-01,	 2.0753692529026549e-02,	 7.1968360126763514e+02,	 5.7544308601943413e+01,	 5.4876314402658613e+02,	 3.2765005966311078e+03,	 4.4953387236266559e+02,	 1.6060647220565436e+00 
1.9394420000000001e+00,	 7.5156670000000003e-01,	 2.0759883845795454e-02,	 7.2030292646369969e+02,	 5.9522220135148487e+01,	 5.4843798292659699e+02,	 3.2755360353145893e+03,	 4.4940067046193809e+02,	 1.6082709677501730e+00 
1.9469110000000001e+00,	 7.5156769999999995e-01,	 2.0760036875298139e-02,	 7.2107619666363678e+02,	 6.1317610554109812e+01,	 5.4799983782357833e+02,	 3.2729433475418582e+03,	 4.4922112231691847e+02,	 1.6109630072535939e+00 
1.9543790000000001e+00,	 7.5156869999999998e-01,	 2.0757148943055630e-02,	 7.2195295647272735e+02,	 6.2977070823784210e+01,	 5.4747394995573040e+02,	 3.2693476057379817e+03,	 4.4900552312691468e+02,	 1.6139991763134374e+00 
1.9618480000000000e+00,	 7.5156970000000001e-01,	 2.0753971157233625e-02,	 7.2289571521459879e+02,	 6.4480937472987875e+01,	 5.4687448356786604e+02,	 3.2652678071218966e+03,	 4.4875963248602187e+02,	 1.6172707041761309e+00 
1.9693170000000000e+00,	 7.5157070000000004e-01,	 2.0751771490964792e-02,	 7.2390679318889943e+02,	 6.5856641241993529e+01,	 5.4619808471538954e+02,	 3.2608835273924583e+03,	 4.4848202361434767e+02,	 1.6207923636357782e+00 
1.9767850000000000e+00,	 7.5157169999999995e-01,	 2.0749981172496879e-02,	 7.2500853874550717e+02,	 6.7160372961214534e+01,	 5.4543887219583803e+02,	 3.2560699808128443e+03,	 4.4817022137639225e+02,	 1.6246339519147550e+00 
1.9842540000000000e+00,	 7.5157269999999998e-01,	 2.0747150666323030e-02,	 7.2620713553737221e+02,	 6.8439056982351062e+01,	 5.4459319782220177e+02,	 3.2505781429722783e+03,	 4.4782265438783543e+02,	 1.6288254043246342e+00 
1.9917229999999999e+00,	 7.5157370000000001e-01,	 2.0743169026387270e-02,	 7.2750808440122705e+02,	 6.9723897926966885e+01,	 5.4363809985462342e+02,	 3.2442546033283338e+03,	 4.4742979031707580e+02,	 1.6334218447924438e+00 
1.9991920000000001e+00,	 7.5157470000000004e-01,	 2.0738067564652723e-02,	 7.2893775955358274e+02,	 7.1038368118493196e+01,	 5.4255011821865264e+02,	 3.2369656068285522e+03,	 4.4698184599987559e+02,	 1.6385253571675757e+00 
2.0066600000000001e+00,	 7.5157569999999996e-01,	 2.0732470205955224e-02,	 7.3049801422128303e+02,	 7.2391417629233572e+01,	 5.4132464652954263e+02,	 3.2287824829640044e+03,	 4.4647675601729986e+02,	 1.6441532268714742e+00 
2.0141290000000001e+00,	 7.5157669999999999e-01,	 2.0727215545455670e-02,	 7.3217511487370552e+02,	 7.3777290949966599e+01,	 5.3997273811828700e+02,	 3.2199026026287574e+03,	 4.4591889022158443e+02,	 1.6502615404123877e+00 
2.0215980000000000e+00,	 7.5157770000000002e-01,	 2.0722915892437403e-02,	 7.3394839217436788e+02,	 7.5192836711541005e+01,	 5.3850642498842149e+02,	 3.2104927320839179e+03,	 4.4531302517201595e+02,	 1.6567898091348543e+00 
2.0290670000000000e+00,	 7.5157870000000004e-01,	 2.0719909402700569e-02,	 7.3580946899212324e+02,	 7.6638516068345496e+01,	 5.3694186936574499e+02,	 3.2007006649308832e+03,	 4.4466565704870396e+02,	 1.6636991145328830e+00 
2.0365350000000002e+00,	 7.5157969999999996e-01,	 2.0717765950860494e-02,	 7.3773716035874043e+02,	 7.8107075932797386e+01,	 5.3528639021867195e+02,	 3.1905022959059102e+03,	 4.4397963957933973e+02,	 1.6709333500543100e+00 
2.0440040000000002e+00,	 7.5158069999999999e-01,	 2.0718051125117834e-02,	 7.3971546995342328e+02,	 7.9590918631390252e+01,	 5.3355331242637158e+02,	 3.1802162937769253e+03,	 4.4326032830579197e+02,	 1.6784380636138767e+00 
2.0514730000000001e+00,	 7.5158170000000002e-01,	 2.0721369732454288e-02,	 7.4173305713464083e+02,	 8.1089374366377001e+01,	 5.3176070353746491e+02,	 3.1700392373420841e+03,	 4.4251507856340021e+02,	 1.6861626717054541e+00 
2.0589409999999999e+00,	 7.5158270000000005e-01,	 2.0726463414747449e-02,	 7.4376971938443728e+02,	 8.2593375285698144e+01,	 5.2991891784502718e+02,	 3.1598361659252573e+03,	 4.4174807483797679e+02,	 1.6940459575106828e+00 
2.0664099999999999e+00,	 7.5158369999999997e-01,	 2.0732270996206541e-02,	 7.4581181736975168e+02,	 8.4091572890941180e+01,	 5.2804018122964362e+02,	 3.1495157599915965e+03,	 4.4096430853530001e+02,	 1.7020370262413329e+00 
2.0738789999999998e+00,	 7.5158480000000005e-01,	 2.0737865190140831e-02,	 7.4783989185820792e+02,	 8.5574098450134173e+01,	 5.2613751789723062e+02,	 3.1390140245879529e+03,	 4.4016913820168497e+02,	 1.7100699612548584e+00 
2.0813480000000002e+00,	 7.5158579999999997e-01,	 2.0742324412639953e-02,	 7.4983582742058297e+02,	 8.7032975824291285e+01,	 5.2422293008900988e+02,	 3.1282638311964110e+03,	 4.3936753167365123e+02,	 1.7180829408817155e+00 
2.0888160000000000e+00,	 7.5158680000000000e-01,	 2.0744299691171714e-02,	 7.5178806818839735e+02,	 8.8458746590034636e+01,	 5.2231911955570058e+02,	 3.1171997951236331e+03,	 4.3856898460588434e+02,	 1.7260098895177691e+00 
2.0962850000000000e+00,	 7.5158780000000003e-01,	 2.0744099798621466e-02,	 7.5367440683590075e+02,	 8.9843550811156831e+01,	 5.2044829937317274e+02,	 3.1060048129963161e+03,	 4.3778285627063110e+02,	 1.7337602714772897e+00 
2.1037539999999999e+00,	 7.5158879999999995e-01,	 2.0741581380805733e-02,	 7.5551072126790996e+02,	 9.1178257511726230e+01,	 5.1861535218723975e+02,	 3.0946901385450601e+03,	 4.3701127087322578e+02,	 1.7413572001653184e+00 
2.1112220000000002e+00,	 7.5158979999999997e-01,	 2.0737514406597355e-02,	 7.5727737902034630e+02,	 9.2451909113384431e+01,	 5.1684288128227411e+02,	 3.0835086929929917e+03,	 4.3626384532802422e+02,	 1.7487123705291978e+00 
2.1186910000000001e+00,	 7.5159080000000000e-01,	 2.0732266975390958e-02,	 7.5898607562761902e+02,	 9.3655115239905371e+01,	 5.1512593615885430e+02,	 3.0724876578275366e+03,	 4.3553861119940160e+02,	 1.7558547383185403e+00 
2.1261600000000000e+00,	 7.5159180000000003e-01,	 2.0724779227103130e-02,	 7.6063685843195196e+02,	 9.4782492787864726e+01,	 5.1347313490262798e+02,	 3.0615233522545591e+03,	 4.3483932868909744e+02,	 1.7627648979672870e+00 