TITLE = "Final State"
VARIABLES = "X", "Y", "rho", "u", "v", "T", "p", "c", "M"
ZONE I=51, J=48, DATAPACKING=POINT
1.5288200000000001e+00,	 4.6940589999999999e-01,	 2.4868867839285332e-02,	 6.5116891683693211e+02,	 -4.1410526451793302e+01,	 5.9449336623879856e+02,	 4.2533680520085582e+03,	 4.6788967319470572e+02,	 1.3945260154206744e+00 
1.5362890000000000e+00,	 4.6940359999999998e-01,	 2.4970804172895732e-02,	 6.5017379257975188e+02,	 -3.8797669643554379e+01,	 5.9537314196382442e+02,	 4.2771226626710159e+03,	 4.6823575426074956e+02,	 1.3910307791645009e+00 
1.5437570000000000e+00,	 4.6940120000000002e-01,	 2.5086800038808942e-02,	 6.4887805319582299e+02,	 -3.6146775364051393e+01,	 5.9636525870956257e+02,	 4.3041514190273301e+03,	 4.6862572076612059e+02,	 1.3867870479300584e+00 
1.5512260000000000e+00,	 4.6939880000000000e-01,	 2.5189227087508426e-02,	 6.4777507543644219e+02,	 -3.3657084194126135e+01,	 5.9722405190879317e+02,	 4.3279483461870350e+03,	 4.6896302059437903e+02,	 1.3831556746916804e+00 
1.5586949999999999e+00,	 4.6939639999999999e-01,	 2.5278992672432395e-02,	 6.4686941148406572e+02,	 -3.1295652026770263e+01,	 5.9795996048230086e+02,	 4.3487236072816877e+03,	 4.6925186333121093e+02,	 1.3801245431247862e+00 
1.5661630000000000e+00,	 4.6939389999999998e-01,	 2.5359893747092275e-02,	 6.4609558291387918e+02,	 -2.9092224640529391e+01,	 5.9861401216925037e+02,	 4.3674128295001046e+03,	 4.6950842824580980e+02,	 1.3775050476820905e+00 
1.5736310000000000e+00,	 4.6939130000000001e-01,	 2.5432356112813928e-02,	 6.4540272070366655e+02,	 -2.7067087649770436e+01,	 5.9919688318448095e+02,	 4.3841568085965609e+03,	 4.6973695302524879e+02,	 1.3751740009127487e+00 
1.5810999999999999e+00,	 4.6938879999999999e-01,	 2.5493153438339942e-02,	 6.4478754990269863e+02,	 -2.5212607571407933e+01,	 5.9969163235914698e+02,	 4.3982659514481666e+03,	 4.6993084089691860e+02,	 1.3731388527803954e+00 
1.5885680000000000e+00,	 4.6938619999999998e-01,	 2.5540956229838492e-02,	 6.4426176585763187e+02,	 -2.3510106598163304e+01,	 6.0008972708422789e+02,	 4.4094384260935767e+03,	 4.7008679267461639e+02,	 1.3714288366311203e+00 
1.5960369999999999e+00,	 4.6938350000000001e-01,	 2.5577358662704386e-02,	 6.4383274755677121e+02,	 -2.1930843652139018e+01,	 6.0039711761365334e+02,	 4.4179849242805376e+03,	 4.7020717611192561e+02,	 1.3700474740356108e+00 
1.6035050000000000e+00,	 4.6938079999999999e-01,	 2.5604043444115855e-02,	 6.4351291449245480e+02,	 -2.0449312820588215e+01,	 6.0062320743693761e+02,	 4.4242595983036636e+03,	 4.7029570006381948e+02,	 1.3690062395406100e+00 
1.6109730000000000e+00,	 4.6937820000000002e-01,	 2.5622038407907985e-02,	 6.4330719182595794e+02,	 -1.9053108191750070e+01,	 6.0077327290374456e+02,	 4.4284752207102301e+03,	 4.7035444799026601e+02,	 1.3683069965921293e+00 
1.6184410000000000e+00,	 4.6937540000000000e-01,	 2.5631961577930851e-02,	 6.4320948404538956e+02,	 -1.7737745236354204e+01,	 6.0085096784186135e+02,	 4.4307632606212874e+03,	 4.7038486127589039e+02,	 1.3679309579177195e+00 
1.6259090000000000e+00,	 4.6937269999999998e-01,	 2.5635440826663754e-02,	 6.4320222056705234e+02,	 -1.6502259006132959e+01,	 6.0087118834553644e+02,	 4.4315138157983529e+03,	 4.7039277616602482e+02,	 1.3678226212058910e+00 
1.6333780000000000e+00,	 4.6936990000000001e-01,	 2.5634130914604914e-02,	 6.4330740156502657e+02,	 -1.5353638479110137e+01,	 6.0083988610635174e+02,	 4.4310565287921190e+03,	 4.7038052350751309e+02,	 1.3680213440556961e+00 
1.6408460000000000e+00,	 4.6936719999999998e-01,	 2.5630308199783743e-02,	 6.4353051295142518e+02,	 -1.4246750249546551e+01,	 6.0078911931296602e+02,	 4.4300214055168872e+03,	 4.7036065114564059e+02,	 1.3684992406408818e+00 
1.6483140000000001e+00,	 4.6936440000000001e-01,	 2.5626677379361647e-02,	 6.4383718375941578e+02,	 -1.3165100616006630e+01,	 6.0073793260872230e+02,	 4.4290164628755410e+03,	 4.7034061356206598e+02,	 1.3691604557917147e+00 
1.6557820000000001e+00,	 4.6936149999999999e-01,	 2.5621339827354695e-02,	 6.4417692271489773e+02,	 -1.2120566416376477e+01,	 6.0065505727968275e+02,	 4.4274831009553109e+03,	 4.7030816931686871e+02,	 1.3699335508915587e+00 
1.6632499999999999e+00,	 4.6935870000000002e-01,	 2.5611176832742919e-02,	 6.4454945670775055e+02,	 -1.1109960566071626e+01,	 6.0051899148617667e+02,	 4.4247243341244430e+03,	 4.7025489707854751e+02,	 1.3708420765075520e+00 
1.6707179999999999e+00,	 4.6935589999999999e-01,	 2.5593334931654388e-02,	 6.4492527230040525e+02,	 -1.0139880153216033e+01,	 6.0032533196800227e+02,	 4.4202159499009713e+03,	 4.7017906543839115e+02,	 1.3718283676471879e+00 
1.6781860000000000e+00,	 4.6935300000000002e-01,	 2.5567658226348298e-02,	 6.4531586251504655e+02,	 -9.2224167141569637e+00,	 6.0007422644857184e+02,	 4.4139342914769359e+03,	 4.7008072133992579e+02,	 1.3729168845168416e+00 
1.6856540000000000e+00,	 4.6935020000000000e-01,	 2.5536061489016930e-02,	 6.4572995654032343e+02,	 -8.3566119585004479e+00,	 5.9978082930767278e+02,	 4.4063240537640550e+03,	 4.6996578788987284e+02,	 1.3741085921617753e+00 
1.6931220000000000e+00,	 4.6934730000000002e-01,	 2.5501297415642391e-02,	 6.4618082231142967e+02,	 -7.5176604430011178e+00,	 5.9946228422920558e+02,	 4.3979883848797754e+03,	 4.6984097132025579e+02,	 1.3754112358583335e+00 
1.7005900000000000e+00,	 4.6934439999999999e-01,	 2.5465972256165179e-02,	 6.4667429552789736e+02,	 -6.6920862643695820e+00,	 5.9912363534701353e+02,	 4.3894150851718105e+03,	 4.6970824103714358e+02,	 1.3768311145295649e+00 
1.7080580000000001e+00,	 4.6934150000000002e-01,	 2.5430903265016496e-02,	 6.4721296857307345e+02,	 -5.8822164378778083e+00,	 5.9876429396456126e+02,	 4.3807414053231460e+03,	 4.6956735949383193e+02,	 1.3783745511569765e+00 
1.7155260000000001e+00,	 4.6933849999999999e-01,	 2.5395349432459854e-02,	 6.4780085095945878e+02,	 -5.0989948478977780e+00,	 5.9839211448847982e+02,	 4.3718977113489618e+03,	 4.6942140013940542e+02,	 1.3800412979850072e+00 
1.7229939999999999e+00,	 4.6933560000000002e-01,	 2.5359227713908299e-02,	 6.4843406353581872e+02,	 -4.3384359864718691e+00,	 5.9801419016761258e+02,	 4.3629220158175494e+03,	 4.6927314134782171e+02,	 1.3818148103638430e+00 
1.7304619999999999e+00,	 4.6933269999999999e-01,	 2.5322188469479139e-02,	 6.4910298010892120e+02,	 -3.5911503029467142e+00,	 5.9763011868647777e+02,	 4.3537516370695585e+03,	 4.6912242303597441e+02,	 1.3836748834528456e+00 
1.7379300000000000e+00,	 4.6932970000000002e-01,	 2.5283402341888465e-02,	 6.4979104768093771e+02,	 -2.8501308710207089e+00,	 5.9723641201208784e+02,	 4.3442192024471033e+03,	 4.6896787338067179e+02,	 1.3855902188496891e+00 
1.7453980000000000e+00,	 4.6932679999999999e-01,	 2.5241962203952306e-02,	 6.5048111395231967e+02,	 -2.1166003660797763e+00,	 5.9682872325665915e+02,	 4.3341383029901663e+03,	 4.6880778135997622e+02,	 1.3875293529875952e+00 
1.7528660000000000e+00,	 4.6932380000000001e-01,	 2.5197417066617912e-02,	 6.5116266051662217e+02,	 -1.3972257029719031e+00,	 5.9640312215987194e+02,	 4.3234044998943627e+03,	 4.6864059713995510e+02,	 1.3894745003534206e+00 
1.7603340000000001e+00,	 4.6932089999999999e-01,	 2.5149999028965107e-02,	 6.5183585368244530e+02,	 -6.9859938895182316e-01,	 5.9595819394989769e+02,	 4.3120491800415448e+03,	 4.6846575707192562e+02,	 1.3914276939160752e+00 
1.7678020000000001e+00,	 4.6931790000000001e-01,	 2.5100445588931364e-02,	 6.5250862247901830e+02,	 -2.1747555353342746e-02,	 5.9549589803017523e+02,	 4.3002147348517656e+03,	 4.6828402299574907e+02,	 1.3934035559597884e+00 
1.7752699999999999e+00,	 4.6931499999999998e-01,	 2.5049547314432229e-02,	 6.5319116047203499e+02,	 6.3642968628288199e-01,	 5.9502269754145664e+02,	 4.2880846675474259e+03,	 4.6809792913021761e+02,	 1.3954162790996176e+00 
1.7827379999999999e+00,	 4.6931200000000001e-01,	 2.4997689036953128e-02,	 6.5389218762534074e+02,	 1.2813041085196100e+00,	 5.9454158646870223e+02,	 4.2757473615981344e+03,	 4.6790864841916294e+02,	 1.3974809937652246e+00 
1.7902060000000000e+00,	 4.6930899999999998e-01,	 2.4944706754002715e-02,	 6.5460890756393871e+02,	 1.9165705403932560e+00,	 5.9404844679789971e+02,	 4.2631459882136369e+03,	 4.6771455587004994e+02,	 1.3995966236660198e+00 
1.7976740000000000e+00,	 4.6930600000000000e-01,	 2.4890244630092161e-02,	 6.5533174592838327e+02,	 2.5456939892620216e+00,	 5.9353592696008411e+02,	 4.2501681710823850e+03,	 4.6751275017938616e+02,	 1.4017514819536661e+00 
1.8051420000000000e+00,	 4.6930300000000003e-01,	 2.4834528840891941e-02,	 6.5606217712654097e+02,	 3.1746784250819293e+00,	 5.9300557623208556e+02,	 4.2368651312691009e+03,	 4.6730383179000785e+02,	 1.4039470973035764e+00 
1.8126100000000001e+00,	 4.6929999999999999e-01,	 2.4778072466549797e-02,	 6.5681637951268112e+02,	 3.8064189196334492e+00,	 5.9247322270848531e+02,	 4.2234385829579260e+03,	 4.6709403047599704e+02,	 1.4061995361755124e+00 
1.8200769999999999e+00,	 4.6929700000000002e-01,	 2.4721609934065789e-02,	 6.5760692958008826e+02,	 4.4426501083143526e+00,	 5.9195261704015059e+02,	 4.2101118326592095e+03,	 4.6688876783054781e+02,	 1.4085195050974202e+00 
1.8275450000000000e+00,	 4.6929399999999999e-01,	 2.4665895314658397e-02,	 6.5843245842761939e+02,	 5.0829369340359420e+00,	 5.9144523370268962e+02,	 4.1970230824412274e+03,	 4.6668863157114941e+02,	 1.4109023299565298e+00 
1.8350130000000000e+00,	 4.6929100000000001e-01,	 2.4610615199237462e-02,	 6.5928065847186531e+02,	 5.7174062069671470e+00,	 5.9094548640181142e+02,	 4.1840785327266931e+03,	 4.6649142339512076e+02,	 1.4133281259916741e+00 
1.8424810000000000e+00,	 4.6928799999999998e-01,	 2.4554792701535877e-02,	 6.6013286001768574e+02,	 6.3371509260873236e+00,	 5.9044479990197829e+02,	 4.1710511109170502e+03,	 4.6629376095645193e+02,	 1.4157669098756986e+00 
1.8499490000000001e+00,	 4.6928500000000001e-01,	 2.4497533827809868e-02,	 6.6097416461654961e+02,	 6.9392895875897640e+00,	 5.8993522534638669e+02,	 4.1577333437569259e+03,	 4.6609250359510537e+02,	 1.4181961410124031e+00 
1.8574170000000001e+00,	 4.6928199999999998e-01,	 2.4438400121704024e-02,	 6.6179733419361014e+02,	 7.5249476298393212e+00,	 5.8941232805496247e+02,	 4.1440207733799425e+03,	 4.6588589401579964e+02,	 1.4206056083964975e+00 
1.8648849999999999e+00,	 4.6927890000000000e-01,	 2.4377471674219952e-02,	 6.6260507832485018e+02,	 8.0949998011676136e+00,	 5.8887589605892117e+02,	 4.1299270079488997e+03,	 4.6567384128374937e+02,	 1.4230013922958256e+00 
1.8723529999999999e+00,	 4.6927590000000002e-01,	 2.4315210962509645e-02,	 6.6340667279521870e+02,	 8.6505365371685272e+00,	 5.8832903630500664e+02,	 4.1155536019718602e+03,	 4.6545756699442848e+02,	 1.4253996864045231e+00 
1.8798210000000000e+00,	 4.6927289999999999e-01,	 2.4252317842280793e-02,	 6.6421607220563089e+02,	 9.1965763396183320e+00,	 5.8777717835320595e+02,	 4.1010579721517861e+03,	 4.6523921407646128e+02,	 1.4278240437401244e+00 
1.8872880000000001e+00,	 4.6926990000000002e-01,	 2.4189675697190688e-02,	 6.6504839553747013e+02,	 9.7422003624440450e+00,	 5.8722754862224519e+02,	 4.0866402195129886e+03,	 4.6502164088732093e+02,	 1.4302984835324999e+00 
1.8947560000000001e+00,	 4.6926679999999998e-01,	 2.4128117839466869e-02,	 6.6591355581591210e+02,	 1.0297265182134764e+01,	 5.8668726432125686e+02,	 4.0724901584321819e+03,	 4.6480766786339234e+02,	 1.4328360143236212e+00 
1.9022239999999999e+00,	 4.6926380000000001e-01,	 2.4080423388186969e-02,	 6.6657246653218670e+02,	 1.0817511122224037e+01,	 5.8627304208398527e+02,	 4.0615703591739925e+03,	 4.6464355345379562e+02,	 1.4347777605245169e+00 
1.5288120000000001e+00,	 4.7515259999999998e-01,	 2.4756143232353027e-02,	 6.5372015410883864e+02,	 -4.3123739758150606e+01,	 5.9239609308387276e+02,	 4.2191513996697768e+03,	 4.6706362576027419e+02,	 1.4026803600916227e+00 
1.5362800000000001e+00,	 4.7515049999999998e-01,	 2.4865889128178380e-02,	 6.5264152467059284e+02,	 -4.0380401779838095e+01,	 5.9334879918239551e+02,	 4.2446706477758444e+03,	 4.6743904653774376e+02,	 1.3988766010671967e+00 
1.5437490000000000e+00,	 4.7514830000000002e-01,	 2.4991112766983983e-02,	 6.5123619832715463e+02,	 -3.7550804613866092e+01,	 5.9443470394747567e+02,	 4.2738540571708909e+03,	 4.6786658785935072e+02,	 1.3942391308533302e+00 
1.5512180000000000e+00,	 4.7514600000000001e-01,	 2.5099966371683227e-02,	 6.5005225450915930e+02,	 -3.4876803071624160e+01,	 5.9536084753944147e+02,	 4.2991574227657047e+03,	 4.6823091971381797e+02,	 1.3903122695115262e+00 
1.5586860000000000e+00,	 4.7514370000000000e-01,	 2.5196105335249141e-02,	 6.4905138653637368e+02,	 -3.2356985282116021e+01,	 5.9616683746228762e+02,	 4.3214666617642424e+03,	 4.6854775425615793e+02,	 1.3869609281026458e+00 
1.5661550000000000e+00,	 4.7514129999999999e-01,	 2.5283891686397643e-02,	 6.4816377555108079e+02,	 -3.0035785206212342e+01,	 5.9689923268436223e+02,	 4.3418506365013891e+03,	 4.6883547305010825e+02,	 1.3839808758344228e+00 
1.5736230000000000e+00,	 4.7513889999999998e-01,	 2.5362117564880222e-02,	 6.4736476492328825e+02,	 -2.7909600235750279e+01,	 5.9755475202608227e+02,	 4.3600669024545887e+03,	 4.6909284177493106e+02,	 1.3813174197264113e+00 
1.5810919999999999e+00,	 4.7513650000000002e-01,	 2.5428194749864290e-02,	 6.4665796215827686e+02,	 -2.5951403308479435e+01,	 5.9811022310109513e+02,	 4.3754899636143145e+03,	 4.6931081927254399e+02,	 1.3789975884714591e+00 
1.5885600000000000e+00,	 4.7513400000000000e-01,	 2.5482058667712998e-02,	 6.4605341989090471e+02,	 -2.4138451909282828e+01,	 5.9856058861858037e+02,	 4.3880600950529697e+03,	 4.6948747704315434e+02,	 1.3770424898217488e+00 
1.5960289999999999e+00,	 4.7513149999999998e-01,	 2.5525125113200785e-02,	 6.4556155910607913e+02,	 -2.2449656175023222e+01,	 5.9891730902270933e+02,	 4.3980957652071465e+03,	 4.6962735496093802e+02,	 1.3754560549642159e+00 
1.6034970000000000e+00,	 4.7512900000000002e-01,	 2.5558875313548300e-02,	 6.4519002327855139e+02,	 -2.0866081236751370e+01,	 5.9919080803013685e+02,	 4.4059221501717702e+03,	 4.6973457172804558e+02,	 1.3742385354716642e+00 
1.6109650000000000e+00,	 4.7512640000000000e-01,	 2.5583864019642268e-02,	 6.4493818532009584e+02,	 -1.9378080881321132e+01,	 5.9938268318454823e+02,	 4.4116420452133107e+03,	 4.6980977580156923e+02,	 1.3733840243779520e+00 
1.6184330000000000e+00,	 4.7512389999999999e-01,	 2.5600423356455286e-02,	 6.4479649209781030e+02,	 -1.7979301035493020e+01,	 5.9949402971200277e+02,	 4.4153175870663063e+03,	 4.6985341174511967e+02,	 1.3728688391641761e+00 
1.6259020000000000e+00,	 4.7512120000000002e-01,	 2.5610620036121474e-02,	 6.4474954733247432e+02,	 -1.6659783603450400e+01,	 5.9954452984025920e+02,	 4.4174482987142937e+03,	 4.6987320106470241e+02,	 1.3726357394365802e+00 
1.6333700000000000e+00,	 4.7511860000000000e-01,	 2.5616504197865656e-02,	 6.4481193354499499e+02,	 -1.5423793971805770e+01,	 5.9955207771427467e+02,	 4.4185188540339859e+03,	 4.6987615875373655e+02,	 1.3726944056230028e+00 
1.6408380000000000e+00,	 4.7511599999999998e-01,	 2.5619536558592129e-02,	 6.4499932532557466e+02,	 -1.4260368629770461e+01,	 5.9953180104090086e+02,	 4.4188924467322086e+03,	 4.6986821315042101e+02,	 1.3730593603118806e+00 
1.6483060000000000e+00,	 4.7511330000000002e-01,	 2.5619757301374231e-02,	 6.4528439137151656e+02,	 -1.3138720338868474e+01,	 5.9950272424670663e+02,	 4.4187162062884181e+03,	 4.6985681890330636e+02,	 1.3736485481336274e+00 
1.6557740000000001e+00,	 4.7511059999999999e-01,	 2.5616511427620170e-02,	 6.4560023172550268e+02,	 -1.2053454218532266e+01,	 5.9944393009220516e+02,	 4.4177230853355186e+03,	 4.6983377854783959e+02,	 1.3743429513019361e+00 
1.6632430000000000e+00,	 4.7510790000000003e-01,	 2.5606191050329970e-02,	 6.4594304999244480e+02,	 -1.1016753634977142e+01,	 5.9931932551287559e+02,	 4.4150253449035308e+03,	 4.6978494455351625e+02,	 1.3751760197516241e+00 
1.6707110000000001e+00,	 4.7510520000000001e-01,	 2.5587707202623225e-02,	 6.4628957317023082e+02,	 -1.0029720804003727e+01,	 5.9912870986718383e+02,	 4.4104351547347278e+03,	 4.6971023022498031e+02,	 1.3760981816994817e+00 
1.6781790000000001e+00,	 4.7510249999999998e-01,	 2.5561988067451007e-02,	 6.4664817669748413e+02,	 -9.0912924297744748e+00,	 5.9887575226854324e+02,	 4.4041418117410676e+03,	 4.6961106178757552e+02,	 1.3771227593749278e+00 
1.6856469999999999e+00,	 4.7509980000000002e-01,	 2.5531701206374262e-02,	 6.4703952033355347e+02,	 -8.1875933411573385e+00,	 5.9858510276430479e+02,	 4.3967887006412402e+03,	 4.6949709091250202e+02,	 1.3782648144258123e+00 
1.6931149999999999e+00,	 4.7509699999999999e-01,	 2.5499251118844924e-02,	 6.4747718126266443e+02,	 -7.3072043372863824e+00,	 5.9827550322204843e+02,	 4.3889292915633687e+03,	 4.6937565881883864e+02,	 1.3795313009504064e+00 
1.7005830000000000e+00,	 4.7509430000000002e-01,	 2.5465641871232680e-02,	 6.4796300433233444e+02,	 -6.4462842074999118e+00,	 5.9795470177326479e+02,	 4.3807941833204777e+03,	 4.6924979992847295e+02,	 1.3809170918935436e+00 
1.7080510000000000e+00,	 4.7509150000000000e-01,	 2.5430890906526282e-02,	 6.4849191906385568e+02,	 -5.6031015064068779e+00,	 5.9762284159032299e+02,	 4.3723880682989457e+03,	 4.6911956687188029e+02,	 1.3824111599145299e+00 
1.7155190000000000e+00,	 4.7508869999999997e-01,	 2.5395206593566307e-02,	 6.4906432241218204e+02,	 -4.7849672594701653e+00,	 5.9728148780197387e+02,	 4.3637588448273027e+03,	 4.6898557047519830e+02,	 1.3840126448753063e+00 
1.7229870000000000e+00,	 4.7508590000000001e-01,	 2.5358936017489689e-02,	 6.4968169885764553e+02,	 -3.9906176401413109e+00,	 5.9693501042392006e+02,	 4.3549985681347098e+03,	 4.6884952368142558e+02,	 1.3857195580892279e+00 
1.7304550000000001e+00,	 4.7508309999999998e-01,	 2.5321800132123665e-02,	 6.5033593385617974e+02,	 -3.2133833495369295e+00,	 5.9658208843847615e+02,	 4.3460500568583093e+03,	 4.6871090576979952e+02,	 1.3875159819137708e+00 
1.7379230000000001e+00,	 4.7508030000000001e-01,	 2.5283009587380428e-02,	 6.5100947683972981e+02,	 -2.4470642102849505e+00,	 5.9621619496181438e+02,	 4.3367309094577749e+03,	 4.6856714972187308e+02,	 1.3893719957021273e+00 
1.7453909999999999e+00,	 4.7507749999999999e-01,	 2.5241644290124803e-02,	 6.5168369916902202e+02,	 -1.6914744337742742e+00,	 5.9582998207110904e+02,	 4.3268310022241440e+03,	 4.6841536250881973e+02,	 1.3912564498824391e+00 
1.7528589999999999e+00,	 4.7507470000000002e-01,	 2.5197186929270809e-02,	 6.5234749709839571e+02,	 -9.5143785853114804e-01,	 5.9541945297307598e+02,	 4.3162343307424999e+03,	 4.6825396473007942e+02,	 1.3931503843264375e+00 
1.7603270000000000e+00,	 4.7507179999999999e-01,	 2.5149816306361740e-02,	 6.5300349301930237e+02,	 -2.3288061036078953e-01,	 5.9498640143514967e+02,	 4.3049865083270415e+03,	 4.6808365203509720e+02,	 1.3950573400851007e+00 
1.7677950000000000e+00,	 4.7506900000000002e-01,	 2.5100273116415644e-02,	 6.5366407192133909e+02,	 4.6255362304731945e-01,	 5.9453687180327483e+02,	 4.2932598823964781e+03,	 4.6790679317711471e+02,	 1.3969966777822898e+00 
1.7752630000000000e+00,	 4.7506619999999999e-01,	 2.5049341285178904e-02,	 6.5434171798919249e+02,	 1.1378117459062014e+00,	 5.9407806093224031e+02,	 4.2812418457889517e+03,	 4.6772621383258411e+02,	 1.3989866034599125e+00 
1.7827310000000001e+00,	 4.7506330000000002e-01,	 2.4997445750486257e-02,	 6.5504220651464539e+02,	 1.7968367948876427e+00,	 5.9361242635865938e+02,	 4.2690235999026227e+03,	 4.6754287749794162e+02,	 1.4010365732742764e+00 
1.7901990000000001e+00,	 4.7506050000000000e-01,	 2.4944445912284900e-02,	 6.5576107395086308e+02,	 2.4424325524000388e+00,	 5.9313587919067936e+02,	 4.2565525019924835e+03,	 4.6735517003175988e+02,	 1.4031419025587442e+00 
1.7976669999999999e+00,	 4.7505760000000002e-01,	 2.4890003454999740e-02,	 6.5648975858122594e+02,	 3.0792750258080481e+00,	 5.9264302732155863e+02,	 4.2437332110640527e+03,	 4.6716096095988109e+02,	 1.4052907564993489e+00 
1.8051349999999999e+00,	 4.7505480000000000e-01,	 2.4834311372504039e-02,	 6.5722912322834986e+02,	 3.7154967618546229e+00,	 5.9213492208298760e+02,	 4.2306074953994803e+03,	 4.6696065671322270e+02,	 1.4074839412219655e+00 
1.8126030000000000e+00,	 4.7505190000000003e-01,	 2.4778303080393409e-02,	 6.5799172448642867e+02,	 4.3581602681359106e+00,	 5.9162081203126161e+02,	 4.2174014349329764e+03,	 4.6675789777269711e+02,	 1.4097375972567916e+00 
1.8200710000000000e+00,	 4.7504910000000000e-01,	 2.4722800384903439e-02,	 6.5878974598313562e+02,	 5.0087021728332148e+00,	 5.9111095745969737e+02,	 4.2043281903773795e+03,	 4.6655673011823814e+02,	 1.4120657649337149e+00 
1.8275390000000000e+00,	 4.7504619999999997e-01,	 2.4667800986091851e-02,	 6.5961984740190655e+02,	 5.6638795494023340e+00,	 5.9060795987350730e+02,	 4.1914054068739852e+03,	 4.6635818291562151e+02,	 1.4144582164533650e+00 
1.8350070000000001e+00,	 4.7504330000000000e-01,	 2.4612684422057017e-02,	 6.6046717632591026e+02,	 6.3123979366828564e+00,	 5.9010720340941396e+02,	 4.1784945193156464e+03,	 4.6616043634557553e+02,	 1.4168884560536874e+00 
1.8424750000000001e+00,	 4.7504039999999997e-01,	 2.4556656174373373e-02,	 6.6131499263221610e+02,	 6.9443542157348785e+00,	 5.8960244372556599e+02,	 4.1654165853613395e+03,	 4.6596102399173748e+02,	 1.4193278371055644e+00 
1.8499429999999999e+00,	 4.7503750000000000e-01,	 2.4499106166067281e-02,	 6.6215159270629692e+02,	 7.5562967183594951e+00,	 5.8908842470870172e+02,	 4.1520317546064425e+03,	 4.6575786586802781e+02,	 1.4217574303039024e+00 
1.8574100000000000e+00,	 4.7503469999999998e-01,	 2.4439731286512018e-02,	 6.6297147513113100e+02,	 8.1500082275030685e+00,	 5.8856179046841817e+02,	 4.1382662417011952e+03,	 4.6554962982575285e+02,	 1.4241694663710711e+00 
1.8648780000000000e+00,	 4.7503180000000000e-01,	 2.4378624572972393e-02,	 6.6377706440111433e+02,	 8.7284120409315911e+00,	 5.8802224325269128e+02,	 4.1241351734005539e+03,	 4.6533619123364127e+02,	 1.4265695685185691e+00 
1.8723460000000001e+00,	 4.7502889999999998e-01,	 2.4316327942720137e-02,	 6.6457807781127565e+02,	 9.2944242070349414e+00,	 5.8747340753291837e+02,	 4.1097569828126570e+03,	 4.6511897772891109e+02,	 1.4289743051046080e+00 
1.8798140000000001e+00,	 4.7502600000000000e-01,	 2.4253692540938510e-02,	 6.6538962420196322e+02,	 9.8532535817775297e+00,	 5.8692199791591815e+02,	 4.0953233023152870e+03,	 4.6490064334640925e+02,	 1.4314081609284597e+00 
1.8872819999999999e+00,	 4.7502309999999998e-01,	 2.4191604492264405e-02,	 6.6622766405184666e+02,	 1.0412749002941331e+01,	 5.8637530073608764e+02,	 4.0810346275628585e+03,	 4.6468407361112486e+02,	 1.4338968549009985e+00 
1.8947499999999999e+00,	 4.7502020000000000e-01,	 2.4130449236397240e-02,	 6.6710257107310804e+02,	 1.0978905992067942e+01,	 5.8583622529451475e+02,	 4.0669756067911158e+03,	 4.6447042428819782e+02,	 1.4364594025336934e+00 
1.9022180000000000e+00,	 4.7501729999999998e-01,	 2.4082541906619740e-02,	 6.6776976152117368e+02,	 1.1503918501665162e+01,	 5.8541901346538975e+02,	 4.0560106406419350e+03,	 4.6430500513137230e+02,	 1.4384269778148091e+00 
1.5288040000000001e+00,	 4.8090010000000000e-01,	 2.4620812133997368e-02,	 6.5790919329165968e+02,	 -4.5279405008601948e+01,	 5.8959597022341381e+02,	 4.1762531703602117e+03,	 4.6595846599015238e+02,	 1.4152881363867353e+00 
1.5362720000000001e+00,	 4.8089810000000000e-01,	 2.4743050639553798e-02,	 6.5670647692257216e+02,	 -4.2353746594167333e+01,	 5.9064514391389855e+02,	 4.2044560698929981e+03,	 4.6637286338875521e+02,	 1.4110401706212987e+00 
1.5437410000000000e+00,	 4.8089609999999999e-01,	 2.4880026492790183e-02,	 6.5517246483253314e+02,	 -3.9289884965491325e+01,	 5.9182102551118999e+02,	 4.2361484029288467e+03,	 4.6683687007734358e+02,	 1.4059504135431984e+00 
1.5512100000000000e+00,	 4.8089389999999999e-01,	 2.4997993195439782e-02,	 6.5387700522245518e+02,	 -3.6376540630359088e+01,	 5.9281937321919474e+02,	 4.2634136451770810e+03,	 4.6723045961907178e+02,	 1.4016382310556568e+00 
1.5586789999999999e+00,	 4.8089179999999998e-01,	 2.5104383164193493e-02,	 6.5271992289927834e+02,	 -3.3683393730126525e+01,	 5.9371631034192694e+02,	 4.2880364876528993e+03,	 4.6758378642227353e+02,	 1.3977996546777176e+00 
1.5661470000000000e+00,	 4.8088959999999997e-01,	 2.5201572077235820e-02,	 6.5166430545125786e+02,	 -3.1229868477779611e+01,	 5.9453701569252439e+02,	 4.3105875404785711e+03,	 4.6790684979829030e+02,	 1.3943206749330948e+00 
1.5736159999999999e+00,	 4.8088730000000002e-01,	 2.5287249805444195e-02,	 6.5072178332827104e+02,	 -2.8974647043270409e+01,	 5.9525755874012157e+02,	 4.3304841683288669e+03,	 4.6819030140015070e+02,	 1.3912431293022087e+00 
1.5810839999999999e+00,	 4.8088500000000001e-01,	 2.5359962079185096e-02,	 6.4989766575324836e+02,	 -2.6884508171430333e+01,	 5.9586667388856199e+02,	 4.3473803075922206e+03,	 4.6842978503445647e+02,	 1.3885827044474270e+00 
1.5885530000000001e+00,	 4.8088259999999999e-01,	 2.5420385624273602e-02,	 6.4919676054772253e+02,	 -2.4941460883215107e+01,	 5.9637373338242787e+02,	 4.3614467970512333e+03,	 4.6862905046676360e+02,	 1.3863325281765979e+00 
1.5960209999999999e+00,	 4.8088029999999998e-01,	 2.5470426646902130e-02,	 6.4862590548777939e+02,	 -2.3126325400105042e+01,	 5.9678997821085363e+02,	 4.3730825820625987e+03,	 4.6879256403458805e+02,	 1.3844887935897014e+00 
1.6034889999999999e+00,	 4.8087790000000002e-01,	 2.5511383750491990e-02,	 6.4818583702807325e+02,	 -2.1425543079361699e+01,	 5.9712181650732111e+02,	 4.3825501247845677e+03,	 4.6892287931528080e+02,	 1.3830415952479544e+00 
1.6109579999999999e+00,	 4.8087540000000001e-01,	 2.5543470168725511e-02,	 6.4786986629761032e+02,	 -1.9829816071820272e+01,	 5.9736946708178039e+02,	 4.3898820939828811e+03,	 4.6902010987935921e+02,	 1.3819732976885284e+00 
1.6184259999999999e+00,	 4.8087299999999999e-01,	 2.5567031695755742e-02,	 6.4766480848531114e+02,	 -1.8333168329082000e+01,	 5.9753622941985157e+02,	 4.3951579756422352e+03,	 4.6908557140405878e+02,	 1.3812495428786233e+00 
1.6258940000000000e+00,	 4.8087049999999998e-01,	 2.5583880624433626e-02,	 6.4756677118510402e+02,	 -1.6916066718682799e+01,	 5.9764038118862504e+02,	 4.3988210182971043e+03,	 4.6912645090292364e+02,	 1.3808381029976360e+00 
1.6333629999999999e+00,	 4.8086800000000002e-01,	 2.5597177855067991e-02,	 6.4756876681373558e+02,	 -1.5571319427529097e+01,	 5.9771452884167707e+02,	 4.4016533406954004e+03,	 4.6915555163605001e+02,	 1.3806848283946154e+00 
1.6408309999999999e+00,	 4.8086550000000000e-01,	 2.5606526757229173e-02,	 6.4769553445522968e+02,	 -1.4311459870729719e+01,	 5.9775180146904938e+02,	 4.4035355453519533e+03,	 4.6917017934426997e+02,	 1.3808499697207910e+00 
1.6482990000000000e+00,	 4.8086299999999998e-01,	 2.5610631545136230e-02,	 6.4793072108084380e+02,	 -1.3125337832203618e+01,	 5.9775214612785817e+02,	 4.4042439821545122e+03,	 4.6917031460409805e+02,	 1.3812972162460864e+00 
1.6557670000000000e+00,	 4.8086040000000002e-01,	 2.5609006027992570e-02,	 6.4820014654873330e+02,	 -1.2003975936344505e+01,	 5.9770902202814796e+02,	 4.4036467243627067e+03,	 4.6915339043871830e+02,	 1.3818748849608975e+00 
1.6632350000000000e+00,	 4.8085790000000000e-01,	 2.5598630056742785e-02,	 6.4849483677412536e+02,	 -1.0937085830686996e+01,	 5.9758827466907724e+02,	 4.4009732530528772e+03,	 4.6910599957450842e+02,	 1.3826023534976266e+00 
1.6707040000000000e+00,	 4.8085529999999999e-01,	 2.5580015804004302e-02,	 6.4879884460632968e+02,	 -9.9289338727678498e+00,	 5.9739931039275109e+02,	 4.3963824230877362e+03,	 4.6903182535776057e+02,	 1.3834345114966458e+00 
1.6781720000000000e+00,	 4.8085270000000002e-01,	 2.5555134258936588e-02,	 6.4912482601674287e+02,	 -8.9665100721207018e+00,	 5.9715586348400848e+02,	 4.3903162529180536e+03,	 4.6893624775897564e+02,	 1.3843816817216927e+00 
1.6856400000000000e+00,	 4.8085010000000000e-01,	 2.5526924070756091e-02,	 6.4949783661235222e+02,	 -8.0266987538122123e+00,	 5.9688409052137854e+02,	 4.3834739230673813e+03,	 4.6882952629412301e+02,	 1.3854661375282271e+00 
1.6931080000000001e+00,	 4.8084749999999998e-01,	 2.5497197705896077e-02,	 6.4992718073951062e+02,	 -7.1035125403303976e+00,	 5.9660072143302693e+02,	 4.3762907038785461e+03,	 4.6871822531536617e+02,	 1.3866881297227101e+00 
1.7005760000000001e+00,	 4.8084480000000002e-01,	 2.5466311319880412e-02,	 6.5040499389182435e+02,	 -6.1984565151983171e+00,	 5.9630527781505521e+02,	 4.3688248582908227e+03,	 4.6860215358449972e+02,	 1.3880314555811442e+00 
1.7080439999999999e+00,	 4.8084220000000000e-01,	 2.5433988282725632e-02,	 6.5091898554505713e+02,	 -5.3126293728210463e+00,	 5.9599247442238607e+02,	 4.3609908985671609e+03,	 4.6847923032955390e+02,	 1.3894760390277576e+00 
1.7155119999999999e+00,	 4.8083949999999998e-01,	 2.5400422101055455e-02,	 6.5147184740593070e+02,	 -4.4509032659215002e+00,	 5.9566631131736347e+02,	 4.3528520883205811e+03,	 4.6835102271106859e+02,	 1.3910230149718166e+00 
1.7229800000000000e+00,	 4.8083690000000001e-01,	 2.5365954329601724e-02,	 6.5206996182842443e+02,	 -3.6128474713237333e+00,	 5.9533461876420824e+02,	 4.3445248054433223e+03,	 4.6822060558343287e+02,	 1.3926767908451239e+00 
1.7304480000000000e+00,	 4.8083419999999999e-01,	 2.5330399767283261e-02,	 6.5270648236255101e+02,	 -2.7959920694679856e+00,	 5.9499753423658046e+02,	 4.3359787722209976e+03,	 4.6808803117549655e+02,	 1.3944224749289722e+00 
1.7379160000000000e+00,	 4.8083150000000002e-01,	 2.5292943598709081e-02,	 6.5336281692102614e+02,	 -1.9975315312650750e+00,	 5.9464764272358627e+02,	 4.3270211168531132e+03,	 4.6795038008870040e+02,	 1.3962289555675991e+00 
1.7453840000000000e+00,	 4.8082880000000000e-01,	 2.5252583737786598e-02,	 6.5401806406290268e+02,	 -1.2165112370088873e+00,	 5.9427518134692423e+02,	 4.3174105717472812e+03,	 4.6780380526753032e+02,	 1.3980630086545673e+00 