TITLE = "Final State"
VARIABLES = "X", "Y", "rho", "u", "v", "T", "p", "c", "M"
ZONE I=51, J=48, DATAPACKING=POINT
7.7236760000000004e-01,	 4.5924910000000002e-01,	 1.8954161515152425e-02,	 6.9686692345509618e+02,	 1.9406294584107491e+02,	 5.3630906557651508e+02,	 2.9244867142688672e+03,	 4.4440355319409315e+02,	 1.6277630233509615e+00 
7.8044570000000002e-01,	 4.5992939999999999e-01,	 1.8638343066739463e-02,	 7.0289468059848264e+02,	 1.8926294299488234e+02,	 5.3290144121575349e+02,	 2.8574861465766253e+03,	 4.4298946787803430e+02,	 1.6432208392003913e+00 
7.8847500000000004e-01,	 4.6055810000000003e-01,	 1.8266603614574269e-02,	 7.1034106202914518e+02,	 1.8397757469986271e+02,	 5.2881947173595631e+02,	 2.7790424464594553e+03,	 4.4128957980990560e+02,	 1.6628069399431393e+00 
7.9645900000000003e-01,	 4.6113939999999998e-01,	 1.7942940338767487e-02,	 7.1709225327746617e+02,	 1.7744296317976429e+02,	 5.2507404855398158e+02,	 2.7104668785560316e+03,	 4.3972406143862565e+02,	 1.6799627534331858e+00 
8.0439830000000001e-01,	 4.6167629999999998e-01,	 1.7675986440863101e-02,	 7.2295900957688832e+02,	 1.6926376550054022e+02,	 5.2179589426316716e+02,	 2.6534704452690839e+03,	 4.3834926463719285e+02,	 1.6938758352552072e+00 
8.1230100000000005e-01,	 4.6217350000000001e-01,	 1.7690626559413059e-02,	 7.2415714005128143e+02,	 1.5611210284345344e+02,	 5.2161739666935341e+02,	 2.6547597201899921e+03,	 4.3827428227099711e+02,	 1.6902501953122600e+00 
8.2016820000000001e-01,	 4.6263399999999999e-01,	 1.8197128462009229e-02,	 7.1992234293332228e+02,	 1.3166089544022526e+02,	 5.2713054636065158e+02,	 2.7596307912952166e+03,	 4.4058432854390281e+02,	 1.6611179480087812e+00 
8.2800530000000006e-01,	 4.6306110000000000e-01,	 1.9189076976778262e-02,	 7.0892121090999694e+02,	 9.6549842154394838e+01,	 5.3909482575514289e+02,	 2.9761114174668446e+03,	 4.4555624510164540e+02,	 1.6057808617326250e+00 
8.3581580000000000e-01,	 4.6345779999999998e-01,	 2.0184837158744681e-02,	 6.9703815815209032e+02,	 6.1758941373998660e+01,	 5.5153710571697468e+02,	 3.2028007631065625e+03,	 4.5066862226487160e+02,	 1.5527346621411078e+00 
8.4360599999999997e-01,	 4.6382720000000000e-01,	 2.0781390137814056e-02,	 6.9038577198361747e+02,	 3.6539544700630216e+01,	 5.5863717424460390e+02,	 3.3399069333229754e+03,	 4.5356012851787858e+02,	 1.5242787080182720e+00 
8.5137640000000003e-01,	 4.6417170000000002e-01,	 2.0983867786788998e-02,	 6.8914037040062931e+02,	 2.0882307843541945e+01,	 5.6101341572715341e+02,	 3.3867935618680103e+03,	 4.5452374565906433e+02,	 1.5168771530174399e+00 
8.5912909999999998e-01,	 4.6449360000000001e-01,	 2.0966732833142640e-02,	 6.9080444234848994e+02,	 1.0137208557471611e+01,	 5.6090614473284245e+02,	 3.3833809248604684e+03,	 4.5448028899323492e+02,	 1.5201513339546244e+00 
8.6686529999999995e-01,	 4.6479510000000002e-01,	 2.0839090720938393e-02,	 6.9363881238293413e+02,	 1.1206111686629567e+00,	 5.5953232707379789e+02,	 3.3545470365845322e+03,	 4.5392337244132938e+02,	 1.5280987049771186e+00 
8.7458659999999999e-01,	 4.6507749999999998e-01,	 2.0680924803235943e-02,	 6.9655259557001614e+02,	 -7.0841576456021809e+00,	 5.5778835225626176e+02,	 3.3187102299729481e+03,	 4.5321541625814496e+02,	 1.5369923301344015e+00 
8.8229429999999998e-01,	 4.6534310000000001e-01,	 2.0524333479123944e-02,	 6.9919062177352976e+02,	 -1.4937385025861476e+01,	 5.5604631823311502e+02,	 3.2832954846282582e+03,	 4.5250714216730739e+02,	 1.5455008291147054e+00 
8.8998949999999999e-01,	 4.6559279999999997e-01,	 2.0369361834093255e-02,	 7.0162052576711108e+02,	 -2.2739668699300580e+01,	 5.5432772958563055e+02,	 3.2484333802935348e+03,	 4.5180731246159104e+02,	 1.5537352061531278e+00 
8.9767300000000005e-01,	 4.6582810000000002e-01,	 2.0221635903785715e-02,	 7.0381167291849158e+02,	 -3.0425096657324382e+01,	 5.5268374314621656e+02,	 3.2153104666935951e+03,	 4.5113684571097554e+02,	 1.5615416838443326e+00 
9.0534550000000003e-01,	 4.6604899999999999e-01,	 2.0080935351335309e-02,	 7.0578024760159860e+02,	 -3.7956264683650843e+01,	 5.5108737380798641e+02,	 3.1837161192684935e+03,	 4.5048484370157922e+02,	 1.5689765116140242e+00 
9.1300820000000005e-01,	 4.6625759999999999e-01,	 1.9946133646822132e-02,	 7.0757871098859880e+02,	 -4.5333137155754947e+01,	 5.4953485808466939e+02,	 3.1534351769240238e+03,	 4.4984984632585952e+02,	 1.5761468650667469e+00 
9.2066170000000003e-01,	 4.6645460000000000e-01,	 1.9816523679966634e-02,	 7.0922883797147279e+02,	 -5.2552133640370577e+01,	 5.4803232333042570e+02,	 3.1243780804417665e+03,	 4.4923443706500126e+02,	 1.5830780252949779e+00 
9.2830659999999998e-01,	 4.6664119999999998e-01,	 1.9691214163928238e-02,	 7.1074592949424800e+02,	 -5.9611515643178706e+01,	 5.4656643248818170e+02,	 3.0963167986623216e+03,	 4.4863322289249635e+02,	 1.5898096121981971e+00 
9.3594319999999998e-01,	 4.6681719999999999e-01,	 1.9570183150586597e-02,	 7.1214769033409982e+02,	 -6.6497340769233602e+01,	 5.4513382870812143e+02,	 3.0692195856606991e+03,	 4.4804488145827696e+02,	 1.5963703687665594e+00 
9.4357210000000002e-01,	 4.6698400000000001e-01,	 1.9453176232131265e-02,	 7.1345872471658663e+02,	 -7.3213300701418873e+01,	 5.4373487907009394e+02,	 3.0430399317854485e+03,	 4.4746961458353331e+02,	 1.6028023896981773e+00 
9.5119350000000003e-01,	 4.6714139999999998e-01,	 1.9339807346448069e-02,	 7.1468609886433569e+02,	 -7.9760541516600540e+01,	 5.4236658656006693e+02,	 3.0176926648677836e+03,	 4.4690623800015652e+02,	 1.6091139277909787e+00 
9.5880739999999998e-01,	 4.6728989999999998e-01,	 1.9229877773907465e-02,	 7.1583491224290844e+02,	 -8.6151778493859808e+01,	 5.4102634470113742e+02,	 2.9931251382544274e+03,	 4.4635372154367360e+02,	 1.6153119951151511e+00 
9.6641400000000000e-01,	 4.6742909999999999e-01,	 1.9123069301544865e-02,	 7.1690225980234845e+02,	 -9.2393278491085709e+01,	 5.3971035861765995e+02,	 2.9692604247276327e+03,	 4.4581053827724742e+02,	 1.6213871845880286e+00 
9.7401380000000004e-01,	 4.6756019999999998e-01,	 1.9019002677158160e-02,	 7.1788370517565409e+02,	 -9.8496234145799775e+01,	 5.3841409418806245e+02,	 2.9460091882688871e+03,	 4.4527484747470288e+02,	 1.6273302310149718e+00 
9.8160720000000001e-01,	 4.6768369999999998e-01,	 1.8918005409468988e-02,	 7.1879164409227019e+02,	 -1.0445143703066191e+02,	 5.3714144077050389e+02,	 2.9234383683929673e+03,	 4.4474828638944552e+02,	 1.6331511922022424e+00 
9.8919480000000004e-01,	 4.6780060000000001e-01,	 1.8820598824695625e-02,	 7.1964370276706472e+02,	 -1.1026080953653258e+02,	 5.3589939208335250e+02,	 2.9016607777762852e+03,	 4.4423378621749572e+02,	 1.6388702909803536e+00 
9.9677669999999996e-01,	 4.6791080000000002e-01,	 1.8726868816284326e-02,	 7.2045195056576017e+02,	 -1.1592326835131203e+02,	 5.3468999075878980e+02,	 2.8806942118624384e+03,	 4.4373223648991029e+02,	 1.6445020840983844e+00 
1.0043530000000001e+00,	 4.6801520000000002e-01,	 1.8636339355456923e-02,	 7.2121652034471799e+02,	 -1.2145269770160587e+02,	 5.3350780272310965e+02,	 2.8604299920497256e+03,	 4.4324142384421663e+02,	 1.6500518539910014e+00 
1.0119250000000000e+00,	 4.6811390000000003e-01,	 1.8548429541249155e-02,	 7.2193514819819802e+02,	 -1.2684858237798579e+02,	 5.3234559108548433e+02,	 2.8407351409732428e+03,	 4.4275837449210991e+02,	 1.6555180688422817e+00 
1.0194920000000001e+00,	 4.6820729999999999e-01,	 1.8462736466567615e-02,	 7.2260863194352191e+02,	 -1.3211706477327809e+02,	 5.3119921808839899e+02,	 2.8215219633354250e+03,	 4.4228139130588272e+02,	 1.6609042972944852e+00 
1.0270539999999999e+00,	 4.6829520000000002e-01,	 1.8379227186921428e-02,	 7.2324641116454359e+02,	 -1.3725346332061048e+02,	 5.3007062057276016e+02,	 2.8027923117034784e+03,	 4.4181130110732823e+02,	 1.6662199330034086e+00 
1.0346109999999999e+00,	 4.6837830000000003e-01,	 1.8297828789592636e-02,	 7.2385615650802265e+02,	 -1.4226291721609329e+02,	 5.2896203610541829e+02,	 2.7845434609269264e+03,	 4.4134905940030325e+02,	 1.6714740797041778e+00 
1.0421640000000001e+00,	 4.6845670000000000e-01,	 1.8218370527479849e-02,	 7.2444337410834601e+02,	 -1.4713922867068828e+02,	 5.2787326513199946e+02,	 2.7667450087775401e+03,	 4.4089460753358924e+02,	 1.6766701873527490e+00 
1.0497120000000000e+00,	 4.6853089999999997e-01,	 1.8140594671763426e-02,	 7.2501108858902535e+02,	 -1.5188666267413771e+02,	 5.2680082235263740e+02,	 2.7493365228948678e+03,	 4.4044651263108909e+02,	 1.6818161319468989e+00 
1.0572569999999999e+00,	 4.6860049999999998e-01,	 1.8064317581119430e-02,	 7.2556258292198868e+02,	 -1.5650159582611184e+02,	 5.2574089992727704e+02,	 2.7322677843322144e+03,	 4.4000320068801796e+02,	 1.6869176313961942e+00 
1.0647970000000000e+00,	 4.6866609999999997e-01,	 1.7989395775266578e-02,	 7.2610075320889541e+02,	 -1.6098851144101681e+02,	 5.2469094765830141e+02,	 2.7155017409216593e+03,	 4.3956361795367098e+02,	 1.6919816089709936e+00 
1.0723330000000000e+00,	 4.6872760000000002e-01,	 1.7915793542226978e-02,	 7.2663148668427380e+02,	 -1.6534379400558541e+02,	 5.2365130357634098e+02,	 2.6990328820613154e+03,	 4.3912791736157379e+02,	 1.6970133460998460e+00 
1.0798660000000000e+00,	 4.6878490000000000e-01,	 1.7843367031941698e-02,	 7.2715767025455307e+02,	 -1.6957376483762613e+02,	 5.2262171156026352e+02,	 2.6828364255405413e+03,	 4.3869600298280466e+02,	 1.7020175417474608e+00 
1.0873940000000000e+00,	 4.6883780000000003e-01,	 1.7771889946100648e-02,	 7.2767917748492914e+02,	 -1.7367708328049028e+02,	 5.2160028747382933e+02,	 2.6668671062498979e+03,	 4.3826709445294711e+02,	 1.7069912956665028e+00 
1.0949180000000001e+00,	 4.6888679999999999e-01,	 1.7701077413764529e-02,	 7.2819449684939605e+02,	 -1.7766361497231694e+02,	 5.2058384733557875e+02,	 2.6510647039790611e+03,	 4.3783986165520520e+02,	 1.7119369966151889e+00 
1.1024380000000000e+00,	 4.6893230000000002e-01,	 1.7630807604734924e-02,	 7.2870426881246078e+02,	 -1.8153459225605707e+02,	 5.1957086142910953e+02,	 2.6354023611204734e+03,	 4.3741366558531382e+02,	 1.7168550138010688e+00 
1.1099550000000000e+00,	 4.6897460000000002e-01,	 1.7561045931725368e-02,	 7.2921101491008221e+02,	 -1.8529782781343189e+02,	 5.1856102667890650e+02,	 2.6198727025236767e+03,	 4.3698838157666904e+02,	 1.7217517994751939e+00 
1.1174690000000000e+00,	 4.6901379999999998e-01,	 1.7491969383793833e-02,	 7.2972142419351144e+02,	 -1.8894986909177470e+02,	 5.1755650586667537e+02,	 2.6045123325385916e+03,	 4.3656492446145523e+02,	 1.7266329357172583e+00 
1.1249800000000001e+00,	 4.6905019999999997e-01,	 1.7423694169618059e-02,	 7.3024088324216586e+02,	 -1.9249446952871375e+02,	 5.1655921107977179e+02,	 2.5893471948385727e+03,	 4.3614410677372462e+02,	 1.7315056443478358e+00 
1.1324890000000001e+00,	 4.6908400000000000e-01,	 1.7356166919721042e-02,	 7.3076999100878288e+02,	 -1.9592974718933655e+02,	 5.1556884619324751e+02,	 2.5743667791707026e+03,	 4.3572581102792321e+02,	 1.7363671081090313e+00 
1.1399940000000000e+00,	 4.6911540000000002e-01,	 1.7289154120021598e-02,	 7.3130651112198802e+02,	 -1.9926310144372979e+02,	 5.1458298815795411e+02,	 2.5595234200412442e+03,	 4.3530901961194598e+02,	 1.7412174826519966e+00 
1.1474970000000000e+00,	 4.6914430000000001e-01,	 1.7222733941454564e-02,	 7.3184684636973077e+02,	 -2.0249033230648325e+02,	 5.1360363004368799e+02,	 2.5448378449721367e+03,	 4.3489458066904575e+02,	 1.7460397621211390e+00 
1.1549980000000000e+00,	 4.6917110000000001e-01,	 1.7166216632949000e-02,	 7.3221044102451140e+02,	 -2.0533315608551825e+02,	 5.1275584960944298e+02,	 2.5322999706006685e+03,	 4.3453550280497780e+02,	 1.7500441930336395e+00 
7.7232270000000003e-01,	 4.6492060000000002e-01,	 1.9139682547631522e-02,	 6.9383550929288140e+02,	 1.9693528995313528e+02,	 5.3794794466579731e+02,	 2.9621354949226511e+03,	 4.4508205014120909e+02,	 1.6204716221304838e+00 
7.8039979999999998e-01,	 4.6560319999999999e-01,	 1.8834461136946819e-02,	 6.9963535924380574e+02,	 1.9188552385427181e+02,	 5.3465946148112653e+02,	 2.8970793692878551e+03,	 4.4371956838477752e+02,	 1.6349787075721205e+00 
7.8842860000000003e-01,	 4.6623399999999998e-01,	 1.8494894607231912e-02,	 7.0656553389635224e+02,	 1.8545540156518481e+02,	 5.3091899485887075e+02,	 2.8249454230610859e+03,	 4.4216471768787221e+02,	 1.6520966368466197e+00 
7.9641240000000002e-01,	 4.6681750000000000e-01,	 1.8231714461010788e-02,	 7.1264299161794668e+02,	 1.7768927562937250e+02,	 5.2799793990528019e+02,	 2.7694254313434412e+03,	 4.4094667039942675e+02,	 1.6656467206916981e+00 
8.0435179999999995e-01,	 4.6735660000000001e-01,	 1.8196680844157039e-02,	 7.1560447215372915e+02,	 1.6513545341368973e+02,	 5.2784753444758246e+02,	 2.7633163887155897e+03,	 4.4088386190674584e+02,	 1.6657696897630119e+00 
8.1225490000000000e-01,	 4.6785599999999999e-01,	 1.8630055774057547e-02,	 7.1246901314187983e+02,	 1.4166153873627476e+02,	 5.3353771410088302e+02,	 2.8596258633004727e+03,	 4.4325384894445170e+02,	 1.6388259683488560e+00 
8.2012260000000003e-01,	 4.6831850000000003e-01,	 1.9576479474371751e-02,	 7.0327167270047175e+02,	 1.0782388545159141e+02,	 5.4510858191931493e+02,	 3.0700648565202332e+03,	 4.4803450618446800e+02,	 1.5880234636601112e+00 
8.2796029999999998e-01,	 4.6874769999999999e-01,	 2.0640852757284632e-02,	 6.9255911517056666e+02,	 7.3246929439143088e+01,	 5.5706259769536575e+02,	 3.3079700838902422e+03,	 4.5292047444320082e+02,	 1.5376247704031256e+00 
8.3577170000000001e-01,	 4.6914640000000002e-01,	 2.1330642374098974e-02,	 6.8594103639971127e+02,	 4.7569578361645846e+01,	 5.6434920571572081e+02,	 3.4632336299620870e+03,	 4.5587304370246841e+02,	 1.5082894845038777e+00 
8.4356270000000000e-01,	 4.6951769999999998e-01,	 2.1558541658416058e-02,	 6.8429237306788059e+02,	 3.1369121379874606e+01,	 5.6682557651290085e+02,	 3.5155943291411450e+03,	 4.5687213697009554e+02,	 1.4993494834095638e+00 
8.5133409999999998e-01,	 4.6986420000000001e-01,	 2.1512069894127885e-02,	 6.8561684189843641e+02,	 2.0112606113960105e+01,	 5.6641654669060074e+02,	 3.5054846490466502e+03,	 4.5670726433401381e+02,	 1.5018630843091703e+00 
8.5908770000000001e-01,	 4.7018799999999999e-01,	 2.1370261935553320e-02,	 6.8798512027800689e+02,	 1.1072764972681158e+01,	 5.6494346065117111e+02,	 3.4733197735565964e+03,	 4.5611299577985375e+02,	 1.5085608743662937e+00 
8.6682490000000001e-01,	 4.7049130000000000e-01,	 2.1197830107979217e-02,	 6.9070038652542257e+02,	 3.0313532265947312e+00,	 5.6311021607460350e+02,	 3.4341143403373576e+03,	 4.5537234987606553e+02,	 1.5167961750402010e+00 
8.7454719999999997e-01,	 4.7077550000000001e-01,	 2.1022121900132817e-02,	 6.9339310785892792e+02,	 -4.7979045012914048e+00,	 5.6121543366695585e+02,	 3.3941895604452225e+03,	 4.5460557408192795e+02,	 1.5252996149683546e+00 
8.8225600000000004e-01,	 4.7104289999999999e-01,	 2.0856451064904410e-02,	 6.9587022988212755e+02,	 -1.2490316394991670e+01,	 5.5941476723256119e+02,	 3.3566362065685294e+03,	 4.5387568443452432e+02,	 1.5334205826376488e+00 
8.8995219999999997e-01,	 4.7129440000000000e-01,	 2.0697862025714078e-02,	 6.9817594609230036e+02,	 -2.0120168507540193e+01,	 5.5769310580178649e+02,	 3.3208610224107001e+03,	 4.5317671967702034e+02,	 1.5412658440681637e+00 
8.9763680000000001e-01,	 4.7153129999999999e-01,	 2.0545115344131643e-02,	 7.0032043071351427e+02,	 -2.7676027515826647e+01,	 5.5602877179123948e+02,	 3.2865162659961193e+03,	 4.5250000251666484e+02,	 1.5488775230994598e+00 
9.0531039999999996e-01,	 4.7175390000000000e-01,	 2.0398491658307157e-02,	 7.0228800902138755e+02,	 -3.5099740312526549e+01,	 5.5440547556245622e+02,	 3.2535351542504577e+03,	 4.5183899495501464e+02,	 1.5562282073174809e+00 
9.1297410000000001e-01,	 4.7196410000000000e-01,	 2.0257760780751741e-02,	 7.0410339202410375e+02,	 -4.2370160425734980e+01,	 5.5282373303566806e+02,	 3.2218703123406540e+03,	 4.5119397657408058e+02,	 1.5633565851259457e+00 
9.2062860000000002e-01,	 4.7216259999999999e-01,	 2.0122369074570649e-02,	 7.0578591408962211e+02,	 -4.9484940533927670e+01,	 5.5128590056444057e+02,	 3.1914344823108395e+03,	 4.5056597896802390e+02,	 1.5702884710185030e+00 
9.2827459999999995e-01,	 4.7235070000000001e-01,	 1.9991649080540852e-02,	 7.0735051354329892e+02,	 -5.6444525299625006e+01,	 5.4978247476884439e+02,	 3.1620552151437510e+03,	 4.4995118455816612e+02,	 1.5770577324170896e+00 
9.3591219999999997e-01,	 4.7252820000000001e-01,	 1.9865564271748824e-02,	 7.0881349442427700e+02,	 -6.3239702124257562e+01,	 5.4831190392343342e+02,	 3.1337079367175247e+03,	 4.4934901170830858e+02,	 1.5836888003775589e+00 
9.4354210000000005e-01,	 4.7269640000000002e-01,	 1.9743786181451357e-02,	 7.1019153235386693e+02,	 -6.9876212147619654e+01,	 5.4687429710318315e+02,	 3.1063321298381175e+03,	 4.4875955598050530e+02,	 1.5902075544561265e+00 
9.5116429999999996e-01,	 4.7285519999999998e-01,	 1.9625837126504772e-02,	 7.1148871962761723e+02,	 -7.6359141169511474e+01,	 5.4546717880701203e+02,	 3.0798300470875683e+03,	 4.4818185055818850e+02,	 1.5966164964664851e+00 
9.5877920000000005e-01,	 4.7300500000000001e-01,	 1.9511350819150917e-02,	 7.1270602098129166e+02,	 -8.2698716366366995e+01,	 5.4408702882727334e+02,	 3.0541168391276701e+03,	 4.4761449292119249e+02,	 1.6029149089637507e+00 
9.6638670000000004e-01,	 4.7314550000000000e-01,	 1.9399991937641060e-02,	 7.1383938052123597e+02,	 -8.8900329105740298e+01,	 5.4273021689947677e+02,	 3.0291130975652150e+03,	 4.4705602731390519e+02,	 1.6090909951730641e+00 
9.7398730000000000e-01,	 4.7327780000000003e-01,	 1.9291669763120557e-02,	 7.1488988492817896e+02,	 -9.4968910457340272e+01,	 5.4139607661862703e+02,	 3.0047950883710623e+03,	 4.4650621229890754e+02,	 1.6151406359318978e+00 
9.8158160000000005e-01,	 4.7340260000000001e-01,	 1.9186839458113253e-02,	 7.1587220337275380e+02,	 -1.0089590160533942e+02,	 5.4009063108859459e+02,	 2.9812611649786149e+03,	 4.4596756659876871e+02,	 1.6210762612895271e+00 
9.8916990000000005e-01,	 4.7352060000000001e-01,	 1.9085785466573593e-02,	 7.1680115586920783e+02,	 -1.0668219504643638e+02,	 5.3881806588517520e+02,	 2.9585718718299599e+03,	 4.4544186084762981e+02,	 1.6269159759569156e+00 
9.9675250000000004e-01,	 4.7363179999999999e-01,	 1.8988327959767598e-02,	 7.1768401936663247e+02,	 -1.1233034102372586e+02,	 5.3757683736499064e+02,	 2.9366839490036891e+03,	 4.4492850211094287e+02,	 1.6326705898810654e+00 
1.0043299999999999e+00,	 4.7373729999999997e-01,	 1.8893992790244382e-02,	 7.1852161165053690e+02,	 -1.1784924202999656e+02,	 5.3636120991717155e+02,	 2.9154865655496242e+03,	 4.4442515693763511e+02,	 1.6383457588281403e+00 
1.0119020000000001e+00,	 4.7383710000000001e-01,	 1.8802284142754443e-02,	 7.1931337774440522e+02,	 -1.2323720047204363e+02,	 5.3516526742367432e+02,	 2.8948660208234610e+03,	 4.4392940563143748e+02,	 1.6439413456261596e+00 
1.0194700000000001e+00,	 4.7393150000000001e-01,	 1.8712830503172774e-02,	 7.2006127740985687e+02,	 -1.2849568592437583e+02,	 5.3398549639513567e+02,	 2.8747420566622186e+03,	 4.4343981480290466e+02,	 1.6494606410391985e+00 
1.0270319999999999e+00,	 4.7402030000000001e-01,	 1.8625542115982604e-02,	 7.2077394621340954e+02,	 -1.3362157160791318e+02,	 5.3282321503338812e+02,	 2.8551044333522786e+03,	 4.4295695281611933e+02,	 1.6549127703724820e+00 
1.0345899999999999e+00,	 4.7410429999999998e-01,	 1.8540296829995747e-02,	 7.2145915844569174e+02,	 -1.3861852078136798e+02,	 5.3167980094054553e+02,	 2.8359383249492789e+03,	 4.4248141494310772e+02,	 1.6603077019928327e+00 
1.0421430000000000e+00,	 4.7418359999999998e-01,	 1.8456886620738775e-02,	 7.2212090532895672e+02,	 -1.4348399636303446e+02,	 5.3055449551856134e+02,	 2.8172045466866457e+03,	 4.4201290882311872e+02,	 1.6656479813768987e+00 
1.0496930000000000e+00,	 4.7425859999999997e-01,	 1.8375054154570858e-02,	 7.2276134789463458e+02,	 -1.4822114156507982e+02,	 5.2944381040567214e+02,	 2.7988423751571127e+03,	 4.4155000221493327e+02,	 1.6709390463328522e+00 
1.0572379999999999e+00,	 4.7432910000000000e-01,	 1.8294639849353790e-02,	 7.2338362493843874e+02,	 -1.5282812419040243e+02,	 5.2834452271332532e+02,	 2.7808080456244934e+03,	 4.4109136742666806e+02,	 1.6761862218381698e+00 
1.0647789999999999e+00,	 4.7439540000000002e-01,	 1.8215574705364116e-02,	 7.2399183265377019e+02,	 -1.5730711035077903e+02,	 5.2725528937547426e+02,	 2.7630819167611025e+03,	 4.4063645658570709e+02,	 1.6813960655074707e+00 
1.0723149999999999e+00,	 4.7445759999999998e-01,	 1.8137873612776231e-02,	 7.2459161383098763e+02,	 -1.6165596336739259e+02,	 5.2617706243395389e+02,	 2.7456692560515708e+03,	 4.4018567946419319e+02,	 1.6865730835812247e+00 
1.0798479999999999e+00,	 4.7451559999999998e-01,	 1.8061377540426582e-02,	 7.2518540731901635e+02,	 -1.6587998777174886e+02,	 5.2510906005549532e+02,	 2.7285399685446091e+03,	 4.3973872141187661e+02,	 1.6917212699421207e+00 
1.0873759999999999e+00,	 4.7456920000000002e-01,	 1.7985829635443564e-02,	 7.2577179233127401e+02,	 -1.6998051728998428e+02,	 5.2404877427967529e+02,	 2.7116405665271523e+03,	 4.3929454291265091e+02,	 1.6968372482217675e+00 
1.0949009999999999e+00,	 4.7461890000000001e-01,	 1.7910943342627085e-02,	 7.2634908221888099e+02,	 -1.7396542475488596e+02,	 5.2299276501433053e+02,	 2.6949088370201421e+03,	 4.3885170909017955e+02,	 1.7019223463738269e+00 
1.1024220000000000e+00,	 4.7466500000000000e-01,	 1.7836634444385442e-02,	 7.2691824708152103e+02,	 -1.7783636676704273e+02,	 5.2194004154699030e+02,	 2.6783261707599895e+03,	 4.3840980793897330e+02,	 1.7069770284675112e+00 
1.1099390000000000e+00,	 4.7470780000000001e-01,	 1.7762939628440017e-02,	 7.2748367714514302e+02,	 -1.8159799612081616e+02,	 5.2089120166437260e+02,	 2.6619003851642497e+03,	 4.3796909359394039e+02,	 1.7120086201772242e+00 
1.1174539999999999e+00,	 4.7474749999999999e-01,	 1.7690073256462539e-02,	 7.2805233442384281e+02,	 -1.8524850797723775e+02,	 5.1984915936483367e+02,	 2.6456775667439401e+03,	 4.3753079592579428e+02,	 1.7170229818201352e+00 
1.1249650000000000e+00,	 4.7478450000000000e-01,	 1.7618121785484449e-02,	 7.2862896246171067e+02,	 -1.8879081699763088e+02,	 5.1881539078746698e+02,	 2.6296769294332166e+03,	 4.3709554401941392e+02,	 1.7220260989022549e+00 
1.1324740000000000e+00,	 4.7481879999999999e-01,	 1.7546966783572041e-02,	 7.2921303345690080e+02,	 -1.9222643656032685e+02,	 5.1778879711242996e+02,	 2.6138739539496660e+03,	 4.3666288365311016e+02,	 1.7270159475352889e+00 
1.1399800000000000e+00,	 4.7485070000000001e-01,	 1.7476384285604978e-02,	 7.2980224018060392e+02,	 -1.9556144560964020e+02,	 5.1676681859326936e+02,	 2.5982213268166515e+03,	 4.3623174212667823e+02,	 1.7319919336548890e+00 
1.1474830000000000e+00,	 4.7488000000000002e-01,	 1.7406217849137019e-02,	 7.3039677135434999e+02,	 -1.9880025259438139e+02,	 5.1574697850141206e+02,	 2.5826826467341189e+03,	 4.3580107754363513e+02,	 1.7369582676645976e+00 
1.1549840000000000e+00,	 4.7490729999999998e-01,	 1.7346868643249073e-02,	 7.3080001060119525e+02,	 -2.0165962332364506e+02,	 5.1486815531925913e+02,	 2.5694907512701930e+03,	 4.3542962080446625e+02,	 1.7410688734847803e+00 
7.7228540000000001e-01,	 4.7060130000000000e-01,	 1.9366130377041824e-02,	 6.9025027288028582e+02,	 1.9974427185683288e+02,	 5.3977857603957091e+02,	 3.0073808645500503e+03,	 4.4583871180047544e+02,	 1.6117269258112932e+00 
7.8036119999999998e-01,	 4.7128550000000002e-01,	 1.9096692469790646e-02,	 6.9554663883514468e+02,	 1.9394108850720670e+02,	 5.3689749801615687e+02,	 2.9497110283675902e+03,	 4.4464728371624693e+02,	 1.6239369006878648e+00 
7.8838909999999995e-01,	 4.7191800000000000e-01,	 1.8832157108437685e-02,	 7.0152099543220879e+02,	 1.8602977692504535e+02,	 5.3404223175437630e+02,	 2.8933808868027481e+03,	 4.4346337166833302e+02,	 1.6365900036597028e+00 
7.9637230000000003e-01,	 4.7250320000000001e-01,	 1.8823497924371414e-02,	 7.0420086955356237e+02,	 1.7276746846406181e+02,	 5.3426876084404614e+02,	 2.8932772308227463e+03,	 4.4355741545103075e+02,	 1.6347025817945766e+00 
8.0431149999999996e-01,	 4.7304400000000002e-01,	 1.9329041842081715e-02,	 7.0048254411365542e+02,	 1.4843676229188316e+02,	 5.4067847248650583e+02,	 3.0066255368216143e+03,	 4.4621019893435744e+02,	 1.6047082706197233e+00 
8.1221460000000001e-01,	 4.7354510000000000e-01,	 2.0324168158668228e-02,	 6.9117731056704349e+02,	 1.1411923703397729e+02,	 5.5256767575383105e+02,	 3.2309347908837321e+03,	 4.5108947230137329e+02,	 1.5529845738710868e+00 
8.2008250000000005e-01,	 4.7400940000000003e-01,	 2.1382192434576133e-02,	 6.8086415052256336e+02,	 8.0293289046439668e+01,	 5.6450210505907989e+02,	 3.4725438376906723e+03,	 4.5593479444812976e+02,	 1.5036848369097180e+00 
8.2792069999999995e-01,	 4.7444019999999998e-01,	 2.2032251157719177e-02,	 6.7494661596710739e+02,	 5.5802754321187308e+01,	 5.7142345940533608e+02,	 3.6219869169054732e+03,	 4.5872138473134180e+02,	 1.4763852743553847e+00 
8.3573249999999999e-01,	 4.7484060000000000e-01,	 2.2218199586361401e-02,	 6.7412196059869564e+02,	 4.0351297783697959e+01,	 5.7324205156209564e+02,	 3.6641803620627302e+03,	 4.5945076012480092e+02,	 1.4698605478002948e+00 
8.4352419999999995e-01,	 4.7521360000000001e-01,	 2.2151549878118813e-02,	 6.7594132472795673e+02,	 2.9900570110559695e+01,	 5.7245336532487261e+02,	 3.6481624442697680e+03,	 4.5913458721518094e+02,	 1.4736470590180601e+00 
8.5129630000000001e-01,	 4.7556169999999998e-01,	 2.1980922012716286e-02,	 6.7889862952713611e+02,	 2.1252108385678973e+01,	 5.7063806859266720e+02,	 3.6085820454813797e+03,	 4.5840603239919284e+02,	 1.4817239215210269e+00 
8.5905069999999994e-01,	 4.7588710000000001e-01,	 2.1784260056055028e-02,	 6.8209103641843308e+02,	 1.3163093122280362e+01,	 5.6857312125523481e+02,	 3.5633548699736193e+03,	 4.5757587203683789e+02,	 1.4909397062651348e+00 
8.6678860000000002e-01,	 4.7619210000000001e-01,	 2.1594989122146580e-02,	 6.8509577546708192e+02,	 5.4074501073304475e+00,	 5.6657985418515182e+02,	 3.5200112815997231e+03,	 4.5677309781323908e+02,	 1.4999068878480191e+00 
8.7451179999999995e-01,	 4.7647790000000001e-01,	 2.1416401605964169e-02,	 6.8788788090234016e+02,	 -2.2436014923412824e+00,	 5.6467741294919222e+02,	 3.4791796630349804e+03,	 4.5600558493902707e+02,	 1.5085156025615136e+00 
8.8222149999999999e-01,	 4.7674680000000003e-01,	 2.1247184549047237e-02,	 6.9046942358542231e+02,	 -9.8066043561339917e+00,	 5.6285652319994369e+02,	 3.4405591709667947e+03,	 4.5526976095857907e+02,	 1.5167690014754156e+00 
8.8991849999999995e-01,	 4.7699979999999997e-01,	 2.1086000104347691e-02,	 6.9285623348465128e+02,	 -1.7267848551397183e+01,	 5.6111825762297008e+02,	 3.4039137075561166e+03,	 4.5456621425581500e+02,	 1.5246874031895967e+00 
8.9760399999999996e-01,	 4.7723830000000000e-01,	 2.0930094134082654e-02,	 6.9508947901827798e+02,	 -2.4650274492464177e+01,	 5.5943067254326331e+02,	 3.3685840915336626e+03,	 4.5388213669757812e+02,	 1.5323943759673300e+00 
9.0527849999999999e-01,	 4.7746240000000001e-01,	 2.0778945307918122e-02,	 6.9717520392081315e+02,	 -3.1929266594708992e+01,	 5.5777314124241218e+02,	 3.3343488495769138e+03,	 4.5320923657283453e+02,	 1.5399200054363480e+00 
9.1294310000000001e-01,	 4.7767399999999999e-01,	 2.0633143836528735e-02,	 6.9911826024981326e+02,	 -3.9072382028036898e+01,	 5.5614977073949160e+02,	 3.3013160683063238e+03,	 4.5254923472262755e+02,	 1.5472554047353220e+00 
9.2059849999999999e-01,	 4.7787390000000002e-01,	 2.0492634271121656e-02,	 7.0093355449743342e+02,	 -4.6068157531198572e+01,	 5.5456707638187004e+02,	 3.2695035221752723e+03,	 4.5190484227700478e+02,	 1.5544109052325710e+00 
9.2824540000000000e-01,	 4.7806340000000003e-01,	 2.0357156854188981e-02,	 7.0263768311987030e+02,	 -5.2911474776707813e+01,	 5.5302358173403479e+02,	 3.2388490748665672e+03,	 4.5127552370722032e+02,	 1.5614121625498185e+00 
9.3588380000000004e-01,	 4.7824230000000001e-01,	 2.0226520516121109e-02,	 7.0424540708151869e+02,	 -5.9599929811636542e+01,	 5.5151595778963633e+02,	 3.2092917508809323e+03,	 4.5065998204960704e+02,	 1.5682840534199702e+00 
9.4351450000000003e-01,	 4.7841170000000000e-01,	 2.0100267580352341e-02,	 7.0576409098930867e+02,	 -6.6141317102365306e+01,	 5.5004100116222526e+02,	 3.1807302577077926e+03,	 4.5005696328938188e+02,	 1.5750374289265201e+00 
9.5113760000000003e-01,	 4.7857179999999999e-01,	 1.9977865260517914e-02,	 7.0719569587127307e+02,	 -7.2544643466755886e+01,	 5.4859620505498435e+02,	 3.1530569590576647e+03,	 4.4946549092035542e+02,	 1.5816715940298300e+00 
9.5875330000000003e-01,	 4.7872280000000000e-01,	 1.9858836522479530e-02,	 7.0853839748378823e+02,	 -7.8817108958107355e+01,	 5.4717786244139734e+02,	 3.1261675928941422e+03,	 4.4888409003487646e+02,	 1.5881798971930776e+00 
9.6636149999999998e-01,	 4.7886450000000003e-01,	 1.9742914226838722e-02,	 7.0979084236168592e+02,	 -8.4962143083511904e+01,	 5.4578346690624517e+02,	 3.0999991296902817e+03,	 4.4831177042143133e+02,	 1.5945549486071311e+00 
9.7396289999999996e-01,	 4.7899789999999998e-01,	 1.9630398288877873e-02,	 7.1096273477825230e+02,	 -9.0976700323137678e+01,	 5.4441675215469229e+02,	 3.0746134951896811e+03,	 4.4775010228034824e+02,	 1.6008034560101487e+00 
9.8155780000000004e-01,	 4.7912379999999999e-01,	 1.9521752228363963e-02,	 7.1206938841682552e+02,	 -9.6855138783159489e+01,	 5.4308373456399272e+02,	 3.0501101931514972e+03,	 4.4720160284129628e+02,	 1.6069403072203561e+00 
9.8914690000000005e-01,	 4.7924280000000002e-01,	 1.9416888654222815e-02,	 7.1311862151442756e+02,	 -1.0259914314906543e+02,	 5.4178403155882415e+02,	 3.0264658529211815e+03,	 4.4666616291280252e+02,	 1.6129752948035874e+00 
9.9673020000000001e-01,	 4.7935509999999998e-01,	 1.9315386410728958e-02,	 7.1411296615989261e+02,	 -1.0821412808215359e+02,	 5.4051302894920104e+02,	 3.0035820845701878e+03,	 4.4614192523232975e+02,	 1.6189144737005856e+00 