TITLE = "Final State"
VARIABLES = "X", "Y", "rho", "u", "v", "T", "p", "c", "M"
ZONE I=51, J=48, DATAPACKING=POINT
2.2756180000000001e+00,	 4.6910990000000002e-01,	 2.0352405442854438e-02,	 7.1328110678454277e+02,	 3.7744689137201625e+01,	 5.5200879522414778e+02,	 3.2321512873891888e+03,	 4.5086129310010381e+02,	 1.5842545972362185e+00 
2.2830859999999999e+00,	 4.6910679999999999e-01,	 2.0295430524375345e-02,	 7.1407510379039445e+02,	 3.8183019737326262e+01,	 5.5150311744075327e+02,	 3.2201505576368741e+03,	 4.5065473590487022e+02,	 1.5867917925541415e+00 
2.2905530000000001e+00,	 4.6910370000000001e-01,	 2.0227063612890422e-02,	 7.1511510817329486e+02,	 3.8626083003832164e+01,	 5.5088573197505195e+02,	 3.2057105169080573e+03,	 4.5040242038300431e+02,	 1.5900392332141833e+00 
2.2980209999999999e+00,	 4.6910059999999998e-01,	 2.0158863996754896e-02,	 7.1614635681182642e+02,	 3.9048213919588584e+01,	 5.5026171462463913e+02,	 3.1912827847248163e+03,	 4.5014725080213617e+02,	 1.5932789248372798e+00 
2.3054890000000001e+00,	 4.6909750000000000e-01,	 2.0090290755236592e-02,	 7.1715554310194511e+02,	 3.9464651963111407e+01,	 5.4962591533952491e+02,	 3.1767523616387766e+03,	 4.4988711456717255e+02,	 1.5964906694105583e+00 
2.3129569999999999e+00,	 4.6909430000000002e-01,	 2.0020962178434198e-02,	 7.1813848217068198e+02,	 3.9883531710083204e+01,	 5.4897755594636442e+02,	 3.1620553814884820e+03,	 4.4962168438919696e+02,	 1.5996673824578331e+00 
2.3204250000000002e+00,	 4.6909119999999999e-01,	 1.9950820543620004e-02,	 7.1909504104601933e+02,	 4.0302937861150880e+01,	 5.4831948654367056e+02,	 3.1472002716721231e+03,	 4.4935211872742099e+02,	 1.6028044594738846e+00 
2.3278930000000000e+00,	 4.6908810000000001e-01,	 1.9879985906293550e-02,	 7.2002803273430254e+02,	 4.0718777758571477e+01,	 5.4765452773287029e+02,	 3.1322231292246406e+03,	 4.4907956659012012e+02,	 1.6059035513542501e+00 
2.3353609999999998e+00,	 4.6908499999999997e-01,	 1.9808614208680221e-02,	 7.2093753717985226e+02,	 4.1127154753022722e+01,	 5.4698346470833621e+02,	 3.1171537873182524e+03,	 4.4880434466563889e+02,	 1.6089631896163115e+00 
2.3428279999999999e+00,	 4.6908179999999999e-01,	 1.9736704096545057e-02,	 7.2182362681166853e+02,	 4.1530874620850767e+01,	 5.4630547290485845e+02,	 3.1019880382011452e+03,	 4.4852610954840253e+02,	 1.6119850892654570e+00 
2.3502960000000002e+00,	 4.6907870000000002e-01,	 1.9664185556317510e-02,	 7.2268645019536530e+02,	 4.1934125974964275e+01,	 5.4562089956393288e+02,	 3.0867176012647651e+03,	 4.4824499826236581e+02,	 1.6149696071989466e+00 
2.3577640000000000e+00,	 4.6907559999999998e-01,	 1.9591222500896330e-02,	 7.2353106192650694e+02,	 4.2343937818336670e+01,	 5.4493198593028364e+02,	 3.0713815772475523e+03,	 4.4796192660260579e+02,	 1.6179256053031654e+00 
2.3652319999999998e+00,	 4.6907240000000000e-01,	 1.9518288148959062e-02,	 7.2436638760147343e+02,	 4.2762048463053858e+01,	 5.4424297058809555e+02,	 3.0560783983207602e+03,	 4.4767863412260880e+02,	 1.6208669257182857e+00 
2.3727000000000000e+00,	 4.6906930000000002e-01,	 1.9445850208528848e-02,	 7.2520421643918098e+02,	 4.3185714966702335e+01,	 5.4355826176118001e+02,	 3.0409058540922806e+03,	 4.4739693458728436e+02,	 1.6238129302115731e+00 
2.3801679999999998e+00,	 4.6906619999999999e-01,	 1.9374305021176270e-02,	 7.2605192563922128e+02,	 4.3607762386361031e+01,	 5.4288167656447752e+02,	 3.0259465596002769e+03,	 4.4711840290186956e+02,	 1.6267733908072819e+00 
2.3876360000000001e+00,	 4.6906300000000001e-01,	 1.9303872807336760e-02,	 7.2691472250203196e+02,	 4.4020787135803282e+01,	 5.4221545297941771e+02,	 3.0112462731885594e+03,	 4.4684396716012634e+02,	 1.6297555080922030e+00 
2.3951039999999999e+00,	 4.6905989999999997e-01,	 1.9234560841117077e-02,	 7.2779203204066516e+02,	 4.4416775057249723e+01,	 5.4156050377073507e+02,	 2.9968099092793072e+03,	 4.4657401124914594e+02,	 1.6327554234879931e+00 
2.4025710000000000e+00,	 4.6905669999999999e-01,	 1.9165865289591053e-02,	 7.2867752427830305e+02,	 4.4789861356457664e+01,	 5.4091385880604957e+02,	 2.9825413775982470e+03,	 4.4630731797350120e+02,	 1.6357625198376062e+00 
2.4100389999999998e+00,	 4.6905360000000001e-01,	 1.9097298522913548e-02,	 7.2955946688643849e+02,	 4.5136995603192517e+01,	 5.4026886535210656e+02,	 2.9683274964163443e+03,	 4.4604114697535437e+02,	 1.6387600671860350e+00 
2.4175070000000001e+00,	 4.6905049999999998e-01,	 1.9028768608361307e-02,	 7.3043002178810798e+02,	 4.5460992167488811e+01,	 5.3961934542121503e+02,	 2.9541200029592901e+03,	 4.4577294741748915e+02,	 1.6417402053265895e+00 
2.4249749999999999e+00,	 4.6904730000000000e-01,	 1.8960282336683551e-02,	 7.3128562739400229e+02,	 4.5766816179590421e+01,	 5.3896280390607149e+02,	 2.9399065870635886e+03,	 4.4550168442107980e+02,	 1.6446994248837425e+00 
2.4324430000000001e+00,	 4.6904420000000002e-01,	 1.8891930250802710e-02,	 7.3212941717250919e+02,	 4.6063342989076745e+01,	 5.3830081582107994e+02,	 2.9257102213182593e+03,	 4.4522800373356051e+02,	 1.6476435940565759e+00 
2.4399109999999999e+00,	 4.6904099999999999e-01,	 1.8823893685646319e-02,	 7.3296632347283503e+02,	 4.6357963545383086e+01,	 5.3763800764611688e+02,	 2.9115842528419653e+03,	 4.4495381535500064e+02,	 1.6505777394972594e+00 
2.4473790000000002e+00,	 4.6903780000000000e-01,	 1.8756295183083811e-02,	 7.3380177641073442e+02,	 4.6656243747976816e+01,	 5.3697946878763980e+02,	 2.8975749428104109e+03,	 4.4468122566042445e+02,	 1.6535069973174286e+00 
2.4548459999999999e+00,	 4.6903470000000003e-01,	 1.8689280280376752e-02,	 7.3463919474186400e+02,	 4.6956509738390238e+01,	 5.3633020723757613e+02,	 2.8837311760397401e+03,	 4.4441231245000296e+02,	 1.6564310270640463e+00 
2.4623140000000001e+00,	 4.6903149999999999e-01,	 1.8623114688083087e-02,	 7.3548729517616368e+02,	 4.7252947381083814e+01,	 5.3569555026591456e+02,	 2.8701215809414380e+03,	 4.4414929084732756e+02,	 1.6593602203325650e+00 
2.4697819999999999e+00,	 4.6902840000000001e-01,	 1.8558207433977510e-02,	 7.3635414943667479e+02,	 4.7539077986338775e+01,	 5.3507870074496145e+02,	 2.8568249234542654e+03,	 4.4389349985545334e+02,	 1.6623066505103989e+00 
2.4772500000000002e+00,	 4.6902519999999998e-01,	 1.8494766895690219e-02,	 7.3724316634802096e+02,	 4.7813536997569145e+01,	 5.3447865987018940e+02,	 2.8438662630662011e+03,	 4.4364453745202610e+02,	 1.6652791560989910e+00 
2.4847180000000000e+00,	 4.6902199999999999e-01,	 1.8432445207639279e-02,	 7.3814614947837617e+02,	 4.8076785658257783e+01,	 5.3388969792679381e+02,	 2.8311601042490688e+03,	 4.4340003585683479e+02,	 1.6682681471914760e+00 
2.4921859999999998e+00,	 4.6901890000000002e-01,	 1.8370386795599710e-02,	 7.3904455339646847e+02,	 4.8333323205176427e+01,	 5.3330086203680219e+02,	 2.8185161249415478e+03,	 4.4315545173620967e+02,	 1.6712495751626060e+00 
2.4996540000000000e+00,	 4.6901569999999998e-01,	 1.8307654369542438e-02,	 7.3991533849176881e+02,	 4.8587267766541871e+01,	 5.3270090737345606e+02,	 2.8057313111887574e+03,	 4.4290611030755974e+02,	 1.6741897900453868e+00 
2.5071219999999999e+00,	 4.6901250000000000e-01,	 1.8243784800901976e-02,	 7.4074765543126875e+02,	 4.8842111483731088e+01,	 5.3208495899427021e+02,	 2.7927101321600576e+03,	 4.4264997576504049e+02,	 1.6770725904960626e+00 
2.5145890000000000e+00,	 4.6900940000000002e-01,	 1.8179057240915876e-02,	 7.4154601484869363e+02,	 4.9098460412854585e+01,	 5.3145693186153721e+02,	 2.7795172302348637e+03,	 4.4238866573409041e+02,	 1.6799021370746692e+00 
2.5220570000000002e+00,	 4.6900619999999998e-01,	 1.8114348594759147e-02,	 7.4233138352462402e+02,	 4.9359510313389237e+01,	 5.3082765760816051e+02,	 2.7663441073929434e+03,	 4.4212668189787155e+02,	 1.6827091060458705e+00 
2.5295250000000000e+00,	 4.6900300000000000e-01,	 1.8050693159569996e-02,	 7.4312766924985533e+02,	 4.9628017336326302e+01,	 5.3020970473684019e+02,	 2.7534138577909107e+03,	 4.4186926029500307e+02,	 1.6855279089643496e+00 
2.5369929999999998e+00,	 4.6899980000000002e-01,	 1.7988679174006015e-02,	 7.4394999591967928e+02,	 4.9908764536118738e+01,	 5.2961043678833926e+02,	 2.7408530316867214e+03,	 4.4161947898500193e+02,	 1.6883816187010923e+00 
2.5444610000000001e+00,	 4.6899669999999999e-01,	 1.7928243997743700e-02,	 7.4479613780304032e+02,	 5.0202819686037742e+01,	 5.2902940229609248e+02,	 2.7286479176727094e+03,	 4.4137716260647613e+02,	 1.6912659706794775e+00 
2.5519289999999999e+00,	 4.6899350000000001e-01,	 1.7868863110678163e-02,	 7.4565421261047027e+02,	 5.0509109021060283e+01,	 5.2846044855965556e+02,	 2.7166853972907825e+03,	 4.4113975544180101e+02,	 1.6941636703584699e+00 
2.5593970000000001e+00,	 4.6899030000000003e-01,	 1.7809977220598593e-02,	 7.4651049461429557e+02,	 5.0822335142965727e+01,	 5.2789659663333748e+02,	 2.7048436327074874e+03,	 4.4090435098920790e+02,	 1.6970539798643063e+00 
2.5668650000000000e+00,	 4.6898709999999999e-01,	 1.7751278496001034e-02,	 7.4735940617812685e+02,	 5.1137945999849528e+01,	 5.2733369222535362e+02,	 2.6930542064613073e+03,	 4.4066921668357469e+02,	 1.6999302142945569e+00 
2.5743320000000001e+00,	 4.6898390000000001e-01,	 1.7692771658393714e-02,	 7.4820199969142141e+02,	 5.1450392732452706e+01,	 5.2677127803658982e+02,	 2.6813153674616433e+03,	 4.4043416178341545e+02,	 1.7027946087457233e+00 
2.5817999999999999e+00,	 4.6898069999999997e-01,	 1.7634552312210679e-02,	 7.4904330158299081e+02,	 5.1756944457715207e+01,	 5.2621017601017945e+02,	 2.6696456410773822e+03,	 4.4019953021308618e+02,	 1.7056567668301077e+00 
2.5892680000000001e+00,	 4.6897749999999999e-01,	 1.7576609209892728e-02,	 7.4988367606956081e+02,	 5.2054182351252422e+01,	 5.2565014709583727e+02,	 2.6580419124250366e+03,	 4.3996522260823190e+02,	 1.7085173365862159e+00 
2.5967359999999999e+00,	 4.6897430000000001e-01,	 1.7518702013893300e-02,	 7.5071917630267944e+02,	 5.2340717060473636e+01,	 5.2508851272698416e+02,	 2.6464541876398880e+03,	 4.3973011791876866e+02,	 1.7113714779352931e+00 
2.6042040000000002e+00,	 4.6897109999999997e-01,	 1.7460492721954775e-02,	 7.5154178392900792e+02,	 5.2613869686338752e+01,	 5.2452160071190769e+02,	 2.6348130777721003e+03,	 4.3949267641739186e+02,	 1.7142065540881850e+00 
2.6116720000000000e+00,	 4.6896789999999999e-01,	 1.7401707655738976e-02,	 7.5234675776998915e+02,	 5.2872760986547000e+01,	 5.2394660948960859e+02,	 2.6230637167682003e+03,	 4.3925171996890782e+02,	 1.7170162523705461e+00 
2.6191399999999998e+00,	 4.6896470000000001e-01,	 1.7342313135117728e-02,	 7.5313380188169754e+02,	 5.3115741093215931e+01,	 5.2336360190754317e+02,	 2.6112020426774779e+03,	 4.3900726914442163e+02,	 1.7197995568595137e+00 
2.6266080000000001e+00,	 4.6896149999999998e-01,	 1.7282543051115949e-02,	 7.5391062637341815e+02,	 5.3344196258223079e+01,	 5.2277581763258900e+02,	 2.5992800577637186e+03,	 4.3876067761596636e+02,	 1.7225689020085326e+00 
2.6340759999999999e+00,	 4.6895829999999999e-01,	 1.7222882601348240e-02,	 7.5468898070823707e+02,	 5.3560283236354977e+01,	 5.2218940396447738e+02,	 2.5874015488838832e+03,	 4.3851452291236694e+02,	 1.7253412164625834e+00 
2.6415430000000000e+00,	 4.6895510000000001e-01,	 1.7163904461016951e-02,	 7.5548174401740903e+02,	 5.3769955864310731e+01,	 5.2161155114663461e+02,	 2.5756878318525864e+03,	 4.3827182649645039e+02,	 1.7281348413229951e+00 
2.6490109999999998e+00,	 4.6895189999999998e-01,	 1.7114534456919728e-02,	 7.5611514946169507e+02,	 5.3961975004404486e+01,	 5.2113826638435989e+02,	 2.5659488303296321e+03,	 4.3807294818319491e+02,	 1.7303927804319144e+00 
2.2756140000000000e+00,	 4.7487020000000002e-01,	 2.0352292407798664e-02,	 7.1441420522270823e+02,	 3.8936565053305614e+01,	 5.5105802839706303e+02,	 3.2265663867434878e+03,	 4.5047284937955970e+02,	 1.5882743384888056e+00 
2.2830819999999998e+00,	 4.7486719999999999e-01,	 2.0294821486480943e-02,	 7.1518760655823417e+02,	 3.9378435904087148e+01,	 5.5054514641944957e+02,	 3.2144606326814419e+03,	 4.5026316802355558e+02,	 1.5907827489433450e+00 
2.2905489999999999e+00,	 4.7486430000000002e-01,	 2.0226306945187081e-02,	 7.1620753333053779e+02,	 3.9826181452832095e+01,	 5.4992364506717513e+02,	 3.1999922353395705e+03,	 4.5000894891846224e+02,	 1.5939993825302530e+00 
2.2980170000000002e+00,	 4.7486129999999999e-01,	 2.0158109141457339e-02,	 7.1722607059418885e+02,	 4.0245170389471980e+01,	 5.4930168722798351e+02,	 3.1855957459538713e+03,	 4.4975439923872329e+02,	 1.5972146309254120e+00 
2.3054850000000000e+00,	 4.7485830000000001e-01,	 2.0089640841244490e-02,	 7.1822947501827571e+02,	 4.0652736592165098e+01,	 5.4867304697151235e+02,	 3.1711423418949926e+03,	 4.4949696815267515e+02,	 1.6004091357161871e+00 
2.3129529999999998e+00,	 4.7485529999999998e-01,	 2.0020474807960268e-02,	 7.1920892543522734e+02,	 4.1061161392067326e+01,	 5.4803375606608824e+02,	 3.1565423477085574e+03,	 4.4923502428746127e+02,	 1.6035706640125400e+00 
2.3204210000000001e+00,	 4.7485230000000000e-01,	 1.9950490595643178e-02,	 7.2016101759288267e+02,	 4.1472404504802910e+01,	 5.4738334506572050e+02,	 3.1417751220544028e+03,	 4.4896836722263555e+02,	 1.6066926574062983e+00 
2.3278889999999999e+00,	 4.7484929999999997e-01,	 1.9879776863641251e-02,	 7.2108720439131957e+02,	 4.1883051832205176e+01,	 5.4672374579814880e+02,	 3.1268667896403772e+03,	 4.4869778128419205e+02,	 1.6097751341385993e+00 
2.3353570000000001e+00,	 4.7484630000000000e-01,	 1.9808487703843955e-02,	 7.2198948703600809e+02,	 4.2288418132953623e+01,	 5.4605740557371860e+02,	 3.1118564804948583e+03,	 4.4842426423095321e+02,	 1.6128183607033983e+00 
2.3428249999999999e+00,	 4.7484340000000003e-01,	 1.9736733104341590e-02,	 7.2286966535372062e+02,	 4.2688911829289211e+01,	 5.4538539671999433e+02,	 3.0967682866368855e+03,	 4.4814825126707825e+02,	 1.6158248045534744e+00 
2.3502930000000002e+00,	 4.7484040000000000e-01,	 1.9664533427644900e-02,	 7.2372930193176103e+02,	 4.3088507360583002e+01,	 5.4470817380788799e+02,	 3.0816085917336154e+03,	 4.4786992465670522e+02,	 1.6187977864169245e+00 
2.3577610000000000e+00,	 4.7483740000000002e-01,	 1.9591984399827896e-02,	 7.2457330340756380e+02,	 4.3492637640851200e+01,	 5.4402732683058809e+02,	 3.0664019251534278e+03,	 4.4758993415514908e+02,	 1.6217466053010201e+00 
2.3652280000000001e+00,	 4.7483439999999999e-01,	 1.9519421435132862e-02,	 7.2540895959511204e+02,	 4.3903961325399969e+01,	 5.4334596869465304e+02,	 3.0512186306427589e+03,	 4.4730955798986207e+02,	 1.6246832488571896e+00 
2.3726959999999999e+00,	 4.7483140000000001e-01,	 1.9447199909436684e-02,	 7.2624550689394334e+02,	 4.4321331885667824e+01,	 5.4266716894431443e+02,	 3.0361314035925384e+03,	 4.4703005972806528e+02,	 1.6276235924582760e+00 
2.3801640000000002e+00,	 4.7482839999999998e-01,	 1.9375632868108301e-02,	 7.2708918367934007e+02,	 4.4739214208785896e+01,	 5.4199351607405981e+02,	 3.0212031256873520e+03,	 4.4675250783630702e+02,	 1.6305769212412631e+00 
2.3876320000000000e+00,	 4.7482540000000001e-01,	 1.9304926318323659e-02,	 7.2794374829008848e+02,	 4.5150211589437191e+01,	 5.4132658695979296e+02,	 3.0064739389585920e+03,	 4.4647755623601574e+02,	 1.6335482030033046e+00 
2.3950999999999998e+00,	 4.7482239999999998e-01,	 1.9235134535482989e-02,	 7.2880840270429746e+02,	 4.5544858449779767e+01,	 5.4066634598703956e+02,	 2.9919511830218576e+03,	 4.4620519503799886e+02,	 1.6365343207445455e+00 
2.4025680000000000e+00,	 4.7481940000000000e-01,	 1.9166110615582713e-02,	 7.2967808426117051e+02,	 4.5916155412183045e+01,	 5.4001064397052733e+02,	 2.9775992604775797e+03,	 4.4593454160334545e+02,	 1.6395261239843739e+00 
2.4100359999999998e+00,	 4.7481640000000003e-01,	 1.9097498334689107e-02,	 7.3054458490724255e+02,	 4.6261486402320543e+01,	 5.3935636534469381e+02,	 2.9633450734259600e+03,	 4.4566431186628876e+02,	 1.6425094995408267e+00 
2.4175040000000001e+00,	 4.7481340000000000e-01,	 1.9028993803241537e-02,	 7.3140209088488427e+02,	 4.6583371594166834e+01,	 5.3870120366495007e+02,	 2.9491285812103033e+03,	 4.4539355312470548e+02,	 1.6454752066102423e+00 
2.4249719999999999e+00,	 4.7481030000000002e-01,	 1.8960535582694119e-02,	 7.3224867501270205e+02,	 4.6887319688621169e+01,	 5.3804503157729710e+02,	 2.9349395702213096e+03,	 4.4512221173355846e+02,	 1.6484198354028723e+00 
2.4324400000000002e+00,	 4.7480729999999999e-01,	 1.8892212939727877e-02,	 7.3308776959995373e+02,	 4.7182754062611394e+01,	 5.3738985838408064e+02,	 2.9208027957146874e+03,	 4.4485111827729901e+02,	 1.6513492956993345e+00 
2.4399080000000000e+00,	 4.7480430000000001e-01,	 1.8824208473018064e-02,	 7.3392384756220065e+02,	 4.7478482758710911e+01,	 5.3673916394885123e+02,	 2.9067651637098998e+03,	 4.4458171439946074e+02,	 1.6542694910347611e+00 
2.4473750000000001e+00,	 4.7480129999999998e-01,	 1.8756534192170840e-02,	 7.3475931836040752e+02,	 4.7780311133952310e+01,	 5.3609535165375723e+02,	 2.8928410538583830e+03,	 4.4431499913422545e+02,	 1.6571829048143289e+00 
2.4548429999999999e+00,	 4.7479830000000001e-01,	 1.8689305788218879e-02,	 7.3559481794099906e+02,	 4.8086625162104852e+01,	 5.3545905467206569e+02,	 2.8790511071109649e+03,	 4.4405123986871064e+02,	 1.6600896775067742e+00 
2.4623110000000001e+00,	 4.7479529999999998e-01,	 1.8623021280949368e-02,	 7.3643704301256071e+02,	 4.8392443420364785e+01,	 5.3483238870898253e+02,	 2.8654826067829090e+03,	 4.4379131965550323e+02,	 1.6630007610734612e+00 
2.4697789999999999e+00,	 4.7479220000000000e-01,	 1.8558153774463213e-02,	 7.3729589677151102e+02,	 4.8690816948395266e+01,	 5.3421979622778372e+02,	 2.8522309214339184e+03,	 4.4353708942986970e+02,	 1.6659303793677449e+00 
2.4772470000000002e+00,	 4.7478920000000002e-01,	 1.8494820323111578e-02,	 7.3817653627128607e+02,	 4.8978139699111715e+01,	 5.3362314878993743e+02,	 2.8393224423379738e+03,	 4.4328933635039215e+02,	 1.6688865380279780e+00 
2.4847150000000000e+00,	 4.7478619999999999e-01,	 1.8432706213942728e-02,	 7.3907230830605533e+02,	 4.9253962796563329e+01,	 5.3303855767122616e+02,	 2.8266866240443715e+03,	 4.4304645518774294e+02,	 1.6718601316259600e+00 
2.4921829999999998e+00,	 4.7478320000000002e-01,	 1.8371004918819010e-02,	 7.3996544672444327e+02,	 4.9522114348129804e+01,	 5.3245627582521479e+02,	 2.8141471401385966e+03,	 4.4280440102936268e+02,	 1.6748269098007569e+00 
2.4996510000000001e+00,	 4.7478009999999998e-01,	 1.8308763144918767e-02,	 7.4083347256043817e+02,	 4.9787363764303279e+01,	 5.3186512262433894e+02,	 2.8014988980335779e+03,	 4.4255852362429766e+02,	 1.6777545032982795e+00 
2.5071189999999999e+00,	 4.7477710000000001e-01,	 1.8245458627202216e-02,	 7.4166426564339235e+02,	 5.0054242641866935e+01,	 5.3125916197003983e+02,	 2.7886316671289578e+03,	 4.4230634551756509e+02,	 1.6806256834020852e+00 
2.5145870000000001e+00,	 4.7477409999999998e-01,	 1.8181318316792632e-02,	 7.4246204619178616e+02,	 5.0324664602751952e+01,	 5.3064125773370188e+02,	 2.7755964387873942e+03,	 4.4204904879713280e+02,	 1.6834457999426773e+00 
2.5220549999999999e+00,	 4.7477100000000000e-01,	 1.8117211633176138e-02,	 7.4324766581053314e+02,	 5.0600611959751255e+01,	 5.3002195612426556e+02,	 2.7625818586692030e+03,	 4.4179101985048050e+02,	 1.6862455244497694e+00 
2.5295230000000002e+00,	 4.7476800000000002e-01,	 1.8054177091944748e-02,	 7.4404587265071405e+02,	 5.0883829692756173e+01,	 5.2941390461196522e+02,	 2.7498118493257807e+03,	 4.4153753149613931e+02,	 1.6890608661781603e+00 
2.5369899999999999e+00,	 4.7476499999999999e-01,	 1.7992775767097950e-02,	 7.4487125647624111e+02,	 5.1177113384999338e+01,	 5.2882423006661622e+02,	 2.7374074878328088e+03,	 4.4129156517270542e+02,	 1.6919137652028791e+00 
2.5444580000000001e+00,	 4.7476190000000001e-01,	 1.7932864179163462e-02,	 7.4572075573251652e+02,	 5.1480834515286290e+01,	 5.2825158411374764e+02,	 2.7253382073458283e+03,	 4.4105257056670814e+02,	 1.6947994031030220e+00 
2.5519259999999999e+00,	 4.7475889999999998e-01,	 1.7873852372382766e-02,	 7.4658080155093990e+02,	 5.1793253602927052e+01,	 5.2768906820482198e+02,	 2.7134773534758287e+03,	 4.4081767759317637e+02,	 1.6976977882028776e+00 
2.5593940000000002e+00,	 4.7475580000000001e-01,	 1.7815147883408614e-02,	 7.4743709833468733e+02,	 5.2109584978654489e+01,	 5.2712948853984983e+02,	 2.7016972537569050e+03,	 4.4058388647172103e+02,	 1.7005873325302121e+00 
2.5668620000000000e+00,	 4.7475279999999997e-01,	 1.7756465980253058e-02,	 7.4828373666011532e+02,	 5.2425390451913124e+01,	 5.2656900605881924e+02,	 2.6899348649822005e+03,	 4.4034959373045649e+02,	 1.7034601208017641e+00 
2.5743299999999998e+00,	 4.7474970000000000e-01,	 1.7697851984937004e-02,	 7.4912244280693017e+02,	 5.2736097683627250e+01,	 5.2600762735671856e+02,	 2.6781971140629939e+03,	 4.4011480132731884e+02,	 1.7063193112216357e+00 
2.5817980000000000e+00,	 4.7474670000000002e-01,	 1.7639446465230454e-02,	 7.4995831934093633e+02,	 5.3039125168320538e+01,	 5.2544655385469343e+02,	 2.6665113595832427e+03,	 4.3988001135012183e+02,	 1.7091740868642542e+00 
2.5892659999999998e+00,	 4.7474359999999999e-01,	 1.7581251836004730e-02,	 7.5079219285787269e+02,	 5.3331758935529805e+01,	 5.2488558017365733e+02,	 2.6548768110545275e+03,	 4.3964513778980808e+02,	 1.7120261964376564e+00 
2.5967340000000001e+00,	 4.7474060000000001e-01,	 1.7523042004477889e-02,	 7.5161988780240767e+02,	 5.3612357828498794e+01,	 5.2432200805512832e+02,	 2.6432456538101310e+03,	 4.3940904987349143e+02,	 1.7148702838525403e+00 
2.6042019999999999e+00,	 4.7473749999999998e-01,	 1.7464489238959290e-02,	 7.5243382044774285e+02,	 5.3878687592270893e+01,	 5.2375220656763213e+02,	 2.6315503994940359e+03,	 4.3917022336350709e+02,	 1.7176947101764199e+00 
2.6116700000000002e+00,	 4.7473440000000000e-01,	 1.7405356217885481e-02,	 7.5322937333338848e+02,	 5.4130014973235085e+01,	 5.2317375379849523e+02,	 2.6197436837602377e+03,	 4.3892763783340371e+02,	 1.7204928581022445e+00 
2.6191380000000000e+00,	 4.7473140000000003e-01,	 1.7345657117171349e-02,	 7.5400734016264425e+02,	 5.4366087996397439e+01,	 5.2258736819985370e+02,	 2.6078319543503007e+03,	 4.3868158859651834e+02,	 1.7232653348626739e+00 
2.6266060000000002e+00,	 4.7472829999999999e-01,	 1.7285697942260855e-02,	 7.5477617002365776e+02,	 5.4589366960820939e+01,	 5.2199728593746943e+02,	 2.5958829269224379e+03,	 4.3843384883654153e+02,	 1.7260247849888422e+00 
2.6340729999999999e+00,	 4.7472520000000001e-01,	 1.7226013883306315e-02,	 7.5554899631114677e+02,	 5.4803553743462160e+01,	 5.2141040001068529e+02,	 2.5840113664886308e+03,	 4.3818731209443592e+02,	 1.7287902886373629e+00 
2.6415410000000001e+00,	 4.7472219999999998e-01,	 1.7167186172577276e-02,	 7.5634015666651874e+02,	 5.5014254882710119e+01,	 5.2083402995012534e+02,	 2.5723402103013132e+03,	 4.3794505773876330e+02,	 1.7315832252166550e+00 
2.6490089999999999e+00,	 4.7471910000000000e-01,	 1.7117992752697736e-02,	 7.5697620066669947e+02,	 5.5208775584906533e+01,	 5.2036282998891534e+02,	 2.5626485079208492e+03,	 4.3774690787045773e+02,	 1.7338484773732203e+00 
2.2756099999999999e+00,	 4.8063090000000003e-01,	 2.0361287412598485e-02,	 7.1628885934018035e+02,	 4.0250559763917678e+01,	 5.4971700259025226e+02,	 3.2201369443686340e+03,	 4.4992439199676693e+02,	 1.5945320692420688e+00 
2.2830780000000002e+00,	 4.8062800000000000e-01,	 2.0302404530463867e-02,	 7.1702579840815406e+02,	 4.0697851964896820e+01,	 5.4918942776113397e+02,	 3.2077431233683310e+03,	 4.4970843927710479e+02,	 1.5969899536599306e+00 
2.2905460000000000e+00,	 4.8062519999999997e-01,	 2.0232855944117507e-02,	 7.1800795901157448e+02,	 4.1152224814957165e+01,	 5.4855847203560143e+02,	 3.1930818680479447e+03,	 4.4945003330183664e+02,	 1.6001473961536221e+00 
2.2980139999999998e+00,	 4.8062230000000000e-01,	 2.0164225789235823e-02,	 7.1899981226465059e+02,	 4.1571737595471873e+01,	 5.4793612468273022e+02,	 3.1786405771364298e+03,	 4.4919500723565045e+02,	 1.6033139567690955e+00 
2.3054809999999999e+00,	 4.8061949999999998e-01,	 2.0095904005875589e-02,	 7.1998954435963651e+02,	 4.1972530423462054e+01,	 5.4731449402186115e+02,	 3.1642765612965209e+03,	 4.4894013023559040e+02,	 1.6064768418439668e+00 
2.3129490000000001e+00,	 4.8061660000000000e-01,	 2.0027210120337417e-02,	 7.2096207323417593e+02,	 4.2370239574853954e+01,	 5.4668597314706312e+02,	 3.1498387591309124e+03,	 4.4868228095370984e+02,	 1.6096156670358619e+00 
2.3204170000000000e+00,	 4.8061379999999998e-01,	 1.9957692634396514e-02,	 7.2190729964988986e+02,	 4.2771898921347685e+01,	 5.4604624286971045e+02,	 3.1352320533443572e+03,	 4.4841968078161017e+02,	 1.6127152871928951e+00 
2.3278850000000002e+00,	 4.8061090000000001e-01,	 1.9887242866401776e-02,	 7.2282253208046393e+02,	 4.3175919739372986e+01,	 5.4539516012721253e+02,	 3.1204396998377792e+03,	 4.4815226259036962e+02,	 1.6157697837555318e+00 
2.3353530000000000e+00,	 4.8060809999999998e-01,	 1.9816034723525305e-02,	 7.2371130928619732e+02,	 4.3577260697362604e+01,	 5.4473553809230771e+02,	 3.1055062045454147e+03,	 4.4788117424563563e+02,	 1.6187822478941349e+00 
2.3428209999999998e+00,	 4.8060520000000001e-01,	 1.9744332256492796e-02,	 7.2457939865074138e+02,	 4.3973710889140456e+01,	 5.4407070480904588e+02,	 3.0904927587993034e+03,	 4.4760777807452160e+02,	 1.6217602985250006e+00 
2.3502890000000001e+00,	 4.8060239999999999e-01,	 1.9672393775187452e-02,	 7.2543102121502966e+02,	 4.4368202950021583e+01,	 5.4340215152354176e+02,	 3.0754487909334225e+03,	 4.4733268364845628e+02,	 1.6247115104454195e+00 
2.3577569999999999e+00,	 4.8059950000000001e-01,	 1.9600375404432616e-02,	 7.2627045085591863e+02,	 4.4765499407719744e+01,	 5.4273043826074968e+02,	 3.0604022033273422e+03,	 4.4705611848340169e+02,	 1.6276452323861068e+00 
2.3652250000000001e+00,	 4.8059659999999998e-01,	 1.9528344866362804e-02,	 7.2710348991537876e+02,	 4.5169027922152573e+01,	 5.4205730426372747e+02,	 3.0453735710714009e+03,	 4.4677879661507200e+02,	 1.6305723026298213e+00 
2.3726929999999999e+00,	 4.8059380000000002e-01,	 1.9456443040297203e-02,	 7.2793565809485699e+02,	 4.5578399533568273e+01,	 5.4138548673158107e+02,	 3.0304002532775371e+03,	 4.4650184537265841e+02,	 1.6335009030251773e+00 
2.3801610000000002e+00,	 4.8059089999999999e-01,	 1.9384885352380723e-02,	 7.2877072838447589e+02,	 4.5989296110919049e+01,	 5.4071686107352127e+02,	 3.0155260643183542e+03,	 4.4622603928669400e+02,	 1.6364360357600891e+00 
2.3876290000000000e+00,	 4.8058800000000002e-01,	 1.9313856674592785e-02,	 7.2961028647744797e+02,	 4.6394897482331999e+01,	 5.4005206740433869e+02,	 3.0007828886674465e+03,	 4.4595164477153793e+02,	 1.6393792919756411e+00 
2.3950969999999998e+00,	 4.8058519999999999e-01,	 1.9243405798275121e-02,	 7.3045367427130452e+02,	 4.6787097454937701e+01,	 5.3939105979580222e+02,	 2.9861775050174697e+03,	 4.4567864546002028e+02,	 1.6423280632996635e+00 
2.4025650000000001e+00,	 4.8058230000000002e-01,	 1.9173487106364719e-02,	 7.3129763732591334e+02,	 4.7158779506626317e+01,	 5.3873292037207193e+02,	 2.9716972202414449e+03,	 4.4540666448296940e+02,	 1.6452753608875827e+00 
2.4100329999999999e+00,	 4.8057939999999999e-01,	 1.9104035245656886e-02,	 7.3213772938494503e+02,	 4.7506068107855839e+01,	 5.3807623025896521e+02,	 2.9573236439125953e+03,	 4.4513511681033128e+02,	 1.6482127357767964e+00 
2.4175010000000001e+00,	 4.8057660000000002e-01,	 1.9034958797474355e-02,	 7.3297152570390688e+02,	 4.7829891058279543e+01,	 5.3742072217144221e+02,	 2.9430408263827881e+03,	 4.4486389260954456e+02,	 1.6511352000022534e+00 
2.4249689999999999e+00,	 4.8057369999999999e-01,	 1.8966259311237361e-02,	 7.3380082064240241e+02,	 4.8136069987011318e+01,	 5.3676808385555114e+02,	 2.9288579331898982e+03,	 4.4459369143540243e+02,	 1.6540449440138187e+00 
2.4324370000000002e+00,	 4.8057080000000002e-01,	 1.8898094541849594e-02,	 7.3463030396621457e+02,	 4.8434019455650521e+01,	 5.3612123255148140e+02,	 2.9148147742164056e+03,	 4.4432572402880925e+02,	 1.6569492945849298e+00 
2.4399050000000000e+00,	 4.8056789999999999e-01,	 1.8830489379192426e-02,	 7.3546371465524908e+02,	 4.8733423712573163e+01,	 5.3548275393669587e+02,	 2.9009285525372006e+03,	 4.4406106655042413e+02,	 1.6598539999125823e+00 
2.4473729999999998e+00,	 4.8056500000000002e-01,	 1.8763376169048079e-02,	 7.3629756767419440e+02,	 4.9039641927637597e+01,	 5.3485104517827347e+02,	 2.8871794087912212e+03,	 4.4379905993741119e+02,	 1.6627544340319307e+00 
2.4548399999999999e+00,	 4.8056219999999999e-01,	 1.8696809040961986e-02,	 7.3712930176796044e+02,	 4.9352816082939924e+01,	 5.3422442320087907e+02,	 2.8735659487947346e+03,	 4.4353901020269615e+02,	 1.6656474181135330e+00 
2.4623080000000002e+00,	 4.8055930000000002e-01,	 1.8630972019243783e-02,	 7.3796393747208481e+02,	 4.9669078842410507e+01,	 5.3360549861865491e+02,	 2.8601298281920349e+03,	 4.4328200514912112e+02,	 1.6685395365465681e+00 
2.4697760000000000e+00,	 4.8055639999999999e-01,	 1.8566273731569247e-02,	 7.3881102720680246e+02,	 4.9981692906173379e+01,	 5.3299925306803948e+02,	 2.8469594870127157e+03,	 4.4303012045371213e+02,	 1.6714433892453502e+00 
2.4772439999999998e+00,	 4.8055350000000002e-01,	 1.8503005759922204e-02,	 7.3967742893180139e+02,	 5.0284679855682562e+01,	 5.3240863479500081e+02,	 2.8341139770154582e+03,	 4.4278459083019152e+02,	 1.6743687521192869e+00 
2.4847120000000000e+00,	 4.8055059999999999e-01,	 1.8441017063721362e-02,	 7.4056026854496622e+02,	 5.0576089418268452e+01,	 5.3183138760956240e+02,	 2.8215566358932360e+03,	 4.4254448815322991e+02,	 1.6773122480387770e+00 
2.4921799999999998e+00,	 4.8054770000000002e-01,	 1.8379618998603551e-02,	 7.4144406483191972e+02,	 5.0858609622730206e+01,	 5.3125910494134291e+02,	 2.8091364056440343e+03,	 4.4230632177759315e+02,	 1.6802525282623950e+00 
2.4996480000000001e+00,	 4.8054479999999999e-01,	 1.8317882557179962e-02,	 7.4230725042625477e+02,	 5.1137762585890300e+01,	 5.3068070560213084e+02,	 2.7966524966961292e+03,	 4.4206547945380606e+02,	 1.6831592778172566e+00 