TITLE = "Final State"
VARIABLES = "X", "Y", "rho", "u", "v", "T", "p", "c", "M"
ZONE I=51, J=46, DATAPACKING=POINT
2.2755350000000001e+00,	 7.4007970000000001e-01,	 2.0122720772717057e-02,	 7.8553790122949135e+02,	 1.0516725767951087e+02,	 4.9138690456543992e+02,	 2.8447245235920605e+03,	 4.2538457987605659e+02,	 1.8631293475438324e+00 
2.2830040000000000e+00,	 7.4008059999999998e-01,	 2.0075147338158593e-02,	 7.8625918360162882e+02,	 1.0556713648191290e+02,	 4.9083978071604167e+02,	 2.8348392179230891e+03,	 4.2514769640704327e+02,	 1.8659739297031508e+00 
2.2904730000000000e+00,	 7.4008140000000000e-01,	 2.0018337558512060e-02,	 7.8711850424708905e+02,	 1.0600961607729175e+02,	 4.9020771857821916e+02,	 2.8231768937224824e+03,	 4.2487387352546699e+02,	 1.8693197979497802e+00 
2.2979409999999998e+00,	 7.4008229999999997e-01,	 1.9960892187750452e-02,	 7.8795392362053008e+02,	 1.0645894955212269e+02,	 4.8958167276792108e+02,	 2.8114802580385594e+03,	 4.2460248297311415e+02,	 1.8726059420745329e+00 
2.3054100000000002e+00,	 7.4008320000000005e-01,	 1.9903375129850083e-02,	 7.8877290671670266e+02,	 1.0692110766698622e+02,	 4.8896453008040709e+02,	 2.7998452109663067e+03,	 4.2433478203276604e+02,	 1.8758459843490134e+00 
2.3128790000000001e+00,	 7.4008410000000002e-01,	 1.9845809546290533e-02,	 7.8958833552523549e+02,	 1.0741042345716257e+02,	 4.8835454178058728e+02,	 2.7882646184193727e+03,	 4.2407001842224753e+02,	 1.8790777865998549e+00 
2.3203480000000001e+00,	 7.4008499999999999e-01,	 1.9787899103806898e-02,	 7.9039720998608573e+02,	 1.0793323713250564e+02,	 4.8774715364812727e+02,	 2.7766706416413272e+03,	 4.2380621905753799e+02,	 1.8823051297162587e+00 
2.3278159999999999e+00,	 7.4008589999999996e-01,	 1.9729137226745862e-02,	 7.9118462748028014e+02,	 1.0848518869985789e+02,	 4.8713607656046929e+02,	 2.7649566393638534e+03,	 4.2354065170914168e+02,	 1.8855040107889673e+00 
2.3352849999999998e+00,	 7.4008680000000004e-01,	 1.9668912845969062e-02,	 7.9193702933742293e+02,	 1.0905680124103847e+02,	 4.8651415438959617e+02,	 2.7529972232181603e+03,	 4.2327020012382440e+02,	 1.8886536555351505e+00 
2.3427539999999998e+00,	 7.4008770000000001e-01,	 1.9607083848443750e-02,	 7.9265536056711721e+02,	 1.0964260049847618e+02,	 4.8587906853254646e+02,	 2.7407607978450155e+03,	 4.2299384567612680e+02,	 1.8917591718035058e+00 
2.3502220000000000e+00,	 7.4008870000000004e-01,	 1.9544538507636208e-02,	 7.9335755022767898e+02,	 1.1024170185684612e+02,	 4.8523909284627240e+02,	 2.7284194687239615e+03,	 4.2271518068209213e+02,	 1.8948463009455550e+00 
2.3576910000000000e+00,	 7.4008960000000001e-01,	 1.9482791578954710e-02,	 7.9408861642543548e+02,	 1.1086052872076260e+02,	 4.8460975826106454e+02,	 2.7162721264351708e+03,	 4.2244096988582385e+02,	 1.8979923762207649e+00 
2.3651599999999999e+00,	 7.4009049999999998e-01,	 1.9423405238149085e-02,	 7.9488891395689961e+02,	 1.1150156965128147e+02,	 4.8400003180267504e+02,	 2.7045853968185147e+03,	 4.2217513278543555e+02,	 1.9012753102242290e+00 
2.3726280000000002e+00,	 7.4009139999999995e-01,	 1.9367608423063579e-02,	 7.9571788562753238e+02,	 1.1216683897944731e+02,	 4.8340602871437017e+02,	 2.6935063001290473e+03,	 4.2191598990768642e+02,	 1.9046082840394931e+00 
2.3800970000000001e+00,	 7.4009230000000004e-01,	 1.9314966106045640e-02,	 7.9654743194915307e+02,	 1.1284819982782608e+02,	 4.8282379295383481e+02,	 2.6829498279206391e+03,	 4.2166182614412241e+02,	 1.9079303973554156e+00 
2.3875660000000001e+00,	 7.4009320000000001e-01,	 1.9263814371940819e-02,	 7.9739654727421748e+02,	 1.1354017308901425e+02,	 4.8225394817704267e+02,	 2.6726864632734496e+03,	 4.2141292299174421e+02,	 1.9112831013610705e+00 
2.3950350000000000e+00,	 7.4009409999999998e-01,	 1.9212817942196030e-02,	 7.9824371248019679e+02,	 1.1423270992861055e+02,	 4.8168543837571019e+02,	 2.6624687709296581e+03,	 4.2116445636257583e+02,	 1.9146343319522681e+00 
2.4025029999999998e+00,	 7.4009499999999995e-01,	 1.9160773976424766e-02,	 7.9905792782602668e+02,	 1.1491896382583627e+02,	 4.8112147556304308e+02,	 2.6521478312978124e+03,	 4.2091783207594852e+02,	 1.9179024577074504e+00 
2.4099719999999998e+00,	 7.4009599999999998e-01,	 1.9106642886083044e-02,	 7.9981594336101955e+02,	 1.1560272346270131e+02,	 4.8058588407787511e+02,	 2.6417111811265081e+03,	 4.2068348088399813e+02,	 1.9209862353287452e+00 
2.4174410000000002e+00,	 7.4009689999999995e-01,	 1.9049868702139129e-02,	 8.0050756000533579e+02,	 1.1628666509580320e+02,	 4.8008286573306930e+02,	 2.6311046999137948e+03,	 4.2046326331572050e+02,	 1.9238535084952275e+00 
2.4249090000000000e+00,	 7.4009780000000003e-01,	 1.8990658488694738e-02,	 8.0112750210016816e+02,	 1.1696207380183367e+02,	 4.7959555989779398e+02,	 2.6202643921750036e+03,	 4.2024981451657771e+02,	 1.9265220382027224e+00 
2.4323779999999999e+00,	 7.4009870000000000e-01,	 1.8929594341439655e-02,	 8.0168269780221658e+02,	 1.1762798736646482e+02,	 4.7912091082006748e+02,	 2.6092540746703712e+03,	 4.2004180532981411e+02,	 1.9290134901729954e+00 
2.4398469999999999e+00,	 7.4009959999999997e-01,	 1.8867396917793849e-02,	 8.0219370987672460e+02,	 1.1828879456192075e+02,	 4.7866425609435544e+02,	 2.5982020520209121e+03,	 4.1984158467797096e+02,	 1.9313666749872964e+00 
2.4473159999999998e+00,	 7.4010060000000000e-01,	 1.8805021653376670e-02,	 8.0268130560058421e+02,	 1.1894524176597659e+02,	 4.7823018254332140e+02,	 2.5872640710928167e+03,	 4.1965117620248230e+02,	 1.9336211575957227e+00 
2.4547840000000001e+00,	 7.4010149999999997e-01,	 1.8743737723941237e-02,	 8.0315816484085326e+02,	 1.1959131184679603e+02,	 4.7781016119896663e+02,	 2.5765674584438743e+03,	 4.1946684951556568e+02,	 1.9358216400786243e+00 
2.4622530000000000e+00,	 7.4010240000000005e-01,	 1.8684260059288572e-02,	 8.0362403850177816e+02,	 1.2022176042254334e+02,	 4.7740185518871658e+02,	 2.5661967064898022e+03,	 4.1928758643726923e+02,	 1.9379701778135443e+00 
2.4697220000000000e+00,	 7.4010339999999997e-01,	 1.8625620689329478e-02,	 8.0406122639644241e+02,	 1.2083009580036421e+02,	 4.7700560760505357e+02,	 2.5560195799837093e+03,	 4.1911354419146801e+02,	 1.9400217637260868e+00 
2.4771899999999998e+00,	 7.4010430000000005e-01,	 1.8566215393317563e-02,	 8.0444679433225076e+02,	 1.2140586221880562e+02,	 4.7660963393482245e+02,	 2.5457522643008401e+03,	 4.1893955002725210e+02,	 1.9419422384770990e+00 
2.4846590000000002e+00,	 7.4010520000000002e-01,	 1.8505677437870332e-02,	 8.0477781620015469e+02,	 1.2194119134180426e+02,	 4.7621060206627362e+02,	 2.5353270233221579e+03,	 4.1876413893168439e+02,	 1.9437284024907153e+00 
2.4921280000000001e+00,	 7.4010620000000005e-01,	 1.8444564433331048e-02,	 8.0507144439324338e+02,	 1.2243295940702977e+02,	 4.7581291412350470e+02,	 2.5248440958590718e+03,	 4.1858924547911676e+02,	 1.9454103675127050e+00 
2.4995970000000001e+00,	 7.4010710000000002e-01,	 1.8383053824564302e-02,	 8.0534253060235824e+02,	 1.2287654454999503e+02,	 4.7541764520647621e+02,	 2.5143335641504514e+03,	 4.1841534341697349e+02,	 1.9470190683989599e+00 
2.5070649999999999e+00,	 7.4010810000000005e-01,	 1.8320714265833912e-02,	 8.0561907333828890e+02,	 1.2328911512474055e+02,	 4.7502081231298484e+02,	 2.5037154936508628e+03,	 4.1824068053234174e+02,	 1.9486347928248955e+00 
2.5145339999999998e+00,	 7.4010900000000002e-01,	 1.8253575296019141e-02,	 8.0596182812264783e+02,	 1.2373110534693964e+02,	 4.7461146541128767e+02,	 2.4923905994722245e+03,	 4.1806043324413184e+02,	 1.9504455346313885e+00 
2.5220030000000002e+00,	 7.4010989999999999e-01,	 1.8174114153742767e-02,	 8.0648081220490826e+02,	 1.2483177003953068e+02,	 4.7389577865357842e+02,	 2.4777987480696006e+03,	 4.1774510879756480e+02,	 1.9535470397040833e+00 
2.5294720000000002e+00,	 7.4011090000000002e-01,	 1.8107857151965473e-02,	 8.0681491362158079e+02,	 1.2583332539579888e+02,	 4.7321278323541685e+02,	 2.4652074146450768e+03,	 4.1744396571412892e+02,	 1.9561155483824400e+00 
2.5369400000000000e+00,	 7.4011179999999999e-01,	 1.8050299835768210e-02,	 8.0650419856750057e+02,	 1.2628652441991612e+02,	 4.7262709804140593e+02,	 2.4543301142769037e+03,	 4.1718555506273913e+02,	 1.9567590653006111e+00 
2.5444089999999999e+00,	 7.4011280000000002e-01,	 1.8243739522907435e-02,	 8.0308661731992447e+02,	 1.2216022866187879e+02,	 4.7415878766829059e+02,	 2.4886716712790781e+03,	 4.1786101560055960e+02,	 1.9440066379576726e+00 
2.5518779999999999e+00,	 7.4011380000000004e-01,	 1.9209001006966139e-02,	 7.9176745722383441e+02,	 1.0233219934800101e+02,	 4.8342154325332660e+02,	 2.6715340708133795e+03,	 4.2192276038545555e+02,	 1.8921781911518896e+00 
2.5593460000000001e+00,	 7.4011470000000001e-01,	 2.1072597687653561e-02,	 7.7126206271845376e+02,	 6.4871740233351318e+01,	 5.0262572996371421e+02,	 3.0471422584659194e+03,	 4.3022169994661192e+02,	 1.7990386651182690e+00 
2.5668150000000001e+00,	 7.4011570000000004e-01,	 2.2993596560612894e-02,	 7.4989693982441759e+02,	 2.6670070357905558e+01,	 5.2244356710068109e+02,	 3.4560198687487054e+03,	 4.3862122812981437e+02,	 1.7107495080007618e+00 
2.5742840000000000e+00,	 7.4011660000000001e-01,	 2.4237254984629263e-02,	 7.3658797301322841e+02,	 2.4919571538535363e+00,	 5.3430361805925963e+02,	 3.7256451180063464e+03,	 4.4357188468940711e+02,	 1.6605925977428777e+00 
2.5817530000000000e+00,	 7.4011760000000004e-01,	 2.4827697131465952e-02,	 7.3152881491029530e+02,	 -7.8210540640274049e+00,	 5.3955407658385843e+02,	 3.8539081020545523e+03,	 4.4574598770775037e+02,	 1.6412276113047206e+00 
2.5892210000000002e+00,	 7.4011859999999996e-01,	 2.5028095906363089e-02,	 7.3081998375610249e+02,	 -1.1352032739762429e+01,	 5.4133174763754050e+02,	 3.8978152102735266e+03,	 4.4647968445339251e+02,	 1.6370468154557447e+00 
2.5966900000000002e+00,	 7.4011950000000004e-01,	 2.5065212932314791e-02,	 7.3120386953343973e+02,	 -1.2543612001014724e+01,	 5.4162091110768711e+02,	 3.9056809120766820e+03,	 4.4659891667925888e+02,	 1.6375128230397664e+00 
2.6041590000000001e+00,	 7.4012049999999996e-01,	 2.5044404097694969e-02,	 7.3186153590775029e+02,	 -1.3122417875800503e+01,	 5.4133037774917238e+02,	 3.9003451384081627e+03,	 4.4647911952466262e+02,	 1.6394477102744940e+00 
2.6116269999999999e+00,	 7.4012149999999999e-01,	 2.5005706380540185e-02,	 7.3264941444808562e+02,	 -1.3688034749101554e+01,	 5.4087977355450812e+02,	 3.8910768282892368e+03,	 4.4629325590372002e+02,	 1.6419187605197922e+00 
2.6190959999999999e+00,	 7.4012250000000002e-01,	 2.4963474965746531e-02,	 7.3342332388151897e+02,	 -1.4352899640871581e+01,	 5.4042570043983642e+02,	 3.8812442262534128e+03,	 4.4610588310103486e+02,	 1.6443713912834086e+00 
2.6265649999999998e+00,	 7.4012339999999999e-01,	 2.4924784615995371e-02,	 7.3415572490620309e+02,	 -1.5024654807806661e+01,	 5.4000607392545828e+02,	 3.8722197553512246e+03,	 4.4593265465418301e+02,	 1.6466823914865865e+00 
2.6340340000000002e+00,	 7.4012440000000002e-01,	 2.4890265183538166e-02,	 7.3484358297788037e+02,	 -1.5682459497651525e+01,	 5.3961521092766020e+02,	 3.8640580692628614e+03,	 4.4577123968691581e+02,	 1.6488522361013471e+00 
2.6415020000000000e+00,	 7.4012540000000004e-01,	 2.4858436504889690e-02,	 7.3552741305898394e+02,	 -1.6322975638355690e+01,	 5.3923933570179224e+02,	 3.8564287533229149e+03,	 4.4561595908125537e+02,	 1.6509922887353476e+00 
2.6489710000000000e+00,	 7.4012639999999996e-01,	 2.4835003275802278e-02,	 7.3609943687335272e+02,	 -1.6858898433083432e+01,	 5.3893962040470842e+02,	 3.8506519990084316e+03,	 4.4549210268380273e+02,	 1.6527621184564891e+00 
2.2755350000000001e+00,	 7.4584609999999996e-01,	 2.0051456083067160e-02,	 7.8499120094954424e+02,	 1.0638922922952460e+02,	 4.9158051887767266e+02,	 2.8357668187047507e+03,	 4.2546837579212252e+02,	 1.8618723839453124e+00 
2.2830029999999999e+00,	 7.4584709999999999e-01,	 2.0004790718243702e-02,	 7.8575288561845798e+02,	 1.0678315210525895e+02,	 4.9102425082040395e+02,	 2.8259657336502096e+03,	 4.2522757957429104e+02,	 1.8648262674789446e+00 
2.2904719999999998e+00,	 7.4584799999999996e-01,	 1.9949264009939620e-02,	 7.8666279881149046e+02,	 1.0721929224617935e+02,	 4.9038370616643897e+02,	 2.8144455237472471e+03,	 4.2495013284954604e+02,	 1.8683038683435100e+00 
2.2979409999999998e+00,	 7.4584899999999998e-01,	 1.9893453196761713e-02,	 7.8754857127929051e+02,	 1.0766538887059667e+02,	 4.8974983946948993e+02,	 2.8029439690018344e+03,	 4.2467540019245996e+02,	 1.8717211885038914e+00 
2.3054100000000002e+00,	 7.4585000000000001e-01,	 1.9837525763941752e-02,	 7.8842336874716386e+02,	 1.0813263908974879e+02,	 4.8912196491252200e+02,	 2.7914805572069563e+03,	 4.2440308933781438e+02,	 1.8751136919750484e+00 
2.3128780000000000e+00,	 7.4585089999999998e-01,	 1.9781363973270294e-02,	 7.8929846403696888e+02,	 1.0863222428444388e+02,	 4.8849650390969157e+02,	 2.7800181499775608e+03,	 4.2413165141948264e+02,	 1.8785181250051068e+00 
2.3203469999999999e+00,	 7.4585190000000001e-01,	 1.9724800140938012e-02,	 7.9016553390477509e+02,	 1.0916287942590651e+02,	 4.8786981012604116e+02,	 2.7685125292336220e+03,	 4.2385950415626485e+02,	 1.8819217597106050e+00 
2.3278159999999999e+00,	 7.4585290000000004e-01,	 1.9667348918479967e-02,	 7.9100741454292825e+02,	 1.0971680869256693e+02,	 4.8723578198469971e+02,	 2.7568614145312413e+03,	 4.2358399395145500e+02,	 1.8852938713024174e+00 
2.3352840000000001e+00,	 7.4585389999999996e-01,	 1.9608379414469284e-02,	 7.9181278669566086e+02,	 1.1028805355584501e+02,	 4.8658694957074596e+02,	 2.7449351973413859e+03,	 4.2330186505909001e+02,	 1.8886206781329966e+00 
2.3427530000000001e+00,	 7.4585480000000004e-01,	 1.9547883750117540e-02,	 7.9258492838360769e+02,	 1.1087589890999982e+02,	 4.8592179105104424e+02,	 2.7327258214507970e+03,	 4.2301244183136185e+02,	 1.8919127953401669e+00 
2.3502220000000000e+00,	 7.4585579999999996e-01,	 1.9486969352938716e-02,	 7.9334453013931272e+02,	 1.1148293330092366e+02,	 4.8525007683808866e+02,	 2.7204443884085185e+03,	 4.2271996499757529e+02,	 1.8952007184480180e+00 
2.3576910000000000e+00,	 7.4585679999999999e-01,	 1.9427456176103131e-02,	 7.9411577615708757e+02,	 1.1211446062107512e+02,	 4.8458937133411234e+02,	 2.7084433719904432e+03,	 4.2243208401051214e+02,	 1.8985086639140731e+00 
2.3651589999999998e+00,	 7.4585780000000002e-01,	 1.9370658934994643e-02,	 7.9491924255462379e+02,	 1.1277346355293868e+02,	 4.8395724724012450e+02,	 2.6970023799584833e+03,	 4.2215647268586946e+02,	 1.9018513447818677e+00 
2.3726280000000002e+00,	 7.4585880000000004e-01,	 1.9316559337726087e-02,	 7.9578870617834957e+02,	 1.1346114616922755e+02,	 4.8336508809934821e+02,	 2.6861792470273281e+03,	 4.2189812307852458e+02,	 1.9052857603392130e+00 
2.3800970000000001e+00,	 7.4585979999999996e-01,	 1.9264606578800299e-02,	 7.9671573008144594e+02,	 1.1416827115866715e+02,	 4.8280571318687214e+02,	 2.6758544226532890e+03,	 4.2165393131889425e+02,	 1.9088028851916394e+00 
2.3875660000000001e+00,	 7.4586070000000004e-01,	 1.9213861568823948e-02,	 7.9765410931496376e+02,	 1.1488332142807525e+02,	 4.8226004889036011e+02,	 2.6657896698348682e+03,	 4.2141558850781763e+02,	 1.9123278486019950e+00 
2.3950339999999999e+00,	 7.4586169999999996e-01,	 1.9163222934222672e-02,	 7.9857070286544968e+02,	 1.1559685157118368e+02,	 4.8171179886948767e+02,	 2.6557413360301721e+03,	 4.2117598043021292e+02,	 1.9158118182930159e+00 
2.4025029999999998e+00,	 7.4586269999999999e-01,	 1.9112081646380213e-02,	 7.9944581950366148e+02,	 1.1630578714297720e+02,	 4.8113710299138808e+02,	 2.6454939849659313e+03,	 4.2092466798972561e+02,	 1.9192550133797102e+00 
2.4099719999999998e+00,	 7.4586370000000002e-01,	 1.9060205473398189e-02,	 8.0026626385692714e+02,	 1.1701173859967902e+02,	 4.8052483806258937e+02,	 2.6349559339006291e+03,	 4.2065676155386842e+02,	 1.9226495158500732e+00 
2.4174400000000000e+00,	 7.4586470000000005e-01,	 1.9007171757705284e-02,	 8.0101452704308770e+02,	 1.1771565065841051e+02,	 4.7989859199008788e+02,	 2.6241998867733687e+03,	 4.2038256081492551e+02,	 1.9259075876171909e+00 
2.4249090000000000e+00,	 7.4586569999999996e-01,	 1.8952341156213009e-02,	 8.0168376353371946e+02,	 1.1841527843975513e+02,	 4.7928726059232622e+02,	 2.6132965103019169e+03,	 4.2011471781715960e+02,	 1.9289541542773481e+00 
2.4323779999999999e+00,	 7.4586669999999999e-01,	 1.8895675901995972e-02,	 8.0228702203062358e+02,	 1.1911199331246146e+02,	 4.7869484205602362e+02,	 2.6022625804352206e+03,	 4.1985499810222842e+02,	 1.9318118062640988e+00 
2.4398469999999999e+00,	 7.4586770000000002e-01,	 1.8837802552649024e-02,	 8.0284531426771673e+02,	 1.1980705556121383e+02,	 4.7812134730600411e+02,	 2.5911843539612628e+03,	 4.1960342154806881e+02,	 1.9345299384694778e+00 
2.4473150000000001e+00,	 7.4586870000000005e-01,	 1.8779657294523671e-02,	 8.0337438288654130e+02,	 1.2049660317917537e+02,	 4.7758576302171468e+02,	 2.5802926898339269e+03,	 4.1936833900011248e+02,	 1.9371053496399504e+00 
2.4547840000000001e+00,	 7.4586969999999997e-01,	 1.8722179789615087e-02,	 8.0388449447381799e+02,	 1.2117133452226562e+02,	 4.7709930994104241e+02,	 2.5697752223287198e+03,	 4.1915470721876585e+02,	 1.9395354630841100e+00 
2.4622530000000000e+00,	 7.4587070000000000e-01,	 1.8665540827418600e-02,	 8.0437828260713013e+02,	 1.2182430065596029e+02,	 4.7665133387043994e+02,	 2.5595954420759481e+03,	 4.1895787673418067e+02,	 1.9418449004351994e+00 
2.4697209999999998e+00,	 7.4587170000000003e-01,	 1.8608764200755648e-02,	 8.0483663803218212e+02,	 1.2244807343302286e+02,	 4.7622217402940720e+02,	 2.5495121358713300e+03,	 4.1876922690507013e+02,	 1.9440253537503436e+00 
2.4771899999999998e+00,	 7.4587270000000006e-01,	 1.8550751626152447e-02,	 8.0523637069066513e+02,	 1.2303089185443028e+02,	 4.7579695663176619e+02,	 2.5392947105557664e+03,	 4.1858222623874570e+02,	 1.9460477620044641e+00 
2.4846590000000002e+00,	 7.4587369999999997e-01,	 1.8491449340748943e-02,	 8.0557804224804681e+02,	 1.2356732358447429e+02,	 4.7537332880549531e+02,	 2.5289235526114921e+03,	 4.1839584151747579e+02,	 1.9479159128261023e+00 
2.4921280000000001e+00,	 7.4587479999999995e-01,	 1.8431158022176042e-02,	 8.0588041752138793e+02,	 1.2405885777198378e+02,	 4.7495223403405168e+02,	 2.5184451397739281e+03,	 4.1821048894853317e+02,	 1.9496723828922848e+00 
2.4995959999999999e+00,	 7.4587579999999998e-01,	 1.8368924667991469e-02,	 8.0617014394678495e+02,	 1.2453009519198908e+02,	 4.7452092363475532e+02,	 2.5076622236553262e+03,	 4.1802055458283616e+02,	 1.9514150500597187e+00 
2.5070649999999999e+00,	 7.4587680000000001e-01,	 1.8302548328870964e-02,	 8.0649030850043391e+02,	 1.2505843442751214e+02,	 4.7405037620772441e+02,	 2.4961230766164103e+03,	 4.1781324308860252e+02,	 1.9533339849046940e+00 
2.5145339999999998e+00,	 7.4587780000000004e-01,	 1.8228418568692867e-02,	 8.0695060105794687e+02,	 1.2591531801495294e+02,	 4.7341332089622540e+02,	 2.4826723296673185e+03,	 4.1753240834740961e+02,	 1.9560525591551599e+00 
2.5220020000000001e+00,	 7.4587879999999995e-01,	 1.8153224609279532e-02,	 8.0727137762074449e+02,	 1.2667777082049925e+02,	 4.7281736102260675e+02,	 2.4693186320932255e+03,	 4.1726951870021020e+02,	 1.9583269164134403e+00 
2.5294710000000000e+00,	 7.4587990000000004e-01,	 1.8127159489168255e-02,	 8.0677818186732839e+02,	 1.2656701357333148e+02,	 4.7268464691623899e+02,	 2.4650809737933118e+03,	 4.1721095334035704e+02,	 1.9573928263514788e+00 
2.5369400000000000e+00,	 7.4588089999999996e-01,	 1.8374717684433588e-02,	 8.0316633123046563e+02,	 1.2062981249253400e+02,	 4.7549262889540648e+02,	 2.5135897776798665e+03,	 4.1844833870991766e+02,	 1.9409198285244136e+00 
2.5444089999999999e+00,	 7.4588189999999999e-01,	 1.9346006278579051e-02,	 7.9163892102818534e+02,	 9.8719141821861768e+01,	 4.8679752516767826e+02,	 2.7093781464159538e+03,	 4.2339344930866247e+02,	 1.8842294934624972e+00 
2.5518770000000002e+00,	 7.4588290000000002e-01,	 2.1173190546789847e-02,	 7.7150387530125181e+02,	 6.1473806051191154e+01,	 5.0626255734862343e+02,	 3.0838415246278378e+03,	 4.3177536289798809e+02,	 1.7924809940288429e+00 
2.5593460000000001e+00,	 7.4588399999999999e-01,	 2.3181569577954426e-02,	 7.5084281321469109e+02,	 2.5146303573472469e+01,	 5.2483831298073892e+02,	 3.5002438897973952e+03,	 4.3962534179979667e+02,	 1.7088727793942458e+00 
2.5668150000000001e+00,	 7.4588500000000002e-01,	 2.4526357640172247e-02,	 7.3770486179797649e+02,	 2.8548289031188308e+00,	 5.3619197856365815e+02,	 3.7834091245987124e+03,	 4.4435503944688429e+02,	 1.6601823321672151e+00 
2.5742840000000000e+00,	 7.4588600000000005e-01,	 2.5069790932403760e-02,	 7.3236363946972915e+02,	 -7.2737150810415256e+00,	 5.4099184244869025e+02,	 3.9018571559762595e+03,	 4.4633948891483300e+02,	 1.6409028944088060e+00 
2.5817519999999998e+00,	 7.4588710000000003e-01,	 2.5193302934400547e-02,	 7.3107515920804167e+02,	 -1.1017714964384281e+01,	 5.4221785373174123e+02,	 3.9299666043827592e+03,	 4.4684495639835171e+02,	 1.6362681632953888e+00 
2.5892210000000002e+00,	 7.4588810000000005e-01,	 2.5184016317731647e-02,	 7.3109167467216685e+02,	 -1.2223948905186724e+01,	 5.4217502183956128e+02,	 3.9282076328455514e+03,	 4.4682730704132018e+02,	 1.6364126565780717e+00 
2.5966900000000002e+00,	 7.4588920000000003e-01,	 2.5143442134338639e-02,	 7.3155625098984797e+02,	 -1.2705029372621603e+01,	 5.4177131973259793e+02,	 3.9189586432670894e+03,	 4.4666092283961933e+02,	 1.6380805442789128e+00 
2.6041580000000000e+00,	 7.4589019999999995e-01,	 2.5094745727422148e-02,	 7.3228147774310844e+02,	 -1.3156626220541348e+01,	 5.4132027462691678e+02,	 3.9081122619657212e+03,	 4.4647495307256446e+02,	 1.6404048048986912e+00 
2.6116269999999999e+00,	 7.4589130000000003e-01,	 2.5049623798867722e-02,	 7.3298285575636135e+02,	 -1.3675443221916064e+01,	 5.4088833363826666e+02,	 3.8979723995754975e+03,	 4.4629678745797946e+02,	 1.6426522402341257e+00 
2.6190959999999999e+00,	 7.4589229999999995e-01,	 2.5007006054017095e-02,	 7.3368842644585015e+02,	 -1.4270404341662962e+01,	 5.4044874632114158e+02,	 3.8881781059920986e+03,	 4.4611539485595409e+02,	 1.6449268576376734e+00 
2.6265649999999998e+00,	 7.4589340000000004e-01,	 2.4967844755318519e-02,	 7.3438548263785424e+02,	 -1.4915284350567033e+01,	 5.4001827018774213e+02,	 3.8789970216358347e+03,	 4.4593769041319683e+02,	 1.6471739138992849e+00 
2.6340330000000001e+00,	 7.4589439999999996e-01,	 2.4932568125167115e-02,	 7.3506293337819386e+02,	 -1.5558476054756309e+01,	 5.3960500109768805e+02,	 3.8705521020393576e+03,	 4.4576702254292155e+02,	 1.6493538878595884e+00 
2.6415020000000000e+00,	 7.4589550000000004e-01,	 2.4900030553828133e-02,	 7.3574423370839475e+02,	 -1.6179505248320467e+01,	 5.3920866953060056e+02,	 3.8626617921284633e+03,	 4.4560328796411665e+02,	 1.6515185841902822e+00 
2.6489710000000000e+00,	 7.4589660000000002e-01,	 2.4875659976184940e-02,	 7.3631835439103054e+02,	 -1.6703367861078469e+01,	 5.3889617958506369e+02,	 3.8566449084240958e+03,	 4.4547414804533946e+02,	 1.6533120744400063e+00 
2.2755339999999999e+00,	 7.5161230000000001e-01,	 1.9941658512808394e-02,	 7.8368795452759923e+02,	 1.0772090577748151e+02,	 4.9241793667221282e+02,	 2.8250430903203619e+03,	 4.2583061876698565e+02,	 1.8576790924873583e+00 
2.2830029999999999e+00,	 7.5161339999999999e-01,	 1.9896829010748011e-02,	 7.8452088838975385e+02,	 1.0811007700718426e+02,	 4.9183763244950694e+02,	 2.8153705310155415e+03,	 4.2557962856676733e+02,	 1.8608382565774022e+00 
2.2904719999999998e+00,	 7.5161440000000002e-01,	 1.9843525067732865e-02,	 7.8550798668076209e+02,	 1.0854321242813762e+02,	 4.9117523620794179e+02,	 2.8040465836113767e+03,	 4.2529295131110177e+02,	 1.8645310072898913e+00 
2.2979400000000001e+00,	 7.5161549999999999e-01,	 1.9790003332766662e-02,	 7.8647531338133876e+02,	 1.0899199222052887e+02,	 4.9052259490568747e+02,	 2.7927677572374105e+03,	 4.2501030675929206e+02,	 1.8681702419081558e+00 
2.3054090000000000e+00,	 7.5161650000000002e-01,	 1.9735895776575477e-02,	 7.8744016650837239e+02,	 1.0946993681805149e+02,	 4.8987224818245318e+02,	 2.7814394966015793e+03,	 4.2472846883806852e+02,	 1.8718147389089541e+00 
2.3128780000000000e+00,	 7.5161760000000000e-01,	 1.9681300009142137e-02,	 7.8840500889743976e+02,	 1.0997876482352656e+02,	 4.8922168107621940e+02,	 2.7700615214737736e+03,	 4.2444634817126820e+02,	 1.8754756950241773e+00 
2.3203469999999999e+00,	 7.5161860000000003e-01,	 1.9626316911859298e-02,	 7.8935598613460581e+02,	 1.1051017503729686e+02,	 4.8856858579717380e+02,	 2.7586352654983430e+03,	 4.2416294241339483e+02,	 1.8791226293589676e+00 
2.3278150000000002e+00,	 7.5161970000000000e-01,	 1.9570393878587923e-02,	 7.9027833227988162e+02,	 1.1105905402123102e+02,	 4.8790455662570821e+02,	 2.7470361715098666e+03,	 4.2387459770334965e+02,	 1.8827356844922103e+00 
2.3352840000000001e+00,	 7.5162070000000003e-01,	 1.9512956110440287e-02,	 7.9116590978319402e+02,	 1.1162644420093699e+02,	 4.8722132817410443e+02,	 2.7351383349766461e+03,	 4.2357771111216863e+02,	 1.8863170352383147e+00 
2.3427530000000001e+00,	 7.5162180000000001e-01,	 1.9454265905661579e-02,	 7.9202474723184287e+02,	 1.1221675924938350e+02,	 4.8651921095705222e+02,	 2.7229820522279706e+03,	 4.2327239973994909e+02,	 1.8898819616943738e+00 
2.3502220000000000e+00,	 7.5162280000000004e-01,	 1.9395658835021576e-02,	 7.9287787696558871e+02,	 1.1283558260071425e+02,	 4.8580936215239575e+02,	 2.7108179567491024e+03,	 4.2296350229510944e+02,	 1.8934648596414267e+00 
2.3576899999999998e+00,	 7.5162390000000001e-01,	 1.9338931348788738e-02,	 7.9375759174763425e+02,	 1.1348848379371597e+02,	 4.8510807585234363e+02,	 2.6989877523588261e+03,	 4.2265810921773993e+02,	 1.8971116590709636e+00 
2.3651589999999998e+00,	 7.5162490000000004e-01,	 1.9285239714671831e-02,	 7.9468146042001615e+02,	 1.1417662948761117e+02,	 4.8442615019349518e+02,	 2.6877109338682508e+03,	 4.2236093546947251e+02,	 1.9008428909062727e+00 
2.3726280000000002e+00,	 7.5162600000000002e-01,	 1.9234498087255233e-02,	 7.9564852172705650e+02,	 1.1489226380646258e+02,	 4.8376174488104652e+02,	 2.6769626862168907e+03,	 4.2207119560451758e+02,	 1.9046573156343871e+00 
2.3800960000000000e+00,	 7.5162700000000005e-01,	 1.9185857543415012e-02,	 7.9664659920142458e+02,	 1.1562596316590275e+02,	 4.8311212989130667e+02,	 2.6666074907679340e+03,	 4.2178771320182096e+02,	 1.9085285501726914e+00 
2.3875649999999999e+00,	 7.5162810000000002e-01,	 1.9138140783313780e-02,	 7.9765377518328023e+02,	 1.1636747239073082e+02,	 4.8247076237902979e+02,	 2.6564441084844370e+03,	 4.2150764283779290e+02,	 1.9124145462769486e+00 
2.3950339999999999e+00,	 7.5162920000000000e-01,	 1.9090272357421854e-02,	 7.9864839418708743e+02,	 1.1710955051740164e+02,	 4.8183601506779166e+02,	 2.6463136706552655e+03,	 4.2123028002075836e+02,	 1.9162651129848725e+00 
2.4025029999999998e+00,	 7.5163020000000003e-01,	 1.9041516896813139e-02,	 7.9961028005497030e+02,	 1.1784850946301106e+02,	 4.8121509842673981e+02,	 2.6361536819410508e+03,	 4.2095878391233560e+02,	 1.9200170103418852e+00 
2.4099710000000001e+00,	 7.5163130000000000e-01,	 1.8991469393652923e-02,	 8.0052064932993585e+02,	 1.1858126688672246e+02,	 4.8059666864130463e+02,	 2.6258460567466987e+03,	 4.2068820102079519e+02,	 1.9236473047186389e+00 
2.4174400000000000e+00,	 7.5163239999999998e-01,	 1.8940225975614546e-02,	 8.0136742102304584e+02,	 1.1931002907951155e+02,	 4.7995249888672674e+02,	 2.6152508439358007e+03,	 4.2040617088930145e+02,	 1.9271847514599099e+00 
2.4249090000000000e+00,	 7.5163340000000001e-01,	 1.8888333841985988e-02,	 8.0213868254660542e+02,	 1.2003973052710795e+02,	 4.7927288953155704e+02,	 2.6043925898978473e+03,	 4.2010841936120812e+02,	 1.9306228141576509e+00 
2.4323769999999998e+00,	 7.5163449999999998e-01,	 1.8836164129665985e-02,	 8.0283556854658173e+02,	 1.2077247783961286e+02,	 4.7856905407567729e+02,	 2.5933851261542018e+03,	 4.1979983124277925e+02,	 1.9339426444156789e+00 
2.4398460000000002e+00,	 7.5163559999999996e-01,	 1.8784096757693738e-02,	 8.0348042489703494e+02,	 1.2150146430433718e+02,	 4.7785639527155848e+02,	 2.5823651776816509e+03,	 4.1948714334062788e+02,	 1.9371634467642174e+00 
2.4473150000000001e+00,	 7.5163670000000005e-01,	 1.8732959078349157e-02,	 8.0408636673667343e+02,	 1.2221914476392661e+02,	 4.7716742743246778e+02,	 2.5716218784968269e+03,	 4.1918462839821268e+02,	 1.9402472757779514e+00 
2.4547840000000001e+00,	 7.5163780000000002e-01,	 1.8682566982452360e-02,	 8.0466004007806328e+02,	 1.2292217884159527e+02,	 4.7654858361512902e+02,	 2.5613779620536593e+03,	 4.1891271757283715e+02,	 1.9431132835625480e+00 
2.4622519999999999e+00,	 7.5163880000000005e-01,	 1.8631380690323166e-02,	 8.0520527899298952e+02,	 1.2360310385614612e+02,	 4.7600163382598339e+02,	 2.5514286071632187e+03,	 4.1867224890767898e+02,	 1.9457628152810367e+00 
2.4697209999999998e+00,	 7.5163990000000003e-01,	 1.8578209882734110e-02,	 8.0570252283616333e+02,	 1.2424793808276928e+02,	 4.7549590495334689e+02,	 2.5414442274195699e+03,	 4.1844978022400022e+02,	 1.9482060981325902e+00 
2.4771899999999998e+00,	 7.5164100000000000e-01,	 1.8523023332816989e-02,	 8.0613174990660514e+02,	 1.2484167782139954e+02,	 4.7500939723990626e+02,	 2.5313022941556878e+03,	 4.1823565519819698e+02,	 1.9504345792839364e+00 
2.4846590000000002e+00,	 7.5164209999999998e-01,	 1.8465915023932439e-02,	 8.0650554119920866e+02,	 1.2538650122793968e+02,	 4.7452666834589132e+02,	 2.5209335313420370e+03,	 4.1802308492443689e+02,	 1.9525098580753348e+00 
2.4921270000000000e+00,	 7.5164319999999996e-01,	 1.8405289775018728e-02,	 8.0685855958828847e+02,	 1.2592511653473537e+02,	 4.7403090442276806e+02,	 2.5100319712558962e+03,	 4.1780466208795974e+02,	 1.9545638906934784e+00 
2.4995959999999999e+00,	 7.5164430000000004e-01,	 1.8335935213003196e-02,	 8.0723879357000646e+02,	 1.2660740343169310e+02,	 4.7344704393938599e+02,	 2.4974937642088089e+03,	 4.1754727929850429e+02,	 1.9569209863551933e+00 