TITLE = "Final State"
VARIABLES = "X", "Y", "rho", "u", "v", "T", "p", "c", "M"
ZONE I=51, J=46, DATAPACKING=POINT
0.0000000000000000e+00,	 6.7625900000000005e-01,	 1.1586407740522189e-02,	 9.9999999999999989e+02,	 -5.6279067020124143e-14,	 3.0000000000000006e+02,	 9.9999999999999943e+02,	 3.3237670711487289e+02,	 3.0086344156914384e+00 
9.8779420000000007e-03,	 6.7628390000000005e-01,	 1.1586407740522196e-02,	 1.0000000000000000e+03,	 -1.4458427420982428e-13,	 3.0000000000000011e+02,	 1.0000000000000001e+03,	 3.3237670711487289e+02,	 3.0086344156914384e+00 
1.9402280000000001e-02,	 6.7623000000000000e-01,	 1.1586407740522201e-02,	 1.0000000000000000e+03,	 -6.6858948352671683e-14,	 3.0000000000000011e+02,	 1.0000000000000006e+03,	 3.3237670711487289e+02,	 3.0086344156914384e+00 
2.8703280000000001e-02,	 6.7612760000000005e-01,	 1.1586407740522199e-02,	 1.0000000000000000e+03,	 -2.1474687815067752e-15,	 3.0000000000000000e+02,	 1.0000000000000000e+03,	 3.3237670711487283e+02,	 3.0086344156914393e+00 
3.7881369999999998e-02,	 6.7599650000000000e-01,	 1.1586407740522199e-02,	 1.0000000000000000e+03,	 3.2263418254253924e-14,	 3.0000000000000011e+02,	 1.0000000000000005e+03,	 3.3237670711487289e+02,	 3.0086344156914384e+00 
4.6972830000000000e-02,	 6.7584699999999998e-01,	 1.1586407740522199e-02,	 1.0000000000000000e+03,	 5.1501168998133283e-14,	 3.0000000000000000e+02,	 1.0000000000000000e+03,	 3.3237670711487283e+02,	 3.0086344156914393e+00 
5.6018360000000003e-02,	 6.7568580000000000e-01,	 1.1586407740522199e-02,	 1.0000000000000000e+03,	 4.3280539982479611e-14,	 3.0000000000000006e+02,	 1.0000000000000002e+03,	 3.3237670711487289e+02,	 3.0086344156914384e+00 
6.5036369999999996e-02,	 6.7551870000000003e-01,	 1.1586407740522199e-02,	 1.0000000000000000e+03,	 8.4837081975381453e-15,	 3.0000000000000000e+02,	 1.0000000000000000e+03,	 3.3237670711487283e+02,	 3.0086344156914393e+00 
7.4038969999999996e-02,	 6.7534950000000005e-01,	 1.1586407740522199e-02,	 1.0000000000000000e+03,	 9.0557758229475407e-15,	 3.0000000000000000e+02,	 1.0000000000000000e+03,	 3.3237670711487283e+02,	 3.0086344156914393e+00 
8.3029690000000003e-02,	 6.7518279999999997e-01,	 1.1586407740522199e-02,	 1.0000000000000000e+03,	 6.7154972606321064e-16,	 3.0000000000000000e+02,	 1.0000000000000000e+03,	 3.3237670711487283e+02,	 3.0086344156914393e+00 
9.2012700000000003e-02,	 6.7502030000000002e-01,	 1.1586407740522199e-02,	 1.0000000000000000e+03,	 -2.6689414040885347e-14,	 3.0000000000000000e+02,	 1.0000000000000000e+03,	 3.3237670711487283e+02,	 3.0086344156914393e+00 
1.0098980000000000e-01,	 6.7486449999999998e-01,	 1.1586407740522199e-02,	 1.0000000000000000e+03,	 -6.8231881721393089e-14,	 3.0000000000000000e+02,	 1.0000000000000000e+03,	 3.3237670711487283e+02,	 3.0086344156914393e+00 
1.0996140000000000e-01,	 6.7471709999999996e-01,	 1.1586407740522199e-02,	 1.0000000000000000e+03,	 -7.8407549154627160e-14,	 3.0000000000000000e+02,	 1.0000000000000000e+03,	 3.3237670711487283e+02,	 3.0086344156914393e+00 
1.1892780000000000e-01,	 6.7458059999999997e-01,	 1.1586407740522199e-02,	 1.0000000000000000e+03,	 -6.8611316173306077e-14,	 3.0000000000000000e+02,	 1.0000000000000000e+03,	 3.3237670711487283e+02,	 3.0086344156914393e+00 
1.2788749999999999e-01,	 6.7445670000000002e-01,	 1.1586407740522199e-02,	 1.0000000000000000e+03,	 -6.8677951393185353e-14,	 3.0000000000000000e+02,	 1.0000000000000000e+03,	 3.3237670711487283e+02,	 3.0086344156914393e+00 
1.3683989999999999e-01,	 6.7434729999999998e-01,	 1.1586407740522199e-02,	 1.0000000000000000e+03,	 2.0655520110986730e-14,	 2.9999999999999994e+02,	 9.9999999999999989e+02,	 3.3237670711487277e+02,	 3.0086344156914397e+00 
1.4578369999999999e-01,	 6.7425440000000003e-01,	 1.1586407740522199e-02,	 1.0000000000000000e+03,	 5.5493105368948505e-14,	 2.9999999999999989e+02,	 9.9999999999999966e+02,	 3.3237670711487277e+02,	 3.0086344156914397e+00 
1.5471869999999999e-01,	 6.7417990000000005e-01,	 1.1586407740522199e-02,	 1.0000000000000000e+03,	 -1.2762009045986631e-14,	 3.0000000000000000e+02,	 1.0000000000000000e+03,	 3.3237670711487283e+02,	 3.0086344156914393e+00 
1.6364270000000000e-01,	 6.7412530000000004e-01,	 1.1586407740522199e-02,	 1.0000000000000000e+03,	 -2.0791339996686047e-14,	 3.0000000000000000e+02,	 1.0000000000000000e+03,	 3.3237670711487283e+02,	 3.0086344156914393e+00 
1.7255440000000000e-01,	 6.7409229999999998e-01,	 1.1586407740522199e-02,	 1.0000000000000000e+03,	 -2.6383587841977057e-14,	 3.0000000000000000e+02,	 1.0000000000000000e+03,	 3.3237670711487283e+02,	 3.0086344156914393e+00 
1.8145210000000001e-01,	 6.7408219999999996e-01,	 1.1586407740522199e-02,	 1.0000000000000000e+03,	 -2.0094655621689255e-14,	 3.0000000000000000e+02,	 1.0000000000000000e+03,	 3.3237670711487283e+02,	 3.0086344156914393e+00 
1.9033459999999999e-01,	 6.7409649999999999e-01,	 1.1586407740522199e-02,	 1.0000000000000000e+03,	 -1.1951541836879874e-14,	 3.0000000000000000e+02,	 1.0000000000000000e+03,	 3.3237670711487283e+02,	 3.0086344156914393e+00 
1.9920009999999999e-01,	 6.7413679999999998e-01,	 1.1586407740522199e-02,	 1.0000000000000000e+03,	 -4.6922644997510744e-15,	 3.0000000000000000e+02,	 1.0000000000000000e+03,	 3.3237670711487283e+02,	 3.0086344156914393e+00 
2.0804700000000001e-01,	 6.7420409999999997e-01,	 1.1586407740522199e-02,	 1.0000000000000000e+03,	 5.3614397997262509e-16,	 3.0000000000000000e+02,	 1.0000000000000000e+03,	 3.3237670711487283e+02,	 3.0086344156914393e+00 
2.1687350000000000e-01,	 6.7430000000000001e-01,	 1.1586407740522199e-02,	 1.0000000000000000e+03,	 3.1708146975151444e-15,	 3.0000000000000000e+02,	 1.0000000000000000e+03,	 3.3237670711487283e+02,	 3.0086344156914393e+00 
2.2567840000000000e-01,	 6.7442530000000001e-01,	 1.1586407740522199e-02,	 1.0000000000000000e+03,	 3.0456538845007333e-15,	 3.0000000000000000e+02,	 1.0000000000000000e+03,	 3.3237670711487283e+02,	 3.0086344156914393e+00 
2.3445940000000001e-01,	 6.7458160000000000e-01,	 1.1586407740522199e-02,	 1.0000000000000000e+03,	 -1.0679645288912600e-14,	 3.0000000000000000e+02,	 1.0000000000000000e+03,	 3.3237670711487283e+02,	 3.0086344156914393e+00 
2.4321470000000001e-01,	 6.7476990000000003e-01,	 1.1586407740522199e-02,	 1.0000000000000000e+03,	 -1.8246606958965491e-14,	 3.0000000000000000e+02,	 1.0000000000000000e+03,	 3.3237670711487283e+02,	 3.0086344156914393e+00 
2.5194250000000001e-01,	 6.7499140000000002e-01,	 1.1586407740522199e-02,	 1.0000000000000000e+03,	 1.5589808527200170e-14,	 3.0000000000000000e+02,	 1.0000000000000000e+03,	 3.3237670711487283e+02,	 3.0086344156914393e+00 
2.6064169999999998e-01,	 6.7524649999999997e-01,	 1.1586407740522199e-02,	 1.0000000000000000e+03,	 6.8624794716706310e-15,	 3.0000000000000000e+02,	 1.0000000000000000e+03,	 3.3237670711487283e+02,	 3.0086344156914393e+00 
2.6930969999999999e-01,	 6.7553629999999998e-01,	 1.1586407740522199e-02,	 1.0000000000000000e+03,	 6.2644212061694550e-14,	 3.0000000000000000e+02,	 1.0000000000000000e+03,	 3.3237670711487283e+02,	 3.0086344156914393e+00 
2.7794560000000001e-01,	 6.7586109999999999e-01,	 1.1586407740522199e-02,	 1.0000000000000000e+03,	 9.0482559435594410e-14,	 3.0000000000000000e+02,	 1.0000000000000000e+03,	 3.3237670711487283e+02,	 3.0086344156914393e+00 
2.8654800000000002e-01,	 6.7622159999999998e-01,	 1.1586407740522199e-02,	 1.0000000000000000e+03,	 1.0109847813968403e-13,	 3.0000000000000000e+02,	 1.0000000000000000e+03,	 3.3237670711487283e+02,	 3.0086344156914393e+00 
2.9511680000000001e-01,	 6.7661749999999998e-01,	 1.1586407740522199e-02,	 1.0000000000000000e+03,	 3.3730153597430140e-14,	 3.0000000000000000e+02,	 1.0000000000000000e+03,	 3.3237670711487283e+02,	 3.0086344156914393e+00 
3.0364760000000002e-01,	 6.7705070000000001e-01,	 1.1586407740522199e-02,	 1.0000000000000000e+03,	 3.5088223158912981e-15,	 3.0000000000000000e+02,	 1.0000000000000000e+03,	 3.3237670711487283e+02,	 3.0086344156914393e+00 
3.1060090000000001e-01,	 6.7743600000000004e-01,	 1.1586407740522199e-02,	 1.0000000000000000e+03,	 5.2560104596132832e-14,	 3.0000000000000000e+02,	 1.0000000000000000e+03,	 3.3237670711487283e+02,	 3.0086344156914393e+00 
3.1752670000000000e-01,	 6.7785189999999995e-01,	 1.1586407740522199e-02,	 1.0000000000000000e+03,	 4.5239820259676374e-14,	 3.0000000000000000e+02,	 1.0000000000000000e+03,	 3.3237670711487283e+02,	 3.0086344156914393e+00 
3.2442569999999998e-01,	 6.7829779999999995e-01,	 1.1586407740522199e-02,	 1.0000000000000000e+03,	 5.2185433465150026e-15,	 3.0000000000000000e+02,	 1.0000000000000000e+03,	 3.3237670711487283e+02,	 3.0086344156914393e+00 
3.3129819999999999e-01,	 6.7877339999999997e-01,	 1.1586407740522199e-02,	 1.0000000000000000e+03,	 4.3294780404213715e-15,	 3.0000000000000000e+02,	 1.0000000000000000e+03,	 3.3237670711487283e+02,	 3.0086344156914393e+00 
3.3814509999999998e-01,	 6.7927820000000005e-01,	 1.1586407740522199e-02,	 1.0000000000000000e+03,	 5.3182208330231930e-14,	 3.0000000000000000e+02,	 1.0000000000000000e+03,	 3.3237670711487283e+02,	 3.0086344156914393e+00 
3.4496779999999999e-01,	 6.7981179999999997e-01,	 1.1586407740522199e-02,	 1.0000000000000000e+03,	 7.3270120414725007e-14,	 3.0000000000000000e+02,	 1.0000000000000000e+03,	 3.3237670711487283e+02,	 3.0086344156914393e+00 
3.5176780000000002e-01,	 6.8037349999999996e-01,	 1.1586407740522199e-02,	 1.0000000000000000e+03,	 4.8476392314860172e-14,	 3.0000000000000000e+02,	 1.0000000000000000e+03,	 3.3237670711487283e+02,	 3.0086344156914393e+00 
3.5854710000000001e-01,	 6.8096310000000004e-01,	 1.1586407740522199e-02,	 1.0000000000000000e+03,	 6.3239600982745914e-14,	 3.0000000000000000e+02,	 1.0000000000000000e+03,	 3.3237670711487283e+02,	 3.0086344156914393e+00 
3.6530720000000000e-01,	 6.8158019999999997e-01,	 1.1586407740522199e-02,	 1.0000000000000000e+03,	 7.6189963416122905e-14,	 3.0000000000000000e+02,	 1.0000000000000000e+03,	 3.3237670711487283e+02,	 3.0086344156914393e+00 
3.7204999999999999e-01,	 6.8222450000000001e-01,	 1.1586407740522197e-02,	 1.0000000000000002e+03,	 -2.1878896570164055e-13,	 2.9999999999999977e+02,	 9.9999999999999920e+02,	 3.3237670711487272e+02,	 3.0086344156914406e+00 
3.7877719999999998e-01,	 6.8289540000000004e-01,	 1.1586407740522237e-02,	 1.0000000000000005e+03,	 -2.8135545318792119e-13,	 2.9999999999999955e+02,	 1.0000000000000018e+03,	 3.3237670711487260e+02,	 3.0086344156914424e+00 
3.8549040000000001e-01,	 6.8359280000000000e-01,	 1.1586407740522359e-02,	 1.0000000000000028e+03,	 2.8596234732242249e-13,	 2.9999999999999955e+02,	 1.0000000000000124e+03,	 3.3237670711487260e+02,	 3.0086344156914495e+00 
3.9219150000000003e-01,	 6.8431609999999998e-01,	 1.1586407740522739e-02,	 9.9999999999999181e+02,	 2.4829544814082180e-11,	 3.0000000000000938e+02,	 1.0000000000000780e+03,	 3.3237670711487800e+02,	 3.0086344156913678e+00 
3.9888200000000001e-01,	 6.8506509999999998e-01,	 1.1586407740509525e-02,	 9.9999999999982322e+02,	 2.4096628124689569e-10,	 3.0000000000008367e+02,	 9.9999999999918521e+02,	 3.3237670711491916e+02,	 3.0086344156904881e+00 
4.0556360000000002e-01,	 6.8583970000000005e-01,	 1.1586407822715052e-02,	 9.9999999884169415e+02,	 2.7516507771415366e-06,	 3.0000000115565979e+02,	 1.0000000109461024e+03,	 3.3237670775506348e+02,	 3.0086344064115909e+00 
4.1223810000000000e-01,	 6.8663989999999997e-01,	 1.1586407904874363e-02,	 9.9999999768420946e+02,	 5.5019202300255047e-06,	 3.0000000231091383e+02,	 1.0000000218879574e+03,	 3.3237670839502937e+02,	 3.0086343971362473e+00 
0.0000000000000000e+00,	 6.8345319999999998e-01,	 1.1586407740522227e-02,	 1.0000000000000001e+03,	 -1.0252381692630864e-13,	 3.0000000000000006e+02,	 1.0000000000000026e+03,	 3.3237670711487289e+02,	 3.0086344156914389e+00 
9.8563339999999996e-03,	 6.8347840000000004e-01,	 1.1586407740522196e-02,	 1.0000000000000000e+03,	 -1.5010356315940519e-13,	 3.0000000000000000e+02,	 9.9999999999999977e+02,	 3.3237670711487283e+02,	 3.0086344156914393e+00 
1.9365930000000000e-02,	 6.8342579999999997e-01,	 1.1586407740522196e-02,	 1.0000000000000000e+03,	 -4.4063905227358372e-14,	 3.0000000000000000e+02,	 9.9999999999999977e+02,	 3.3237670711487283e+02,	 3.0086344156914393e+00 
2.8656470000000000e-02,	 6.8332530000000002e-01,	 1.1586407740522199e-02,	 1.0000000000000000e+03,	 3.2648282871538626e-14,	 2.9999999999999994e+02,	 9.9999999999999989e+02,	 3.3237670711487277e+02,	 3.0086344156914397e+00 
3.7826419999999999e-02,	 6.8319640000000004e-01,	 1.1586407740522197e-02,	 1.0000000000000000e+03,	 4.2937591093509833e-14,	 3.0000000000000000e+02,	 9.9999999999999989e+02,	 3.3237670711487283e+02,	 3.0086344156914393e+00 
4.6911399999999999e-02,	 6.8304929999999997e-01,	 1.1586407740522199e-02,	 1.0000000000000000e+03,	 3.4856630220519392e-14,	 3.0000000000000000e+02,	 1.0000000000000000e+03,	 3.3237670711487283e+02,	 3.0086344156914393e+00 
5.5951340000000002e-02,	 6.8289060000000001e-01,	 1.1586407740522199e-02,	 1.0000000000000000e+03,	 3.1633238775384445e-14,	 3.0000000000000006e+02,	 1.0000000000000002e+03,	 3.3237670711487289e+02,	 3.0086344156914384e+00 
6.4964330000000001e-02,	 6.8272610000000000e-01,	 1.1586407740522199e-02,	 1.0000000000000000e+03,	 3.1552141861544670e-14,	 3.0000000000000000e+02,	 1.0000000000000000e+03,	 3.3237670711487283e+02,	 3.0086344156914393e+00 
7.3962230000000004e-02,	 6.8255940000000004e-01,	 1.1586407740522199e-02,	 1.0000000000000000e+03,	 2.3807495694739684e-14,	 3.0000000000000006e+02,	 1.0000000000000002e+03,	 3.3237670711487289e+02,	 3.0086344156914384e+00 
8.2948510000000003e-02,	 6.8239510000000003e-01,	 1.1586407740522199e-02,	 1.0000000000000000e+03,	 -1.1090504031635645e-14,	 3.0000000000000006e+02,	 1.0000000000000002e+03,	 3.3237670711487289e+02,	 3.0086344156914384e+00 
9.1927280000000000e-02,	 6.8223500000000004e-01,	 1.1586407740522199e-02,	 1.0000000000000000e+03,	 -2.4664593358932831e-14,	 3.0000000000000000e+02,	 1.0000000000000000e+03,	 3.3237670711487283e+02,	 3.0086344156914393e+00 
1.0090040000000000e-01,	 6.8208130000000000e-01,	 1.1586407740522199e-02,	 1.0000000000000000e+03,	 -5.4271279227277013e-14,	 3.0000000000000000e+02,	 1.0000000000000000e+03,	 3.3237670711487283e+02,	 3.0086344156914393e+00 
1.0986799999999999e-01,	 6.8193579999999998e-01,	 1.1586407740522199e-02,	 1.0000000000000000e+03,	 -5.3001586958136350e-14,	 3.0000000000000000e+02,	 1.0000000000000000e+03,	 3.3237670711487283e+02,	 3.0086344156914393e+00 
1.1883070000000000e-01,	 6.8180110000000005e-01,	 1.1586407740522199e-02,	 1.0000000000000000e+03,	 -6.2189970673477922e-14,	 3.0000000000000000e+02,	 1.0000000000000000e+03,	 3.3237670711487283e+02,	 3.0086344156914393e+00 
1.2778680000000001e-01,	 6.8167849999999997e-01,	 1.1586407740522199e-02,	 1.0000000000000000e+03,	 -6.2999357712085307e-14,	 3.0000000000000000e+02,	 1.0000000000000000e+03,	 3.3237670711487283e+02,	 3.0086344156914393e+00 
1.3673589999999999e-01,	 6.8157020000000001e-01,	 1.1586407740522199e-02,	 1.0000000000000000e+03,	 -5.4200193842627016e-14,	 2.9999999999999989e+02,	 9.9999999999999966e+02,	 3.3237670711487277e+02,	 3.0086344156914397e+00 
1.4567659999999999e-01,	 6.8147789999999997e-01,	 1.1586407740522199e-02,	 1.0000000000000000e+03,	 -6.7703634645062070e-14,	 2.9999999999999989e+02,	 9.9999999999999966e+02,	 3.3237670711487277e+02,	 3.0086344156914397e+00 
1.5460869999999999e-01,	 6.8140360000000000e-01,	 1.1586407740522199e-02,	 1.0000000000000000e+03,	 -5.8718691089662477e-14,	 3.0000000000000000e+02,	 1.0000000000000000e+03,	 3.3237670711487283e+02,	 3.0086344156914393e+00 
1.6353019999999999e-01,	 6.8134879999999998e-01,	 1.1586407740522199e-02,	 1.0000000000000000e+03,	 -3.8055206434878351e-14,	 3.0000000000000000e+02,	 1.0000000000000000e+03,	 3.3237670711487283e+02,	 3.0086344156914393e+00 
1.7243980000000000e-01,	 6.8131500000000000e-01,	 1.1586407740522199e-02,	 1.0000000000000000e+03,	 -3.8696527652609868e-14,	 3.0000000000000000e+02,	 1.0000000000000000e+03,	 3.3237670711487283e+02,	 3.0086344156914393e+00 
1.8133560000000001e-01,	 6.8130369999999996e-01,	 1.1586407740522199e-02,	 1.0000000000000000e+03,	 -1.6336729851725977e-14,	 3.0000000000000000e+02,	 1.0000000000000000e+03,	 3.3237670711487283e+02,	 3.0086344156914393e+00 
1.9021669999999999e-01,	 6.8131620000000004e-01,	 1.1586407740522199e-02,	 1.0000000000000000e+03,	 -7.8322193106871351e-15,	 3.0000000000000000e+02,	 1.0000000000000000e+03,	 3.3237670711487283e+02,	 3.0086344156914393e+00 
1.9908120000000001e-01,	 6.8135400000000002e-01,	 1.1586407740522199e-02,	 1.0000000000000000e+03,	 4.4626644593490428e-15,	 3.0000000000000000e+02,	 1.0000000000000000e+03,	 3.3237670711487283e+02,	 3.0086344156914393e+00 
2.0792759999999999e-01,	 6.8141839999999998e-01,	 1.1586407740522199e-02,	 1.0000000000000000e+03,	 1.2044686748375859e-14,	 3.0000000000000000e+02,	 1.0000000000000000e+03,	 3.3237670711487283e+02,	 3.0086344156914393e+00 
2.1675410000000001e-01,	 6.8151050000000002e-01,	 1.1586407740522199e-02,	 1.0000000000000000e+03,	 6.0437852606499705e-15,	 3.0000000000000000e+02,	 1.0000000000000000e+03,	 3.3237670711487283e+02,	 3.0086344156914393e+00 
2.2555950000000000e-01,	 6.8163149999999995e-01,	 1.1586407740522199e-02,	 1.0000000000000000e+03,	 2.3432093619813620e-15,	 3.0000000000000000e+02,	 1.0000000000000000e+03,	 3.3237670711487283e+02,	 3.0086344156914393e+00 
2.3434150000000001e-01,	 6.8178280000000002e-01,	 1.1586407740522199e-02,	 1.0000000000000000e+03,	 1.7532449887679065e-14,	 3.0000000000000000e+02,	 1.0000000000000000e+03,	 3.3237670711487283e+02,	 3.0086344156914393e+00 
2.4309860000000000e-01,	 6.8196530000000000e-01,	 1.1586407740522199e-02,	 1.0000000000000000e+03,	 1.6747318494439431e-14,	 3.0000000000000000e+02,	 1.0000000000000000e+03,	 3.3237670711487283e+02,	 3.0086344156914393e+00 
2.5182870000000002e-01,	 6.8218029999999996e-01,	 1.1586407740522199e-02,	 1.0000000000000000e+03,	 2.4199432663690883e-14,	 3.0000000000000000e+02,	 1.0000000000000000e+03,	 3.3237670711487283e+02,	 3.0086344156914393e+00 
2.6053100000000001e-01,	 6.8242820000000004e-01,	 1.1586407740522199e-02,	 1.0000000000000000e+03,	 9.3254169542843917e-15,	 3.0000000000000000e+02,	 1.0000000000000000e+03,	 3.3237670711487283e+02,	 3.0086344156914393e+00 
2.6920280000000002e-01,	 6.8271009999999999e-01,	 1.1586407740522199e-02,	 1.0000000000000000e+03,	 2.8048209963706818e-14,	 3.0000000000000000e+02,	 1.0000000000000000e+03,	 3.3237670711487283e+02,	 3.0086344156914393e+00 
2.7784330000000002e-01,	 6.8302620000000003e-01,	 1.1586407740522199e-02,	 1.0000000000000000e+03,	 1.8966470024675198e-14,	 2.9999999999999989e+02,	 9.9999999999999966e+02,	 3.3237670711487277e+02,	 3.0086344156914397e+00 
2.8645090000000001e-01,	 6.8337720000000002e-01,	 1.1586407740522199e-02,	 1.0000000000000000e+03,	 -2.7931712433971823e-15,	 2.9999999999999994e+02,	 9.9999999999999989e+02,	 3.3237670711487277e+02,	 3.0086344156914397e+00 
2.9502590000000001e-01,	 6.8376289999999995e-01,	 1.1586407740522199e-02,	 1.0000000000000000e+03,	 -7.0621208025550316e-15,	 3.0000000000000000e+02,	 1.0000000000000000e+03,	 3.3237670711487283e+02,	 3.0086344156914393e+00 
3.0356359999999999e-01,	 6.8418509999999999e-01,	 1.1586407740522199e-02,	 1.0000000000000000e+03,	 1.9118444578974418e-14,	 2.9999999999999994e+02,	 9.9999999999999989e+02,	 3.3237670711487277e+02,	 3.0086344156914397e+00 
3.1052330000000000e-01,	 6.8456090000000003e-01,	 1.1586407740522199e-02,	 1.0000000000000000e+03,	 -3.3465744391216107e-16,	 2.9999999999999994e+02,	 9.9999999999999989e+02,	 3.3237670711487277e+02,	 3.0086344156914397e+00 
3.1745600000000002e-01,	 6.8496659999999998e-01,	 1.1586407740522199e-02,	 1.0000000000000000e+03,	 7.4033696855104201e-15,	 3.0000000000000000e+02,	 1.0000000000000000e+03,	 3.3237670711487283e+02,	 3.0086344156914393e+00 
3.2436250000000000e-01,	 6.8540160000000006e-01,	 1.1586407740522199e-02,	 1.0000000000000000e+03,	 2.6161244642151788e-14,	 3.0000000000000000e+02,	 1.0000000000000000e+03,	 3.3237670711487283e+02,	 3.0086344156914393e+00 
3.3124310000000001e-01,	 6.8586579999999997e-01,	 1.1586407740522199e-02,	 1.0000000000000000e+03,	 2.8090009008335453e-14,	 3.0000000000000000e+02,	 1.0000000000000000e+03,	 3.3237670711487283e+02,	 3.0086344156914393e+00 
3.3809860000000003e-01,	 6.8635860000000004e-01,	 1.1586407740522199e-02,	 1.0000000000000000e+03,	 7.1063882170175893e-15,	 3.0000000000000000e+02,	 1.0000000000000000e+03,	 3.3237670711487283e+02,	 3.0086344156914393e+00 
3.4493040000000003e-01,	 6.8687960000000003e-01,	 1.1586407740522199e-02,	 1.0000000000000000e+03,	 2.0511456770944747e-14,	 3.0000000000000000e+02,	 1.0000000000000000e+03,	 3.3237670711487283e+02,	 3.0086344156914393e+00 
3.5174000000000000e-01,	 6.8742820000000004e-01,	 1.1586407740522199e-02,	 1.0000000000000000e+03,	 5.0114169346940421e-14,	 3.0000000000000000e+02,	 1.0000000000000000e+03,	 3.3237670711487283e+02,	 3.0086344156914393e+00 
3.5852930000000000e-01,	 6.8800419999999995e-01,	 1.1586407740522199e-02,	 1.0000000000000000e+03,	 3.9896774905268110e-14,	 3.0000000000000000e+02,	 1.0000000000000000e+03,	 3.3237670711487283e+02,	 3.0086344156914393e+00 
3.6529980000000001e-01,	 6.8860710000000003e-01,	 1.1586407740522199e-02,	 1.0000000000000000e+03,	 4.2700574390368445e-15,	 3.0000000000000000e+02,	 1.0000000000000000e+03,	 3.3237670711487283e+02,	 3.0086344156914393e+00 
3.7205339999999998e-01,	 6.8923670000000004e-01,	 1.1586407740522197e-02,	 1.0000000000000002e+03,	 -1.8763298616491170e-13,	 2.9999999999999989e+02,	 9.9999999999999955e+02,	 3.3237670711487277e+02,	 3.0086344156914402e+00 
3.7879170000000001e-01,	 6.8989250000000002e-01,	 1.1586407740522216e-02,	 1.0000000000000006e+03,	 -5.2037515532438790e-13,	 2.9999999999999989e+02,	 1.0000000000000013e+03,	 3.3237670711487277e+02,	 3.0086344156914415e+00 
3.8551629999999998e-01,	 6.9057409999999997e-01,	 1.1586407740522327e-02,	 1.0000000000000025e+03,	 -6.6453796650721251e-13,	 2.9999999999999943e+02,	 1.0000000000000092e+03,	 3.3237670711487249e+02,	 3.0086344156914495e+00 
3.9222899999999999e-01,	 6.9128129999999999e-01,	 1.1586407740522147e-02,	 9.9999999999999227e+02,	 1.3958389991061999e-12,	 3.0000000000000290e+02,	 1.0000000000000053e+03,	 3.3237670711487442e+02,	 3.0086344156914016e+00 
3.9893139999999999e-01,	 6.9201369999999995e-01,	 1.1586407740514960e-02,	 9.9999999999997488e+02,	 -4.9374208596655689e-11,	 2.9999999999999454e+02,	 9.9999999999935710e+02,	 3.3237670711486982e+02,	 3.0086344156913909e+00 
4.0562510000000002e-01,	 6.9277109999999997e-01,	 1.1586407764253157e-02,	 9.9999999967930012e+02,	 7.8710811162840786e-07,	 3.0000000033045376e+02,	 1.0000000031496847e+03,	 3.3237670729793138e+02,	 3.0086344130695464e+00 
4.1231180000000001e-01,	 6.9355370000000005e-01,	 1.1586407787965738e-02,	 9.9999999935892595e+02,	 1.5737604023031241e-06,	 3.0000000066077178e+02,	 1.0000000062973309e+03,	 3.3237670748091477e+02,	 3.0086344104493135e+00 
0.0000000000000000e+00,	 6.9064749999999997e-01,	 1.1586407740522220e-02,	 9.9999999999999989e+02,	 1.1471693185860317e-15,	 3.0000000000000017e+02,	 1.0000000000000025e+03,	 3.3237670711487294e+02,	 3.0086344156914375e+00 
9.8346509999999998e-03,	 6.9067279999999998e-01,	 1.1586407740522196e-02,	 1.0000000000000002e+03,	 3.9555919750411314e-14,	 3.0000000000000000e+02,	 9.9999999999999977e+02,	 3.3237670711487283e+02,	 3.0086344156914397e+00 
1.9329490000000001e-02,	 6.9062159999999995e-01,	 1.1586407740522197e-02,	 1.0000000000000000e+03,	 3.9134201137198885e-14,	 2.9999999999999989e+02,	 9.9999999999999955e+02,	 3.3237670711487277e+02,	 3.0086344156914397e+00 
2.8609650000000000e-02,	 6.9052300000000000e-01,	 1.1586407740522199e-02,	 1.0000000000000000e+03,	 1.3163855788195919e-14,	 2.9999999999999994e+02,	 9.9999999999999989e+02,	 3.3237670711487277e+02,	 3.0086344156914397e+00 
3.7771560000000003e-02,	 6.9039629999999996e-01,	 1.1586407740522199e-02,	 1.0000000000000000e+03,	 4.4321261863435078e-15,	 2.9999999999999989e+02,	 9.9999999999999966e+02,	 3.3237670711487277e+02,	 3.0086344156914397e+00 
4.6850169999999997e-02,	 6.9025159999999997e-01,	 1.1586407740522199e-02,	 1.0000000000000000e+03,	 -5.0801273419374657e-15,	 3.0000000000000006e+02,	 1.0000000000000002e+03,	 3.3237670711487289e+02,	 3.0086344156914384e+00 
5.5884660000000003e-02,	 6.9009540000000003e-01,	 1.1586407740522199e-02,	 1.0000000000000000e+03,	 -8.6890076055498282e-16,	 3.0000000000000011e+02,	 1.0000000000000005e+03,	 3.3237670711487289e+02,	 3.0086344156914384e+00 
6.4892740000000004e-02,	 6.8993340000000003e-01,	 1.1586407740522199e-02,	 1.0000000000000000e+03,	 5.9939386648332143e-15,	 3.0000000000000000e+02,	 1.0000000000000000e+03,	 3.3237670711487283e+02,	 3.0086344156914393e+00 
7.3886069999999998e-02,	 6.8976930000000003e-01,	 1.1586407740522199e-02,	 1.0000000000000000e+03,	 2.5769079485506251e-14,	 2.9999999999999994e+02,	 9.9999999999999989e+02,	 3.3237670711487277e+02,	 3.0086344156914397e+00 
8.2868049999999999e-02,	 6.8960750000000004e-01,	 1.1586407740522199e-02,	 1.0000000000000000e+03,	 -1.2678052424242781e-14,	 3.0000000000000006e+02,	 1.0000000000000002e+03,	 3.3237670711487289e+02,	 3.0086344156914384e+00 
9.1842709999999994e-02,	 6.8944960000000000e-01,	 1.1586407740522199e-02,	 1.0000000000000000e+03,	 -2.6488317931697819e-14,	 3.0000000000000000e+02,	 1.0000000000000000e+03,	 3.3237670711487283e+02,	 3.0086344156914393e+00 
1.0081179999999999e-01,	 6.8929810000000002e-01,	 1.1586407740522199e-02,	 1.0000000000000000e+03,	 -4.4815356734447560e-14,	 3.0000000000000006e+02,	 1.0000000000000002e+03,	 3.3237670711487289e+02,	 3.0086344156914384e+00 
1.0977570000000000e-01,	 6.8915459999999995e-01,	 1.1586407740522199e-02,	 1.0000000000000000e+03,	 -4.8389846889188789e-14,	 3.0000000000000006e+02,	 1.0000000000000002e+03,	 3.3237670711487289e+02,	 3.0086344156914384e+00 
1.1873480000000000e-01,	 6.8902149999999995e-01,	 1.1586407740522199e-02,	 1.0000000000000000e+03,	 -6.1396392009025517e-14,	 3.0000000000000011e+02,	 1.0000000000000005e+03,	 3.3237670711487289e+02,	 3.0086344156914384e+00 
1.2768750000000001e-01,	 6.8890039999999997e-01,	 1.1586407740522199e-02,	 1.0000000000000000e+03,	 -4.5764765513785473e-14,	 3.0000000000000006e+02,	 1.0000000000000002e+03,	 3.3237670711487289e+02,	 3.0086344156914384e+00 
1.3663339999999999e-01,	 6.8879310000000005e-01,	 1.1586407740522199e-02,	 1.0000000000000000e+03,	 -3.5364096349975308e-14,	 2.9999999999999989e+02,	 9.9999999999999966e+02,	 3.3237670711487277e+02,	 3.0086344156914397e+00 
1.4557110000000001e-01,	 6.8870149999999997e-01,	 1.1586407740522199e-02,	 1.0000000000000000e+03,	 -5.5731978776979918e-14,	 2.9999999999999989e+02,	 9.9999999999999966e+02,	 3.3237670711487277e+02,	 3.0086344156914397e+00 
1.5450050000000001e-01,	 6.8862749999999995e-01,	 1.1586407740522199e-02,	 1.0000000000000000e+03,	 -6.1053338341835614e-14,	 3.0000000000000000e+02,	 1.0000000000000000e+03,	 3.3237670711487283e+02,	 3.0086344156914393e+00 
1.6341960000000000e-01,	 6.8857239999999997e-01,	 1.1586407740522199e-02,	 1.0000000000000000e+03,	 -2.4844213282274116e-14,	 3.0000000000000006e+02,	 1.0000000000000002e+03,	 3.3237670711487289e+02,	 3.0086344156914384e+00 
1.7232700000000001e-01,	 6.8853790000000004e-01,	 1.1586407740522199e-02,	 1.0000000000000000e+03,	 -2.5512865314902777e-14,	 3.0000000000000000e+02,	 1.0000000000000000e+03,	 3.3237670711487283e+02,	 3.0086344156914393e+00 
1.8122120000000000e-01,	 6.8852539999999995e-01,	 1.1586407740522199e-02,	 1.0000000000000000e+03,	 -2.7312473234295695e-14,	 3.0000000000000000e+02,	 1.0000000000000000e+03,	 3.3237670711487283e+02,	 3.0086344156914393e+00 
1.9010089999999999e-01,	 6.8853609999999998e-01,	 1.1586407740522199e-02,	 1.0000000000000000e+03,	 -3.4159526049441740e-15,	 3.0000000000000000e+02,	 1.0000000000000000e+03,	 3.3237670711487283e+02,	 3.0086344156914393e+00 
1.9896449999999999e-01,	 6.8857150000000000e-01,	 1.1586407740522199e-02,	 1.0000000000000000e+03,	 -6.6328850805200129e-15,	 3.0000000000000000e+02,	 1.0000000000000000e+03,	 3.3237670711487283e+02,	 3.0086344156914393e+00 
2.0781040000000001e-01,	 6.8863280000000004e-01,	 1.1586407740522199e-02,	 1.0000000000000000e+03,	 -1.1298170115732194e-14,	 3.0000000000000000e+02,	 1.0000000000000000e+03,	 3.3237670711487283e+02,	 3.0086344156914393e+00 
2.1663700000000000e-01,	 6.8872140000000004e-01,	 1.1586407740522199e-02,	 1.0000000000000000e+03,	 8.6685695326543509e-16,	 3.0000000000000000e+02,	 1.0000000000000000e+03,	 3.3237670711487283e+02,	 3.0086344156914393e+00 
2.2544300000000000e-01,	 6.8883799999999995e-01,	 1.1586407740522199e-02,	 1.0000000000000000e+03,	 9.5748100556345643e-15,	 2.9999999999999994e+02,	 9.9999999999999989e+02,	 3.3237670711487277e+02,	 3.0086344156914397e+00 
2.3422620000000000e-01,	 6.8898429999999999e-01,	 1.1586407740522199e-02,	 1.0000000000000000e+03,	 1.7676142258871491e-14,	 2.9999999999999994e+02,	 9.9999999999999989e+02,	 3.3237670711487277e+02,	 3.0086344156914397e+00 
2.4298500000000001e-01,	 6.8916120000000003e-01,	 1.1586407740522199e-02,	 1.0000000000000000e+03,	 1.3849088466037019e-14,	 3.0000000000000000e+02,	 1.0000000000000000e+03,	 3.3237670711487283e+02,	 3.0086344156914393e+00 
2.5171759999999999e-01,	 6.8936969999999997e-01,	 1.1586407740522199e-02,	 1.0000000000000000e+03,	 1.2831075114209432e-14,	 3.0000000000000000e+02,	 1.0000000000000000e+03,	 3.3237670711487283e+02,	 3.0086344156914393e+00 
2.6042290000000001e-01,	 6.8961039999999996e-01,	 1.1586407740522199e-02,	 1.0000000000000000e+03,	 3.5343630952096516e-15,	 3.0000000000000000e+02,	 1.0000000000000000e+03,	 3.3237670711487283e+02,	 3.0086344156914393e+00 
2.6909850000000002e-01,	 6.8988439999999995e-01,	 1.1586407740522199e-02,	 1.0000000000000000e+03,	 4.5284363393418468e-15,	 3.0000000000000000e+02,	 1.0000000000000000e+03,	 3.3237670711487283e+02,	 3.0086344156914393e+00 