TITLE = "Final State"
VARIABLES = "X", "Y", "rho", "u", "v", "T", "p", "c", "M"
ZONE I=51, J=48, DATAPACKING=POINT
7.8305499999999995e-01,	 2.0000000000000001e-01,	 4.5208980663227951e-03,	 7.2200585955894951e+02,	 -1.8281879215945240e+00,	 4.9259371532149987e+02,	 6.4068347007766113e+02,	 4.2590661645779687e+02,	 1.6952264797702603e+00 
7.9051950000000004e-01,	 2.0000000000000001e-01,	 4.6417276076402333e-03,	 7.1907426339726692e+02,	 -1.5997349193398538e+00,	 4.9583885065820124e+02,	 6.6214048207290307e+02,	 4.2730721874611180e+02,	 1.6828080859055705e+00 
7.9798389999999997e-01,	 2.0000000000000001e-01,	 4.7824421747665402e-03,	 7.1513866841487561e+02,	 -1.5010699081588466e+00,	 4.9956159523195515e+02,	 6.8733539489703139e+02,	 4.2890832457595980e+02,	 1.6673498806220906e+00 
8.0544839999999995e-01,	 2.0000000000000001e-01,	 4.9235311568593156e-03,	 7.1115131535184742e+02,	 -1.4370351321290187e+00,	 5.0325872009462387e+02,	 7.1284964354716885e+02,	 4.3049251816012611e+02,	 1.6519515143026957e+00 
8.1291290000000005e-01,	 2.0000000000000001e-01,	 5.0639137228748188e-03,	 7.0721764046333431e+02,	 -1.3639853847678896e+00,	 5.0686668742362963e+02,	 7.3843110870212865e+02,	 4.3203290782844346e+02,	 1.6369562201911496e+00 
8.2037729999999998e-01,	 2.0000000000000001e-01,	 5.2023734506542272e-03,	 7.0338012345119455e+02,	 -1.2868878853970118e+00,	 5.1034757740390012e+02,	 7.6383142119367869e+02,	 4.3351385534352039e+02,	 1.6225116960169339e+00 
8.2784179999999996e-01,	 2.0000000000000001e-01,	 5.3378764640337716e-03,	 6.9966889009636202e+02,	 -1.2048238630232828e+00,	 5.1368094295357787e+02,	 7.8884542325252733e+02,	 4.3492731184376549e+02,	 1.6087054282190905e+00 
8.3530629999999995e-01,	 2.0000000000000001e-01,	 5.4698364583875211e-03,	 6.9608861827682404e+02,	 -1.1285504012769974e+00,	 5.1686105758350459e+02,	 8.1335116112055800e+02,	 4.3627151651170453e+02,	 1.5955420117423089e+00 
8.4277069999999998e-01,	 2.0000000000000001e-01,	 5.5976402515724938e-03,	 6.9265858843026842e+02,	 -1.0508079194506870e+00,	 5.1988069043185476e+02,	 8.3721809898532331e+02,	 4.3754406477832026e+02,	 1.5830620073719037e+00 
8.5023519999999997e-01,	 2.0000000000000001e-01,	 5.7207397948949900e-03,	 6.8937148540980434e+02,	 -9.7578476507726086e-01,	 5.2274114860100485e+02,	 8.6033743394341138e+02,	 4.3874612868363249e+02,	 1.5712324985633161e+00 
8.5769960000000001e-01,	 2.0000000000000001e-01,	 5.8386174734737905e-03,	 6.8624826851670673e+02,	 -9.0015002066189065e-01,	 5.2543430167164331e+02,	 8.8258873777107658e+02,	 4.3987488283438830e+02,	 1.5601001231457274e+00 
8.6516409999999999e-01,	 2.0000000000000001e-01,	 5.9511170069859107e-03,	 6.8328249583627337e+02,	 -8.3086922669028840e-01,	 5.2796436108388514e+02,	 9.0392632433146480e+02,	 4.4093264884385957e+02,	 1.5496312255279270e+00 
8.7262859999999998e-01,	 2.0000000000000001e-01,	 6.0581618337566534e-03,	 6.8047067947913138e+02,	 -7.6347058253676114e-01,	 5.3033980178327658e+02,	 9.2432570359974534e+02,	 4.4192346748819500e+02,	 1.5397940092293068e+00 
8.8009300000000001e-01,	 2.0000000000000001e-01,	 6.1600082840960538e-03,	 6.7779058418838940e+02,	 -7.0493776631879546e-01,	 5.3257708501765205e+02,	 9.4382985336477407e+02,	 4.4285463220373600e+02,	 1.5305043720590494e+00 
8.8755750000000000e-01,	 2.0000000000000001e-01,	 6.2568716925706066e-03,	 6.7523873051217402e+02,	 -6.5022067598849143e-01,	 5.3468732550766651e+02,	 9.6246972207062583e+02,	 4.4373113055999204e+02,	 1.5217301583612657e+00 
8.9502190000000004e-01,	 2.0000000000000001e-01,	 6.3489757565810684e-03,	 6.7280623206569544e+02,	 -6.0270134783733809e-01,	 5.3667937559855784e+02,	 9.8027632062220164e+02,	 4.4455695232756221e+02,	 1.5134315153405029e+00 
9.0248640000000002e-01,	 2.0000000000000001e-01,	 6.4362329025593962e-03,	 6.7051182296519232e+02,	 -5.5527701450807843e-01,	 5.3854852680767544e+02,	 9.9720978393838493e+02,	 4.4533043269139762e+02,	 1.5056506442556239e+00 
9.0995090000000001e-01,	 2.0000000000000001e-01,	 6.5185128377270281e-03,	 6.6835616505675569e+02,	 -5.0994597806920505e-01,	 5.4029318590854848e+02,	 1.0132297968891656e+03,	 4.4605118627939976e+02,	 1.4983848942814830e+00 
9.1741530000000004e-01,	 2.0000000000000001e-01,	 6.5956904947864214e-03,	 6.6634359625336367e+02,	 -4.6362542998442346e-01,	 5.4191308568590921e+02,	 1.0283000185232097e+03,	 4.4671935816779933e+02,	 1.4916384198703441e+00 
9.2487980000000003e-01,	 2.0000000000000001e-01,	 6.6680678448808161e-03,	 6.6445298241694445e+02,	 -4.2344368326823600e-01,	 5.4342068139795674e+02,	 1.0424761073557800e+03,	 4.4734031054850107e+02,	 1.4853414764447694e+00 
9.3234419999999996e-01,	 2.0000000000000001e-01,	 6.7359811799676608e-03,	 6.6266829446839074e+02,	 -3.8551811715887163e-01,	 5.4483052134140439e+02,	 1.0558257054923520e+03,	 4.4792022012376646e+02,	 1.4794340081946102e+00 
9.3980870000000005e-01,	 2.0000000000000001e-01,	 6.8001782771254168e-03,	 6.6094797938414683e+02,	 -3.5529464608104167e-01,	 5.4616475384895989e+02,	 1.0684984733924837e+03,	 4.4846833945570688e+02,	 1.4737898235607574e+00 
9.4727320000000004e-01,	 2.0000000000000001e-01,	 6.7563470303717531e-03,	 6.5636546871194810e+02,	 -2.2314869146000393e-01,	 5.6651165595218174e+02,	 1.1011607825541621e+03,	 4.5674560649373046e+02,	 1.4370483203620872e+00 
9.5473759999999996e-01,	 2.0000000000000001e-01,	 1.1647552771669064e-02,	 3.6050321230082227e+02,	 1.4236669806630264e+01,	 7.1197138849962471e+02,	 2.3857622670700530e+03,	 5.1203685828654136e+02,	 7.0460594359400419e-01 
9.6220209999999995e-01,	 2.0000000000000001e-01,	 1.4760395255810268e-02,	 1.6054891646905864e+02,	 1.3655997306293902e+01,	 7.7824717361502167e+02,	 3.3048022437243599e+03,	 5.3533881051327592e+02,	 3.0098443024233634e-01 
9.6966660000000005e-01,	 2.0000000000000001e-01,	 1.5445260317770809e-02,	 6.5278488921313965e+01,	 5.9572467100657303e+00,	 8.0133709267519794e+02,	 3.5607412512529208e+03,	 5.4322228320304691e+02,	 1.2066837718811831e-01 
9.7713099999999997e-01,	 2.0000000000000001e-01,	 1.5904315100458574e-02,	 -4.5139541841151010e+00,	 4.9750836607778837e+00,	 8.0626908823837095e+02,	 3.6891381471224236e+03,	 5.4489140608252501e+02,	 1.2328476937353387e-02 
9.8459549999999996e-01,	 2.0000000000000001e-01,	 1.6198882294733336e-02,	 -5.5232060139218007e+01,	 3.6186741019880229e+00,	 8.0071261227482250e+02,	 3.7315705461739358e+03,	 5.4301057592753534e+02,	 1.0193259420860837e-01 
9.9205989999999999e-01,	 2.0000000000000001e-01,	 1.6379383320332546e-02,	 -9.1759791489757419e+01,	 2.7020994128289004e+00,	 7.9363735810426283e+02,	 3.7398104160337657e+03,	 5.4060617857103261e+02,	 1.6980858078772754e-01 
9.9952439999999998e-01,	 2.0000000000000001e-01,	 1.6423945886410437e-02,	 -1.1846838430082559e+02,	 1.9509331265468948e+00,	 7.8973939298884102e+02,	 3.7315670065859331e+03,	 5.3927694561318265e+02,	 2.1970983207098937e-01 
1.0069889999999999e+00,	 2.0000000000000001e-01,	 1.6371135015749341e-02,	 -1.3993812290825787e+02,	 1.6078921972823710e+00,	 7.8694145988661421e+02,	 3.7063903319051255e+03,	 5.3832080766270440e+02,	 2.5997018500897523e-01 
1.0144530000000000e+00,	 2.0000000000000001e-01,	 1.6280169710783193e-02,	 -1.5946971476894043e+02,	 1.5713226647400989e+00,	 7.8445195798081568e+02,	 3.6741359047287297e+03,	 5.3746863992099395e+02,	 2.9671955569067165e-01 
1.0219180000000001e+00,	 2.0000000000000001e-01,	 1.6174099492067346e-02,	 -1.7899038300143650e+02,	 1.6539182760009998e+00,	 7.8202757203758119e+02,	 3.6389166912762876e+03,	 5.3663746107625047e+02,	 3.3355484315157724e-01 
1.0293820000000000e+00,	 2.0000000000000001e-01,	 1.6049267388903464e-02,	 -1.9959454983847803e+02,	 1.7623082978207898e+00,	 7.7935254593025275e+02,	 3.5984801271671104e+03,	 5.3571885604963563e+02,	 3.7258783694354519e-01 
1.0368470000000001e+00,	 2.0000000000000001e-01,	 1.5906865301247672e-02,	 -2.2108215071953515e+02,	 1.7958671358071889e+00,	 7.7631535612228890e+02,	 3.5526524060714637e+03,	 5.3467397067357228e+02,	 4.1350328743963743e-01 
1.0443110000000000e+00,	 2.0000000000000001e-01,	 1.5747285035153744e-02,	 -2.4258109346556054e+02,	 1.6922892774798171e+00,	 7.7286025675899123e+02,	 3.5013586690207462e+03,	 5.3348282345371888e+02,	 4.5472316180721933e-01 
1.0517760000000000e+00,	 2.0000000000000001e-01,	 1.5579226479555564e-02,	 -2.6277851289394323e+02,	 1.4881807298044722e+00,	 7.6915924856675906e+02,	 3.4474033139012836e+03,	 5.3220394172922977e+02,	 4.9376321035312393e-01 
1.0592400000000000e+00,	 2.0000000000000001e-01,	 1.5419424027878059e-02,	 -2.8037414154477210e+02,	 1.2443067648006063e+00,	 7.6566223464378811e+02,	 3.3965289105713036e+03,	 5.3099271996993571e+02,	 5.2802400507072222e-01 
1.0667050000000000e+00,	 2.0000000000000001e-01,	 1.5276316704238320e-02,	 -2.9492158728385846e+02,	 1.0122712510820653e+00,	 7.6253829506799525e+02,	 3.3512764138356988e+03,	 5.2990837458687281e+02,	 5.5655531909337685e-01 
1.0741689999999999e+00,	 2.0000000000000001e-01,	 1.5147275507757949e-02,	 -3.0681916414925570e+02,	 8.2789823789079109e-01,	 7.5970747564748035e+02,	 3.3106316460477724e+03,	 5.2892385372826823e+02,	 5.8008403091358496e-01 
1.0816330000000001e+00,	 2.0000000000000001e-01,	 1.5031396918615526e-02,	 -3.1660719095474036e+02,	 6.9363778425195433e-01,	 7.5713527731583804e+02,	 3.2741815896964877e+03,	 5.2802768603509105e+02,	 5.9960482973571683e-01 
1.0890979999999999e+00,	 2.0000000000000001e-01,	 1.4930545233285884e-02,	 -3.2467672041415193e+02,	 5.9972680375415355e-01,	 7.5488453484478418e+02,	 3.2425459054605562e+03,	 5.2724226570017731e+02,	 6.1580282050297208e-01 
1.0965620000000000e+00,	 2.0000000000000001e-01,	 1.4845905469655335e-02,	 -3.3134339668059181e+02,	 5.3896874664829608e-01,	 7.5298787045309905e+02,	 3.2160634526515632e+03,	 5.2657949509954278e+02,	 6.2923801270591395e-01 
1.1040270000000001e+00,	 2.0000000000000001e-01,	 1.4780005001623214e-02,	 -3.3678968063954403e+02,	 5.0557052569436145e-01,	 7.5148447039206849e+02,	 3.1953948338366681e+03,	 5.2605355356452469e+02,	 6.4022010273453900e-01 
1.1114910000000000e+00,	 2.0000000000000001e-01,	 1.4737021202055084e-02,	 -3.4101809245340723e+02,	 4.6185882630768227e-01,	 7.5044014833667995e+02,	 3.1816742009497002e+03,	 5.2568790374445564e+02,	 6.4870886848282350e-01 
1.1189560000000001e+00,	 2.0000000000000001e-01,	 1.4720144224586111e-02,	 -3.4388324617770604e+02,	 5.3776968495795330e-01,	 7.4986894216878022e+02,	 3.1756115227032906e+03,	 5.2548779895588666e+02,	 6.5440847027619342e-01 
1.1264200000000000e+00,	 2.0000000000000001e-01,	 1.4729159579984004e-02,	 -3.4545075260995480e+02,	 3.8572674299991982e-01,	 7.4985578826420681e+02,	 3.1775006872033355e+03,	 5.2548318998604782e+02,	 6.5739680077741169e-01 
1.1338850000000000e+00,	 2.0000000000000001e-01,	 1.4763542118171113e-02,	 -3.4550792155483623e+02,	 2.9260653764753497e-01,	 7.5017473341327786e+02,	 3.1862726626937419e+03,	 5.2559493313647340e+02,	 6.5736563211425481e-01 
1.1413489999999999e+00,	 2.0000000000000001e-01,	 1.4819920818073481e-02,	 -3.4458882248782140e+02,	 1.8078928458705443e-02,	 7.5095747327228264e+02,	 3.2017776176110337e+03,	 5.2586906716531610e+02,	 6.5527494290465915e-01 
1.1488140000000000e+00,	 2.0000000000000001e-01,	 1.4901641465974131e-02,	 -3.4221559075715822e+02,	 4.5581462525182137e-03,	 7.5217132782323324e+02,	 3.2246369191740368e+03,	 5.2629390534944969e+02,	 6.5023665922995888e-01 
1.1562779999999999e+00,	 2.0000000000000001e-01,	 1.4973918723593636e-02,	 -3.3944573163090001e+02,	 -2.0738941092462027e-01,	 7.5362256213669377e+02,	 3.2465291073304506e+03,	 5.2680137465542930e+02,	 6.4435252320049352e-01 
7.8295519999999996e-01,	 2.0665570000000000e-01,	 4.8710501363178511e-03,	 7.9356367080431494e+02,	 -1.4337994484277351e+01,	 4.5724698348645904e+02,	 6.4077179373235128e+02,	 4.1034143991873697e+02,	 1.9342262599780176e+00 
7.9046340000000004e-01,	 2.0665040000000001e-01,	 5.0054056069140183e-03,	 7.9030348405052587e+02,	 -1.3718573899574697e+01,	 4.6050361352257983e+02,	 6.6313546607103979e+02,	 4.1180012561907978e+02,	 1.9194324955957693e+00 
7.9795649999999996e-01,	 2.0664910000000000e-01,	 5.1574088196368667e-03,	 7.8616677499923151e+02,	 -1.3185691635807512e+01,	 4.6415614801531228e+02,	 6.8869289632961943e+02,	 4.1343001882440313e+02,	 1.9018390235165958e+00 
8.0543489999999995e-01,	 2.0664820000000000e-01,	 5.3085823329658260e-03,	 7.8207020876723550e+02,	 -1.2640297114935025e+01,	 4.6773838019419964e+02,	 7.1435074533206750e+02,	 4.1502232327083948e+02,	 1.8846512786098724e+00 
8.1290600000000002e-01,	 2.0664710000000000e-01,	 5.4583084080917039e-03,	 7.7802161207360359e+02,	 -1.2030710249374504e+01,	 4.7124215600868700e+02,	 7.4000072038248231e+02,	 4.1657386595225046e+02,	 1.8678911155997160e+00 
8.2037360000000004e-01,	 2.0664550000000001e-01,	 5.6057851220584340e-03,	 7.7403519581729927e+02,	 -1.1368257783291309e+01,	 4.7465267111261528e+02,	 7.6549492055895030e+02,	 4.1807858082454317e+02,	 1.8516104618684923e+00 
8.2783940000000000e-01,	 2.0664360000000001e-01,	 5.7501755813249384e-03,	 7.7014708445487486e+02,	 -1.0680782609126226e+01,	 4.7794667120657090e+02,	 7.9066130460659315e+02,	 4.1952676591978269e+02,	 1.8359284953050712e+00 
8.3530430000000000e-01,	 2.0664160000000001e-01,	 5.8907276205302462e-03,	 7.6637802433088791e+02,	 -9.9945929665736628e+00,	 4.8110819224677152e+02,	 8.1534541162387382e+02,	 4.2091202146099556e+02,	 1.8209106746820558e+00 
8.4276879999999998e-01,	 2.0663940000000000e-01,	 6.0267098376520119e-03,	 7.6274543653627245e+02,	 -9.3140126320461114e+00,	 4.8412712923961897e+02,	 8.3940130475997967e+02,	 4.2223056031815821e+02,	 1.8066013538385766e+00 
8.5023329999999997e-01,	 2.0663680000000001e-01,	 6.1575633583933493e-03,	 7.5925834049015100e+02,	 -8.6476265169446904e+00,	 4.8699754991623331e+02,	 8.6271153123207864e+02,	 4.2348042640485471e+02,	 1.7930169564528480e+00 
8.5769759999999995e-01,	 2.0663429999999999e-01,	 6.2828708973884061e-03,	 7.5593758240108332e+02,	 -8.0022505582317898e+00,	 4.8971036378669294e+02,	 8.8517138981284518e+02,	 4.2465828462868666e+02,	 1.7802076727024581e+00 
8.6516199999999999e-01,	 2.0663180000000000e-01,	 6.4024283600220225e-03,	 7.5277770893688580e+02,	 -7.3921661189690431e+00,	 4.9226906886943152e+02,	 9.0672838895196537e+02,	 4.2576624533968038e+02,	 1.7681392343633902e+00 
8.7262629999999997e-01,	 2.0662920000000001e-01,	 6.5162254062163857e-03,	 7.4977753524860009e+02,	 -6.8255463757746311e+00,	 4.9467948646552213e+02,	 9.2736336974317169e+02,	 4.2680736419221802e+02,	 1.7567845952274905e+00 
8.8009059999999995e-01,	 2.0662649999999999e-01,	 6.6244868564838827e-03,	 7.4692849955601264e+02,	 -6.3122294462744053e+00,	 4.9695081466303168e+02,	 9.4709945589682809e+02,	 4.2778608819323830e+02,	 1.7460950501981736e+00 
8.8755490000000004e-01,	 2.0662369999999999e-01,	 6.7274057501271311e-03,	 7.4422904939455248e+02,	 -5.8460523330653285e+00,	 4.9909067427331718e+02,	 9.6595526618612826e+02,	 4.2870611773675273e+02,	 1.7360424289323413e+00 
8.9501920000000001e-01,	 2.0662079999999999e-01,	 6.8251099961954883e-03,	 7.4167478953725504e+02,	 -5.4166227390830803e+00,	 5.0110450283392493e+02,	 9.8393837216372879e+02,	 4.2957016061234202e+02,	 1.7265970421254355e+00 
9.0248349999999999e-01,	 2.0661789999999999e-01,	 6.9175021070396261e-03,	 7.3926924847826865e+02,	 -5.0045260438710120e+00,	 5.0299302495894131e+02,	 1.0010164173694366e+03,	 4.3037886402545951e+02,	 1.7177567238875651e+00 
9.0994790000000003e-01,	 2.0661489999999999e-01,	 7.0045029365438244e-03,	 7.3700500047060882e+02,	 -4.6048943957633455e+00,	 5.0475962519476434e+02,	 1.0171660783063202e+03,	 4.3113398482368552e+02,	 1.7094903492564593e+00 
9.1741229999999996e-01,	 2.0661189999999999e-01,	 7.0861958766207178e-03,	 7.3488108095374048e+02,	 -4.2242008894833623e+00,	 5.0640703486082930e+02,	 1.0323876973453262e+03,	 4.3183696865902232e+02,	 1.7017839482085670e+00 
9.2487670000000000e-01,	 2.0660890000000001e-01,	 7.1628804349472639e-03,	 7.3288271428404710e+02,	 -3.8773986065959098e+00,	 5.0794537460084058e+02,	 1.0467299463392151e+03,	 4.3249237842352335e+02,	 1.6945800843726400e+00 
9.3234110000000003e-01,	 2.0660580000000001e-01,	 7.2349229791234546e-03,	 7.3100211201835077e+02,	 -3.5685264869845916e+00,	 5.0938381473757397e+02,	 1.0602517331721720e+03,	 4.3310432865607766e+02,	 1.6878400279598627e+00 
9.3980549999999996e-01,	 2.0660270000000000e-01,	 7.3029467024329480e-03,	 7.2921425344344505e+02,	 -3.2950430114746316e+00,	 5.1073815711521149e+02,	 1.0730658497560948e+03,	 4.3367971224182867e+02,	 1.6814752393224226e+00 
9.4726999999999995e-01,	 2.0659959999999999e-01,	 7.3291071667893459e-03,	 7.2966296362970172e+02,	 -9.7692624553808138e-01,	 5.1951805921678783e+02,	 1.0954225032047893e+03,	 4.3739143859204938e+02,	 1.6682165064053347e+00 
9.5473439999999998e-01,	 2.0659649999999999e-01,	 1.0923544372598055e-02,	 5.0819696219914812e+02,	 5.2392145622311702e+01,	 6.3994015443429839e+02,	 2.0110963436124950e+03,	 4.8544455530062982e+02,	 1.0524177911446604e+00 
9.6219889999999997e-01,	 2.0659340000000001e-01,	 1.5292636940476655e-02,	 2.3420620226413649e+02,	 9.4776766233358273e+01,	 7.7040010395894615e+02,	 3.3894454469396069e+03,	 5.3263306092783751e+02,	 4.7435329948624355e-01 
9.6966330000000001e-01,	 2.0659020000000000e-01,	 1.5659034454791075e-02,	 1.4151955979557815e+02,	 6.9632094958885276e+01,	 7.9030711440397090e+02,	 3.5603345493175070e+03,	 5.3947074629661824e+02,	 2.9236541201287919e-01 
9.7712779999999999e-01,	 2.0658710000000000e-01,	 1.5996028100586722e-02,	 6.6897860295698365e+01,	 5.2174531487759737e+01,	 8.0029094374634110e+02,	 3.6829006054625461e+03,	 5.4286757791561354e+02,	 1.5627773076213258e-01 
9.8459229999999998e-01,	 2.0658389999999999e-01,	 1.6197793241218950e-02,	 1.1014400194343363e+01,	 3.8564037450411462e+01,	 8.0088936981527627e+02,	 3.7321433619693271e+03,	 5.4307050749098551e+02,	 7.3850694509364656e-02 
9.9205690000000002e-01,	 2.0658070000000001e-01,	 1.6303700464349494e-02,	 -3.0772524445395383e+01,	 2.8658882809474772e+01,	 7.9801559522989589e+02,	 3.7430661633529462e+03,	 5.4209530117522900e+02,	 7.7571082677755254e-02 
9.9952140000000000e-01,	 2.0657750000000000e-01,	 1.6344481379893538e-02,	 -6.4098778874105250e+01,	 2.1566533655707083e+01,	 7.9493244242454489e+02,	 3.7379312019319868e+03,	 5.4104708850727513e+02,	 1.2499770542043258e-01 
1.0069859999999999e+00,	 2.0657429999999999e-01,	 1.6312421548647881e-02,	 -9.2305210789026233e+01,	 1.7582622781810546e+01,	 7.9154975733801336e+02,	 3.7147243585167962e+03,	 5.3989469933407315e+02,	 1.7404299425242553e-01 
1.0144500000000001e+00,	 2.0657110000000001e-01,	 1.6228404769492753e-02,	 -1.1665098938274929e+02,	 1.6395978766201026e+01,	 7.8860154241118721e+02,	 3.6818271083096602e+03,	 5.3888831249418251e+02,	 2.1859377251766746e-01 
1.0219149999999999e+00,	 2.0656790000000000e-01,	 1.6105313756379008e-02,	 -1.3841019180904576e+02,	 1.6660455834875485e+01,	 7.8674977785385295e+02,	 3.6453208230027626e+03,	 5.3825524197820607e+02,	 2.5900220889962722e-01 
1.0293800000000000e+00,	 2.0656459999999999e-01,	 1.5954870077285525e-02,	 -1.5926195949562100e+02,	 1.7248007053508260e+01,	 7.8507388297263674e+02,	 3.6035764447482798e+03,	 5.3768165421062338e+02,	 2.9793319474570934e-01 
1.0368440000000001e+00,	 2.0656140000000001e-01,	 1.5786518511597694e-02,	 -1.7995910808868393e+02,	 1.7301677095429387e+01,	 7.8300089909090093e+02,	 3.5561376355576231e+03,	 5.3697131205209234e+02,	 3.3668261631163188e-01 
1.0443089999999999e+00,	 2.0655809999999999e-01,	 1.5603031194686971e-02,	 -2.0032513415312332e+02,	 1.6345113902354214e+01,	 7.8057912743075019e+02,	 3.5039334445387549e+03,	 5.3614026000872036e+02,	 3.7488483114124954e-01 
1.0517730000000001e+00,	 2.0655490000000001e-01,	 1.5416484559068883e-02,	 -2.1936612764439815e+02,	 1.4468158047388394e+01,	 7.7791286374321237e+02,	 3.4502156667175891e+03,	 5.3522381602364158e+02,	 4.1074915307693327e-01 
1.0592379999999999e+00,	 2.0655160000000000e-01,	 1.5242752670117345e-02,	 -2.3589863037797733e+02,	 1.2143722434001806e+01,	 7.7526468495961910e+02,	 3.3997214987773013e+03,	 5.3431203224127205e+02,	 4.4208436270474694e-01 
1.0667020000000000e+00,	 2.0654829999999999e-01,	 1.5089250088064618e-02,	 -2.4944235845509854e+02,	 9.8642523986083432e+00,	 7.7278914840529069e+02,	 3.3547380076073982e+03,	 5.3345828088112398e+02,	 4.6796035081570853e-01 
1.0741670000000001e+00,	 2.0654510000000001e-01,	 1.4953900735952692e-02,	 -2.6038875097052335e+02,	 7.9458097282721223e+00,	 7.7048529838178774e+02,	 3.3147347963067805e+03,	 5.3266251063295715e+02,	 4.8907131902427431e-01 
1.0816310000000000e+00,	 2.0654180000000000e-01,	 1.4835385668108247e-02,	 -2.6934286399144133e+02,	 6.4502608171024356e+00,	 7.6835623725276093e+02,	 3.2793774007782458e+03,	 5.3192605558968683e+02,	 5.0649913830400772e-01 
1.0890960000000001e+00,	 2.0653850000000001e-01,	 1.4734520374277346e-02,	 -2.7668024741638675e+02,	 5.3083010533753381e+00,	 7.6645994723270508e+02,	 3.2490426027589574e+03,	 5.3126925790533357e+02,	 5.2088683905358624e-01 
1.0965600000000000e+00,	 2.0653520000000000e-01,	 1.4650379459861699e-02,	 -2.8265726763771136e+02,	 4.4457536596517686e+00,	 7.6482684883348679e+02,	 3.2236058570919508e+03,	 5.3070296763262195e+02,	 5.3267504624751583e-01 
1.1040250000000000e+00,	 2.0653199999999999e-01,	 1.4583099451724237e-02,	 -2.8742579250605593e+02,	 3.7553453730605888e+00,	 7.6348476130374081e+02,	 3.2031711793433415e+03,	 5.3023713502798535e+02,	 5.4211654577887569e-01 
1.1114889999999999e+00,	 2.0652870000000001e-01,	 1.4536081244751625e-02,	 -2.9096470894740753e+02,	 3.0230212452438030e+00,	 7.6249700572142467e+02,	 3.1887129218611262e+03,	 5.2989402785382470e+02,	 5.4912944342332559e-01 
1.1189540000000000e+00,	 2.0652540000000000e-01,	 1.4514557099253797e-02,	 -2.9315578283859850e+02,	 2.2877045036780062e+00,	 7.6192780890605684e+02,	 3.1816144501798417e+03,	 5.2969621048543388e+02,	 5.5345819584451206e-01 
1.1264179999999999e+00,	 2.0652209999999999e-01,	 1.4518114356421714e-02,	 -2.9401181649266073e+02,	 1.2708193090311926e+00,	 7.6182557016768988e+02,	 3.1819671794271499e+03,	 5.2966067083950554e+02,	 5.5509985755782509e-01 
1.1338830000000000e+00,	 2.0651880000000000e-01,	 1.4549116466771407e-02,	 -2.9349673101316472e+02,	 5.1903162044260542e-01,	 7.6209894486957307e+02,	 3.1899062408366708e+03,	 5.2975569445534245e+02,	 5.5402366227120914e-01 
1.1413480000000000e+00,	 2.0651549999999999e-01,	 1.4607878704677059e-02,	 -2.9169096381934281e+02,	 -4.3516699562164624e-01,	 7.6288398339904847e+02,	 3.2060891073997668e+03,	 5.3002847503723490e+02,	 5.5033135419083568e-01 
1.1488119999999999e+00,	 2.0651220000000001e-01,	 1.4692150305793746e-02,	 -2.8858023383320267e+02,	 -1.2758335030772814e+00,	 7.6403029086248853e+02,	 3.2294300134320074e+03,	 5.3042653525735147e+02,	 5.4405847919017880e-01 
1.1562770000000000e+00,	 2.0650890000000000e-01,	 1.4766203546276757e-02,	 -2.8516811187951225e+02,	 -1.8919871301546642e+00,	 7.6538813599959781e+02,	 3.2514757122256669e+03,	 5.3089766669044354e+02,	 5.3715509791715921e-01 
7.8279960000000004e-01,	 2.1285299999999999e-01,	 5.3649094817517506e-03,	 8.7698248457270756e+02,	 -3.1603440962175526e+01,	 4.0840022710888189e+02,	 6.3034499844823040e+02,	 3.8780458642780718e+02,	 2.2628709673436287e+00 
7.9031019999999996e-01,	 2.1284910000000001e-01,	 5.5198173321500711e-03,	 8.7358108594645694e+02,	 -3.0171163678211546e+01,	 4.1172638335965473e+02,	 6.5382773731318684e+02,	 3.8938059307106488e+02,	 2.2448523681842074e+00 
7.9781420000000003e-01,	 2.1285070000000000e-01,	 5.6890340597808634e-03,	 8.6957478293541021e+02,	 -2.8821165050743581e+01,	 4.1532051176626209e+02,	 6.7975412514336210e+02,	 3.9107643161596803e+02,	 2.2247627458193540e+00 
8.0530480000000004e-01,	 2.1285360000000000e-01,	 5.8550007210496167e-03,	 8.6572363103946793e+02,	 -2.7536599185801748e+01,	 4.1875086890484420e+02,	 7.0536289713654730e+02,	 3.9268816648414270e+02,	 2.2057233473051965e+00 
8.1278629999999996e-01,	 2.1285650000000000e-01,	 6.0182032209367582e-03,	 8.6197644557179649e+02,	 -2.6235169612930687e+01,	 4.2206636116607405e+02,	 7.3076464281938081e+02,	 3.9423967090364732e+02,	 2.1874399367713422e+00 
8.2026250000000001e-01,	 2.1285860000000001e-01,	 6.1788221433553871e-03,	 8.5830898195660097e+02,	 -2.4888247430628716e+01,	 4.2529368712396763e+02,	 7.5600482631049829e+02,	 3.9574407526012618e+02,	 2.1697602063323340e+00 
8.2773549999999996e-01,	 2.1286030000000000e-01,	 6.3364403363772573e-03,	 8.5472824544596040e+02,	 -2.3496109260059843e+01,	 4.2843054041482458e+02,	 7.8100840755728734e+02,	 3.9720084560791690e+02,	 2.1526921275368691e+00 
8.3520649999999996e-01,	 2.1286150000000001e-01,	 6.4901968525419573e-03,	 8.5125083462495957e+02,	 -2.2074217890210470e+01,	 4.3146309026937672e+02,	 8.0562225818581646e+02,	 3.9860411552227242e+02,	 2.1362975499897074e+00 
8.4267650000000005e-01,	 2.1286220000000000e-01,	 6.6392418049598450e-03,	 8.4789339413937489e+02,	 -2.0645343405835497e+01,	 4.3437651775717973e+02,	 8.2968791258747001e+02,	 3.9994762600507323e+02,	 2.1206394245790015e+00 
8.5014590000000001e-01,	 2.1286220000000000e-01,	 6.7829047703125553e-03,	 8.4466684555290999e+02,	 -1.9233165829097473e+01,	 4.3716113416829575e+02,	 8.5307497335141477e+02,	 4.0122753122762208e+02,	 2.1057522781244797e+00 
8.5761480000000001e-01,	 2.1286200000000000e-01,	 6.9208257600580445e-03,	 8.4157893727740088e+02,	 -1.7862466180876652e+01,	 4.3981117108681229e+02,	 8.7569749847871310e+02,	 4.0244179890988084e+02,	 2.0916527138551881e+00 
8.6508330000000000e-01,	 2.1286150000000001e-01,	 7.0528221422218101e-03,	 8.3862970810562229e+02,	 -1.6559855358829999e+01,	 4.4232767578545986e+02,	 8.9750521926554109e+02,	 4.0359149927516205e+02,	 2.0783222437197564e+00 
8.7255150000000004e-01,	 2.1286060000000001e-01,	 7.1788462063203514e-03,	 8.3582016137620008e+02,	 -1.5346578665661669e+01,	 4.4471181917712511e+02,	 9.1846636953172970e+02,	 4.0467771538955702e+02,	 2.0657451788314622e+00 
8.8001949999999995e-01,	 2.1285940000000000e-01,	 7.2988489789468126e-03,	 8.3315327385968214e+02,	 -1.4230392143692638e+01,	 4.4696371337988546e+02,	 9.3854820121668422e+02,	 4.0570100805180022e+02,	 2.0539135401565027e+00 
8.8748720000000003e-01,	 2.1285789999999999e-01,	 7.4127107783802703e-03,	 8.3063377302332401e+02,	 -1.3200795283151793e+01,	 4.4908193653053348e+02,	 9.5770681930266005e+02,	 4.0666120849361528e+02,	 2.0428274088023053e+00 
8.9495469999999999e-01,	 2.1285620000000000e-01,	 7.5202563054348626e-03,	 8.2826416508049601e+02,	 -1.2233976843331005e+01,	 4.5106577608020336e+02,	 9.7589357078277556e+02,	 4.0755844073731913e+02,	 2.0324803244848919e+00 
9.0242210000000000e-01,	 2.1285419999999999e-01,	 7.6215053040683883e-03,	 8.2603875995162446e+02,	 -1.1310304005722774e+01,	 4.5292013983272858e+02,	 9.9309850109445529e+02,	 4.0839533247748653e+02,	 2.0228345483130648e+00 
9.0988930000000001e-01,	 2.1285190000000001e-01,	 7.7168351984999075e-03,	 8.2394394173074636e+02,	 -1.0431842973471579e+01,	 4.5465683092343465e+02,	 1.0093757889075904e+03,	 4.0917756523183147e+02,	 2.0138200311524792e+00 
9.1735639999999996e-01,	 2.1284950000000000e-01,	 7.8067205823975387e-03,	 8.2196739545340495e+02,	 -9.6121607310387169e+00,	 4.5628748988756922e+02,	 1.0247953229822642e+03,	 4.0991068065394938e+02,	 2.0053724751870203e+00 
9.2482339999999996e-01,	 2.1284680000000000e-01,	 7.8914598491883724e-03,	 8.2010172330895807e+02,	 -8.8627512337120482e+00,	 4.5781938198273428e+02,	 1.0393970107063144e+03,	 4.1059819979922548e+02,	 1.9974505775040909e+00 
9.3229030000000002e-01,	 2.1284400000000001e-01,	 7.9713273322344833e-03,	 8.1834270264570091e+02,	 -8.1900797422930509e+00,	 4.5925691343405578e+02,	 1.0532131754610423e+03,	 4.1124232413912853e+02,	 1.9900278674428367e+00 
9.3975710000000001e-01,	 2.1284100000000000e-01,	 8.0466977457926761e-03,	 8.1668159977887785e+02,	 -7.5973950315205032e+00,	 4.6060724402611629e+02,	 1.0662974970916744e+03,	 4.1184645821291974e+02,	 1.9830616995939949e+00 
9.4722379999999995e-01,	 2.1283790000000000e-01,	 8.1054178013667839e-03,	 8.2104005224015452e+02,	 -8.2243163597761679e+00,	 4.5601740508767807e+02,	 1.0633757749331446e+03,	 4.0978934593146721e+02,	 2.0036666415021034e+00 
9.5469040000000005e-01,	 2.1283460000000001e-01,	 9.4395218912699877e-03,	 7.5681460308314740e+02,	 4.6204119120981730e+01,	 5.0135787382600586e+02,	 1.3615317566719382e+03,	 4.2967874760616127e+02,	 1.7646292589877683e+00 
9.6215680000000003e-01,	 2.1283120000000000e-01,	 1.4996794324704469e-02,	 4.8742336816532293e+02,	 1.5040454229299971e+02,	 6.7335136283929398e+02,	 2.9051604037270035e+03,	 4.9795583445781915e+02,	 1.0243901164809581e+00 
9.6962320000000002e-01,	 2.1282760000000001e-01,	 1.6921330956584654e-02,	 3.2735768153929860e+02,	 1.4944645365597509e+02,	 7.4984119533821968e+02,	 3.6503436657141719e+03,	 5.2547807675312515e+02,	 6.8481891189299759e-01 
9.7708960000000000e-01,	 2.1282400000000001e-01,	 1.6646736474808504e-02,	 2.4692258521417241e+02,	 1.1530115521823504e+02,	 7.7159972399051810e+02,	 3.6953119427984234e+03,	 5.3304759147062248e+02,	 5.1124191940139352e-01 
9.8455579999999998e-01,	 2.1282019999999999e-01,	 1.6515311620161593e-02,	 1.7361534458042595e+02,	 8.8854325790319734e+01,	 7.8763960536004606e+02,	 3.7423487412202262e+03,	 5.3855954391974080e+02,	 3.6213588796939622e-01 
9.9202199999999996e-01,	 2.1281630000000001e-01,	 1.6374268416855312e-02,	 1.1395833983933485e+02,	 7.0372755703701984e+01,	 7.9568677486369108e+02,	 3.7482968892343374e+03,	 5.4130373458995484e+02,	 2.4743208175837506e-01 
9.9948820000000005e-01,	 2.1281240000000001e-01,	 1.6279209892253725e-02,	 6.3598203824188651e+01,	 5.6643756513006551e+01,	 7.9802124904293044e+02,	 3.7374700029510141e+03,	 5.4209722150114078e+02,	 1.5710465113706121e-01 