TITLE = "Final State"
VARIABLES = "X", "Y", "rho", "u", "v", "T", "p", "c", "M"
ZONE I=51, J=48, DATAPACKING=POINT
4.1887890000000000e-01,	 3.6451889999999998e-01,	 4.0684896403699364e-02,	 3.4203565300209152e+02,	 2.2902869892807638e+02,	 7.1314004849660000e+02,	 8.3471453920211188e+03,	 5.1245692547302065e+02,	 8.0325576408336741e-01 
4.2479370000000000e-01,	 3.6640060000000002e-01,	 4.0558918680240912e-02,	 3.4247124755968923e+02,	 2.3063945236926810e+02,	 7.1241733774110776e+02,	 8.3128661085577114e+03,	 5.1219719247088813e+02,	 8.0612231167997728e-01 
4.3068909999999999e-01,	 3.6833670000000002e-01,	 4.0389445543147509e-02,	 3.4334167200478521e+02,	 2.3264479738314219e+02,	 7.1153868024038979e+02,	 8.2679214648217967e+03,	 5.1188123668735517e+02,	 8.1022191023114842e-01 
4.3656909999999999e-01,	 3.7032739999999997e-01,	 4.0208057136358721e-02,	 3.4445720988929730e+02,	 2.3476722065818643e+02,	 7.1056875733800894e+02,	 8.2195706768933960e+03,	 5.1153223623380410e+02,	 8.1491050407697052e-01 
4.4243710000000003e-01,	 3.7237250000000000e-01,	 4.0013267336519338e-02,	 3.4584079715925452e+02,	 2.3699160614105824e+02,	 7.0950431951565167e+02,	 8.1674972516590924e+03,	 5.1114895289839927e+02,	 8.2021174908074068e-01 
4.4851380000000002e-01,	 3.7455020000000000e-01,	 3.9799572130283407e-02,	 3.4755588606223910e+02,	 2.3934801635764200e+02,	 7.0829979040047340e+02,	 8.1100858952502622e+03,	 5.1071487849060588e+02,	 8.2628942243362047e-01 
4.5458640000000000e-01,	 3.7678499999999998e-01,	 3.9568591820204349e-02,	 3.4961569543565895e+02,	 2.4176637744927874e+02,	 7.0696904486761014e+02,	 8.0478695935096985e+03,	 5.1023489030371809e+02,	 8.3308138619745964e-01 
4.6065940000000000e-01,	 3.7907700000000000e-01,	 3.9321455848798328e-02,	 3.5201461029606429e+02,	 2.4423743730750641e+02,	 7.0551028639377000e+02,	 7.9811022819673290e+03,	 5.0970820966361271e+02,	 8.4057166068933442e-01 
4.6673599999999998e-01,	 3.8142369999999998e-01,	 3.9057337956643373e-02,	 3.5476537388018119e+02,	 2.4675482900316288e+02,	 7.0391460819737108e+02,	 7.9095641953024706e+03,	 5.0913147060124186e+02,	 8.4878206725407268e-01 
4.7282049999999998e-01,	 3.8382349999999998e-01,	 3.8775591400927213e-02,	 3.5787813741855427e+02,	 2.4931268098775752e+02,	 7.0217450787930056e+02,	 7.8330955890814002e+03,	 5.0850178624778437e+02,	 8.5773098890618105e-01 
4.7891679999999998e-01,	 3.8627410000000001e-01,	 3.8475600905143542e-02,	 3.6136146304038454e+02,	 2.5190307057783070e+02,	 7.0028239870410721e+02,	 7.7515501200033686e+03,	 5.0781620886231235e+02,	 8.6743314391690918e-01 
4.8503039999999997e-01,	 3.8877469999999997e-01,	 3.8156950269684825e-02,	 3.6522291405079960e+02,	 2.5451581553070167e+02,	 6.9823227923758259e+02,	 7.6648474523523473e+03,	 5.0707233255349632e+02,	 8.7789937849651856e-01 
4.9116620000000000e-01,	 3.9132210000000001e-01,	 3.7819165957939126e-02,	 3.6947070808658236e+02,	 2.5713594086115154e+02,	 6.9601770667864798e+02,	 7.5728991383823040e+03,	 5.0626755717219993e+02,	 8.8913783590261064e-01 
4.9732989999999999e-01,	 3.9391480000000001e-01,	 3.7461996287763089e-02,	 3.7411425179717071e+02,	 2.5974434773749886e+02,	 6.9363409712262899e+02,	 7.4756900652921704e+03,	 5.0539992182731481e+02,	 9.0115427486426547e-01 
5.0352770000000002e-01,	 3.9654970000000000e-01,	 3.7085066645226955e-02,	 3.7916629760634015e+02,	 2.6231773584471460e+02,	 6.9107521526208507e+02,	 7.3731712160234838e+03,	 5.0446682638027431e+02,	 9.1395794979600620e-01 
5.0976569999999999e-01,	 3.9922320000000000e-01,	 3.6688682556682332e-02,	 3.8464307662920839e+02,	 2.6484684573228662e+02,	 6.8833975904333784e+02,	 7.2654900110123981e+03,	 5.0346743069673749e+02,	 9.2757839608055936e-01 
5.1605310000000004e-01,	 4.0192460000000002e-01,	 3.6270313883083688e-02,	 3.9059393831102898e+02,	 2.6729326486827750e+02,	 6.8540025330141475e+02,	 7.1519671669080981e+03,	 5.0239126971164467e+02,	 9.4208687706705685e-01 
5.2239650000000004e-01,	 4.0463700000000002e-01,	 3.5826001442659232e-02,	 3.9699270572740306e+02,	 2.6960082850387909e+02,	 6.8224845108275235e+02,	 7.0318700268242364e+03,	 5.0123481954845010e+02,	 9.5740181610877595e-01 
5.2880410000000000e-01,	 4.0733639999999999e-01,	 3.5352968362145257e-02,	 4.0390662702347959e+02,	 2.7176313183106521e+02,	 6.7885850878537735e+02,	 6.9045453721680988e+03,	 4.9998800612037894e+02,	 9.7366756869037030e-01 
5.3527990000000003e-01,	 4.0998440000000003e-01,	 3.4848258171125163e-02,	 4.1140997431553672e+02,	 2.7380063648637469e+02,	 6.7520664454212215e+02,	 6.7693617080786216e+03,	 4.9864137020179828e+02,	 9.9107543625216199e-01 
5.4183490000000001e-01,	 4.1258220000000001e-01,	 3.4306558746427560e-02,	 4.1966341013534122e+02,	 2.7572812876852896e+02,	 6.7123648205730115e+02,	 6.6249506376070021e+03,	 4.9717322266039918e+02,	 1.0099876289188356e+00 
5.4846560000000000e-01,	 4.1504780000000002e-01,	 3.3719224558959655e-02,	 4.2878115545452283e+02,	 2.7750732210018111e+02,	 6.6688647131823495e+02,	 6.4693317622125760e+03,	 4.9555961536642599e+02,	 1.0306491009399650e+00 
5.5518559999999995e-01,	 4.1721429999999998e-01,	 3.3073164821051618e-02,	 4.3892576164624575e+02,	 2.7909757634968463e+02,	 6.6205560718142647e+02,	 6.2994141374905730e+03,	 4.9376145893676608e+02,	 1.0534346759814786e+00 
5.6200139999999998e-01,	 4.1866510000000001e-01,	 3.2344122755004603e-02,	 4.5038004018873187e+02,	 2.8055059556847505e+02,	 6.5656944354101665e+02,	 6.1095043878597344e+03,	 4.9171141111540408e+02,	 1.0791159435095536e+00 
5.6894590000000000e-01,	 4.1879769999999999e-01,	 2.9638986157987168e-02,	 4.9617186596929287e+02,	 2.8146190153570700e+02,	 6.3370158895293741e+02,	 5.4035363516457974e+03,	 4.8307254072246110e+02,	 1.1808678783136941e+00 
5.7631239999999995e-01,	 4.2179820000000001e-01,	 2.8808284824909811e-02,	 5.1046362492037861e+02,	 2.8147415406065818e+02,	 6.2708438419103936e+02,	 5.1972466225367034e+03,	 4.8054376484199929e+02,	 1.2130515566164088e+00 
5.8376119999999998e-01,	 4.2461579999999999e-01,	 3.0476664689548998e-02,	 4.8220928602925801e+02,	 2.7990924703780445e+02,	 6.4181046834846768e+02,	 5.6273531526913885e+03,	 4.8615342727650329e+02,	 1.1468841078916940e+00 
5.9126959999999995e-01,	 4.2729129999999999e-01,	 3.0192383895138144e-02,	 4.8766329398759916e+02,	 2.7794119640891148e+02,	 6.3946849492591832e+02,	 5.5545194910081636e+03,	 4.8526562704999935e+02,	 1.1567028057174209e+00 
5.9883480000000000e-01,	 4.2982150000000002e-01,	 2.9571990481263067e-02,	 4.9859219784344975e+02,	 2.7735620729519729e+02,	 6.3441911320632767e+02,	 5.3974267080941181e+03,	 4.8334594875035663e+02,	 1.1804053961335288e+00 
6.0645230000000006e-01,	 4.3220799999999998e-01,	 2.9100867488445419e-02,	 5.0699357710719869e+02,	 2.7607359706806983e+02,	 6.3061162710974475e+02,	 5.2795614217890288e+03,	 4.8189335813460946e+02,	 1.1979538287851861e+00 
6.1411839999999995e-01,	 4.3445099999999998e-01,	 2.8601094637115573e-02,	 5.1587780666315541e+02,	 2.7461350377546319e+02,	 6.2649322306314423e+02,	 5.1550035649884594e+03,	 4.8031720380490475e+02,	 1.2167300286717764e+00 
6.2182859999999995e-01,	 4.3655319999999997e-01,	 2.8093955757106111e-02,	 5.2490980608153723e+02,	 2.7291817825726127e+02,	 6.2225404617652794e+02,	 5.0293349570933669e+03,	 4.7868940830253553e+02,	 1.2359169391607117e+00 
6.2957810000000003e-01,	 4.3852039999999998e-01,	 2.7581242164342941e-02,	 5.3412023008676078e+02,	 2.7096817234979011e+02,	 6.1793019743233833e+02,	 4.9032403018335999e+03,	 4.7702337758651930e+02,	 1.2555412085913291e+00 
6.3736260000000000e-01,	 4.4035690000000000e-01,	 2.7065803886674129e-02,	 5.4344659651305460e+02,	 2.6876212208449169e+02,	 6.1354152900213160e+02,	 4.7774355009172295e+03,	 4.7532639966053711e+02,	 1.2754883242593700e+00 
6.4517780000000002e-01,	 4.4206899999999999e-01,	 2.6547970926575730e-02,	 5.5284331382440917e+02,	 2.6630796738167203e+02,	 6.0909328402751044e+02,	 4.6520575827776202e+03,	 4.7360018026375002e+02,	 1.2956948504079500e+00 
6.5301790000000004e-01,	 4.4367150000000000e-01,	 2.6029038128555615e-02,	 5.6227307792131160e+02,	 2.6352634246199557e+02,	 6.0460728718499149e+02,	 4.5275310183503689e+03,	 4.7185291484030301e+02,	 1.3160132561555660e+00 
6.6087899999999999e-01,	 4.4517370000000001e-01,	 2.5512509107722924e-02,	 5.7170894675334614e+02,	 2.6042590643496487e+02,	 6.0009112484126183e+02,	 4.4045375209873209e+03,	 4.7008734014835966e+02,	 1.3364109575329870e+00 
6.6875799999999996e-01,	 4.4658460000000000e-01,	 2.4999686168267442e-02,	 5.8115216484285133e+02,	 2.5705655650014569e+02,	 5.9554558704284182e+02,	 4.2833099807966955e+03,	 4.6830355972594054e+02,	 1.3569512796894332e+00 
6.7665260000000005e-01,	 4.4790839999999998e-01,	 2.4492043745392177e-02,	 5.9056506290179470e+02,	 2.5342216742716221e+02,	 5.9098166055395325e+02,	 4.1641749560246863e+03,	 4.6650570108559589e+02,	 1.3775670735102925e+00 
6.8455969999999999e-01,	 4.4915780000000000e-01,	 2.3990750041627519e-02,	 5.9992306545237420e+02,	 2.4954663652998630e+02,	 5.8640853421301279e+02,	 4.0473805979222075e+03,	 4.6469724166971412e+02,	 1.3982323780937624e+00 
6.9247740000000002e-01,	 4.5033899999999999e-01,	 2.3496684763117046e-02,	 6.0919747626364665e+02,	 2.4543863288634017e+02,	 5.8183453315063821e+02,	 3.9331093570737630e+03,	 4.6288136878844296e+02,	 1.4188976984032484e+00 
7.0040440000000004e-01,	 4.5145649999999998e-01,	 2.3010350640377323e-02,	 6.1837876325317450e+02,	 2.4111922875570585e+02,	 5.7726538638671173e+02,	 3.8214544866668825e+03,	 4.6106028273010429e+02,	 1.4395621371093155e+00 
7.0833950000000001e-01,	 4.5251370000000002e-01,	 2.2532369031013667e-02,	 6.2744553466991817e+02,	 2.3659149164769917e+02,	 5.7270850091497823e+02,	 3.7125338525425527e+03,	 4.5923689120333222e+02,	 1.4601820909068584e+00 
7.1628199999999997e-01,	 4.5351290000000000e-01,	 2.2063171318560389e-02,	 6.3639089052419456e+02,	 2.3187517641241368e+02,	 5.6817009273368785e+02,	 3.6064195146593152e+03,	 4.5741366878419529e+02,	 1.4807555853537628e+00 
7.2423070000000001e-01,	 4.5445920000000001e-01,	 2.1603417012377536e-02,	 6.4519254094833036e+02,	 2.2697341707145574e+02,	 5.6365857360502798e+02,	 3.5032288093929687e+03,	 4.5559401704568279e+02,	 1.5012313172098437e+00 
7.3218499999999997e-01,	 4.5535340000000002e-01,	 2.1153386845911969e-02,	 6.5384690565045253e+02,	 2.2190702583427480e+02,	 5.5917946646147493e+02,	 3.4029930689046987e+03,	 4.5378021990855842e+02,	 1.5216110833789946e+00 
7.4014460000000004e-01,	 4.5619559999999998e-01,	 2.0713505256225291e-02,	 6.6233543886681525e+02,	 2.1667693890149110e+02,	 5.5473967655649244e+02,	 3.3057709986626519e+03,	 4.5197516090028779e+02,	 1.5418473320831620e+00 
7.4810900000000002e-01,	 4.5698529999999998e-01,	 2.0283772772651580e-02,	 6.7065993550542930e+02,	 2.1130362921472368e+02,	 5.5034215024601735e+02,	 3.2115260607655132e+03,	 4.5018015019325730e+02,	 1.5619524552660109e+00 
7.5607809999999998e-01,	 4.5771950000000000e-01,	 1.9861163529097885e-02,	 6.7886987410638562e+02,	 2.0578529139005877e+02,	 5.4595417339400433e+02,	 3.1195418401766792e+03,	 4.4838187491269190e+02,	 1.5820762075784502e+00 
7.6424859999999994e-01,	 4.5851660000000000e-01,	 1.9444249378991741e-02,	 6.8702233830988780e+02,	 2.0015810775202880e+02,	 5.4155775796964599e+02,	 3.0294647357239919e+03,	 4.4657287914575937e+02,	 1.6023941007276288e+00 
7.7236760000000004e-01,	 4.5924910000000002e-01,	 1.9117663911009330e-02,	 6.9317647545035186e+02,	 1.9505772539723182e+02,	 5.3808555113507339e+02,	 2.9594846399179478e+03,	 4.4513897224109917e+02,	 1.6176925718909467e+00 
4.1826120000000000e-01,	 3.7138990000000000e-01,	 4.0609964829622071e-02,	 3.4554477170937707e+02,	 2.3092372505432382e+02,	 7.1154818782350605e+02,	 8.3131739446252104e+03,	 5.1188465655565000e+02,	 8.1191010706939271e-01 
4.2419770000000001e-01,	 3.7324049999999998e-01,	 4.0480647426602942e-02,	 3.4601695385523942e+02,	 2.3255053504377645e+02,	 7.1084777419165152e+02,	 8.2785446434210608e+03,	 5.1163265727357725e+02,	 8.1484682663226105e-01 
4.3011579999999999e-01,	 3.7514439999999999e-01,	 4.0307028245286376e-02,	 3.4690435000039128e+02,	 2.3449321111901148e+02,	 7.0997611050163732e+02,	 8.2329305684001683e+03,	 5.1131887109732014e+02,	 8.1890951291688385e-01 
4.3601940000000000e-01,	 3.7710179999999999e-01,	 4.0123494892964441e-02,	 3.4799968006952014e+02,	 2.3650099681758567e+02,	 7.0901437895142885e+02,	 8.1843413564101666e+03,	 5.1097243821919750e+02,	 8.2344373771436707e-01 
4.4191170000000002e-01,	 3.7911270000000002e-01,	 3.9927764664456376e-02,	 3.4934279236466131e+02,	 2.3858822249063888e+02,	 7.0795740197580801e+02,	 8.1322750967033862e+03,	 5.1059142511526414e+02,	 8.2853374924660961e-01 
4.4801700000000000e-01,	 3.8125460000000000e-01,	 3.9713759663386507e-02,	 3.5100847247574211e+02,	 2.4079455687198583e+02,	 7.0676004292958612e+02,	 8.0750074032653511e+03,	 5.1015946411328736e+02,	 8.3437239273441710e-01 
4.5411879999999999e-01,	 3.8345259999999998e-01,	 3.9482785195290922e-02,	 3.5301754900835556e+02,	 2.4305937487946625e+02,	 7.0543674624412677e+02,	 8.0130120697117500e+03,	 5.0968164378952793e+02,	 8.4092003249808978e-01 
4.6022160000000001e-01,	 3.8570680000000002e-01,	 3.9235676042158642e-02,	 3.5536749030406548e+02,	 2.4537895473708704e+02,	 7.0398605437851097e+02,	 7.9464862007200636e+03,	 5.0915730795131418e+02,	 8.4817176122358817e-01 
4.6632849999999998e-01,	 3.8801459999999999e-01,	 3.8971508004662925e-02,	 3.5807101639432176e+02,	 2.4775045730290304e+02,	 7.0239977306964204e+02,	 7.8751985348374692e+03,	 5.0858334614836195e+02,	 8.5615316717926848e-01 
4.7244370000000002e-01,	 3.9037440000000001e-01,	 3.8689637114758688e-02,	 3.6113651682098708e+02,	 2.5016959018928981e+02,	 7.0067106395461042e+02,	 7.7989974138420830e+03,	 5.0795711140122398e+02,	 8.6488142266027768e-01 
4.7857110000000003e-01,	 3.9278390000000002e-01,	 3.8389586837493536e-02,	 3.6456982097960184e+02,	 2.5262857412089915e+02,	 6.9879369337896253e+02,	 7.7177792502623861e+03,	 5.0727614752013062e+02,	 8.7436637691295960e-01 
4.8471599999999998e-01,	 3.9524250000000000e-01,	 3.8071117515422928e-02,	 3.6837573322662081e+02,	 2.5511595088778361e+02,	 6.9676277172919026e+02,	 7.6315104033784137e+03,	 5.0653845643787918e+02,	 8.8461240487409221e-01 
4.9088300000000001e-01,	 3.9774680000000001e-01,	 3.7734043023567108e-02,	 3.7255959771003040e+02,	 2.5761438775365411e+02,	 6.9457384530410650e+02,	 7.5401798235491060e+03,	 5.0574216848230265e+02,	 8.9561909800648665e-01 
4.9707770000000001e-01,	 4.0029530000000002e-01,	 3.7378350604161920e-02,	 3.7712859878676420e+02,	 2.6010217074861851e+02,	 6.9222370326330190e+02,	 7.4438315586503768e+03,	 5.0488583546260941e+02,	 9.0738465336489404e-01 
5.0330620000000004e-01,	 4.0288489999999999e-01,	 3.7003817871837229e-02,	 3.8209301730660786e+02,	 2.6255388125052616e+02,	 6.8970796920346777e+02,	 7.3424621472336739e+03,	 5.0396755238736029e+02,	 9.1991045387391623e-01 
5.0957439999999998e-01,	 4.0551199999999998e-01,	 3.6610043683807811e-02,	 3.8746585737622030e+02,	 2.6494471766327933e+02,	 6.8702092803206779e+02,	 7.2360265436940317e+03,	 5.0298488788207891e+02,	 9.3320582162367238e-01 
5.1589130000000005e-01,	 4.0816599999999997e-01,	 3.6195104880586568e-02,	 3.9331626090416233e+02,	 2.6730554893711212e+02,	 6.8413813621176621e+02,	 7.1239945251796844e+03,	 5.0192849721101913e+02,	 9.4745017964683753e-01 
5.2226340000000004e-01,	 4.1083029999999998e-01,	 3.5756125687641770e-02,	 3.9968430341153106e+02,	 2.6960732791858470e+02,	 6.8104003851075913e+02,	 7.0057242246420901e+03,	 5.0079072407216069e+02,	 9.6270914418456977e-01 
5.2869889999999997e-01,	 4.1348099999999999e-01,	 3.5289113866504795e-02,	 4.0658229864407969e+02,	 2.7177190054501875e+02,	 6.7770631837212181e+02,	 6.8803768382962398e+03,	 4.9956352441641462e+02,	 9.7895300163114718e-01 
5.3520179999999995e-01,	 4.1608000000000001e-01,	 3.4791538416912370e-02,	 4.1404091651546827e+02,	 2.7375480318193536e+02,	 6.7411923181450334e+02,	 6.7474595165008677e+03,	 4.9823968024047173e+02,	 9.9622396729861395e-01 
5.4178289999999996e-01,	 4.1862899999999997e-01,	 3.4258392010162828e-02,	 4.2218221913702052e+02,	 2.7555675930271127e+02,	 6.7022148810922283e+02,	 6.6056454503949653e+03,	 4.9679718624463413e+02,	 1.0148046882383093e+00 
5.4843869999999995e-01,	 4.2104690000000000e-01,	 3.3681314707992127e-02,	 4.3113750348227273e+02,	 2.7718900012927850e+02,	 6.6594935228165514e+02,	 6.4529778386604066e+03,	 4.9521130899874731e+02,	 1.0350241102718010e+00 
5.5518160000000005e-01,	 4.2316720000000002e-01,	 3.3047617801968146e-02,	 4.4107211845872393e+02,	 2.7862177871887241e+02,	 6.6120951678885035e+02,	 6.2865039470456622e+03,	 4.9344585071494538e+02,	 1.0572662828721335e+00 
5.6201619999999997e-01,	 4.2457509999999998e-01,	 3.2334500807070371e-02,	 4.5225457283703548e+02,	 2.7995666496004498e+02,	 6.5583747066625301e+02,	 6.1008777697331943e+03,	 4.9143724378383178e+02,	 1.0823208660108101e+00 
5.6897169999999997e-01,	 4.2466870000000001e-01,	 2.9646082630135219e-02,	 4.9760772120248316e+02,	 2.8048911816957673e+02,	 6.3320523879052269e+02,	 5.4005967599906235e+03,	 4.8288331908603129e+02,	 1.1829273542219652e+00 
5.7633970000000001e-01,	 4.2764669999999999e-01,	 2.8848113985447975e-02,	 5.1129332870669464e+02,	 2.8044364289381070e+02,	 6.2690562542017028e+02,	 5.2029485310876098e+03,	 4.8047526725409375e+02,	 1.2137040677716091e+00 
5.8378920000000001e-01,	 4.3044379999999999e-01,	 3.0569443595686144e-02,	 4.8218653942666606e+02,	 2.7912770573670360e+02,	 6.4206184525602521e+02,	 5.6466950479256484e+03,	 4.8624862343431533e+02,	 1.1458130353267273e+00 
5.9129770000000004e-01,	 4.3310009999999999e-01,	 3.0261004328259306e-02,	 4.8795899354325570e+02,	 2.7728153209045172e+02,	 6.3954487670418098e+02,	 5.5678086241160354e+03,	 4.8529460763704674e+02,	 1.1564909725885473e+00 
5.9886240000000002e-01,	 4.3561250000000001e-01,	 2.9622670066426309e-02,	 4.9906411914004855e+02,	 2.7680374081794548e+02,	 6.3434395700647008e+02,	 5.4060361554267984e+03,	 4.8331731821268721e+02,	 1.1807738469151876e+00 
6.0647890000000004e-01,	 4.3798270000000000e-01,	 2.9166648672802564e-02,	 5.0715008501154671e+02,	 2.7562915082351600e+02,	 6.3062314713935734e+02,	 5.2915922948872321e+03,	 4.8189775973471006e+02,	 1.1977874436814502e+00 
6.1414349999999995e-01,	 4.4021070000000001e-01,	 2.8672800766344243e-02,	 5.1590670982167433e+02,	 2.7428721480378260e+02,	 6.2656603712922038e+02,	 5.1685283744825547e+03,	 4.8034511538573241e+02,	 1.2163934152198657e+00 
6.2185179999999995e-01,	 4.4229960000000001e-01,	 2.8173392901301948e-02,	 5.2479424914375363e+02,	 2.7270386895306478e+02,	 6.2241824729317329e+02,	 5.0448865666969759e+03,	 4.7875256269356260e+02,	 1.2353332831170494e+00 
6.2959900000000002e-01,	 4.4425460000000000e-01,	 2.7669912350263993e-02,	 5.3377319807002334e+02,	 2.7084333826624169e+02,	 6.1819519231466802e+02,	 4.9211130748423320e+03,	 4.7712565063036237e+02,	 1.2545050700267477e+00 
6.3738090000000003e-01,	 4.4608029999999999e-01,	 2.7163325689441759e-02,	 5.4285332339778040e+02,	 2.6872008607471525e+02,	 6.1390733326305053e+02,	 4.7975079104225533e+03,	 4.7546807752974593e+02,	 1.2739506924927673e+00 
6.4519309999999996e-01,	 4.4778289999999998e-01,	 2.6655068113903724e-02,	 5.5203039020484312e+02,	 2.6633796230797333e+02,	 6.0955826475459594e+02,	 4.6743901504523974e+03,	 4.7378091854313078e+02,	 1.2936824687649329e+00 
6.5302990000000005e-01,	 4.4937700000000003e-01,	 2.6146141778984909e-02,	 5.6126987170601910e+02,	 2.6365585583061028e+02,	 6.0515692098513250e+02,	 4.5520345934526104e+03,	 4.7206734113122349e+02,	 1.3136081474516301e+00 
6.6088760000000002e-01,	 4.5087179999999999e-01,	 2.5638539398725776e-02,	 5.7052602017245817e+02,	 2.6069242858878499e+02,	 6.0071904153078503e+02,	 4.4309272148221698e+03,	 4.7033321823162402e+02,	 1.3336593285640281e+00 
6.6876290000000005e-01,	 4.5227630000000002e-01,	 2.5133765541824393e-02,	 5.7978100546710277e+02,	 2.5746408384315237e+02,	 5.9625809648476400e+02,	 4.3114344368214388e+03,	 4.6858361466562701e+02,	 1.3538174564764549e+00 
6.7665370000000002e-01,	 4.5359470000000002e-01,	 2.4633154213904364e-02,	 5.8901042976992812e+02,	 2.5398415267643588e+02,	 5.9178079065080669e+02,	 4.1938300473535646e+03,	 4.6682100089161656e+02,	 1.3740531201906383e+00 
6.8455690000000002e-01,	 4.5483920000000000e-01,	 2.4137993196777480e-02,	 5.9819370618031917e+02,	 2.5027313643443296e+02,	 5.8729280963987162e+02,	 4.0783620949296455e+03,	 4.6504748005516313e+02,	 1.3943487997369344e+00 
6.9247049999999999e-01,	 4.5601639999999999e-01,	 2.3649382352343467e-02,	 6.0730492666804275e+02,	 2.4634036606460697e+02,	 5.8280184132276440e+02,	 3.9652507460351317e+03,	 4.6326598242217312e+02,	 1.4146617586323535e+00 
7.0039330000000000e-01,	 4.5713060000000000e-01,	 2.3168043616659348e-02,	 6.1633114961687784e+02,	 2.4219991298575968e+02,	 5.7831390260995727e+02,	 3.8546320884049123e+03,	 4.6147881628301354e+02,	 1.4349783577626776e+00 
7.0832430000000002e-01,	 4.5818500000000001e-01,	 2.2694677822689684e-02,	 6.2525326474674864e+02,	 2.3785694040891502e+02,	 5.7383625854924912e+02,	 3.7466398278637712e+03,	 4.5968882547559610e+02,	 1.4552616958037554e+00 
7.1626239999999997e-01,	 4.5918219999999998e-01,	 2.2229779937359070e-02,	 6.3406226172265633e+02,	 2.3332523464847597e+02,	 5.6937487599945416e+02,	 3.6413581841713326e+03,	 4.5789837619106424e+02,	 1.4755016132179064e+00 
7.2420669999999998e-01,	 4.6012690000000001e-01,	 2.1773984596658694e-02,	 6.4273947239711958e+02,	 2.2861125489114517e+02,	 5.6493768805064326e+02,	 3.5389008664769231e+03,	 4.5611066548927641e+02,	 1.4956579825769565e+00 
7.3215649999999999e-01,	 4.6102019999999999e-01,	 2.1327596305839837e-02,	 6.5127865272866893e+02,	 2.2373025465927037e+02,	 5.6053002346522624e+02,	 3.4393052979250315e+03,	 4.5432788527119061e+02,	 1.5157240178455393e+00 
7.4011159999999998e-01,	 4.6186189999999999e-01,	 2.0890923196701220e-02,	 6.5966559702135021e+02,	 2.1868940477508352e+02,	 5.5615782177693131e+02,	 3.3426093172236506e+03,	 4.5255251034894059e+02,	 1.5356678203809726e+00 
7.4807150000000000e-01,	 4.6265180000000000e-01,	 2.0463814591696036e-02,	 6.6790084095558848e+02,	 2.1351081486021064e+02,	 5.5182222840836846e+02,	 3.2487457207383609e+03,	 4.5078509606750288e+02,	 1.5555035856500772e+00 
7.5603589999999998e-01,	 4.6338679999999999e-01,	 2.0043019581465000e-02,	 6.7604457531241201e+02,	 2.0820063204602096e+02,	 5.4749128369802349e+02,	 3.1569688568392367e+03,	 4.4901263112211984e+02,	 1.5754080112164970e+00 
7.6420489999999996e-01,	 4.6418599999999999e-01,	 1.9627256152012960e-02,	 6.8412781076851365e+02,	 2.0279672591451271e+02,	 5.4314363657340937e+02,	 3.0669325417340774e+03,	 4.4722626527756097e+02,	 1.5955070124961310e+00 
7.7232270000000003e-01,	 4.6492060000000002e-01,	 1.9302622887527869e-02,	 6.9021344872814518e+02,	 1.9785570770158083e+02,	 5.3971686683144344e+02,	 2.9971760531235241e+03,	 4.4581322622041625e+02,	 1.6105672386111110e+00 
4.1767759999999998e-01,	 3.7824459999999999e-01,	 4.0541430228938372e-02,	 3.5021203240058139e+02,	 2.3325006456795688e+02,	 7.0922657028347680e+02,	 8.2720661886991766e+03,	 5.1104889351725291e+02,	 8.2336138101495249e-01 
4.2363550000000000e-01,	 3.8006469999999998e-01,	 4.0405824653117886e-02,	 3.5070720918786498e+02,	 2.3489154717244853e+02,	 7.0864502290874714e+02,	 8.2376370595041863e+03,	 5.1083932713626501e+02,	 8.2628993115638039e-01 
4.2957580000000001e-01,	 3.8193709999999997e-01,	 4.0225865235634255e-02,	 3.5165971695604463e+02,	 2.3682931992301917e+02,	 7.0787800157525112e+02,	 8.1920717598109713e+03,	 5.1056279182437601e+02,	 8.3040227332391503e-01 
4.3550250000000001e-01,	 3.8386209999999998e-01,	 4.0037924364463733e-02,	 3.5279531573872407e+02,	 2.3878898577445645e+02,	 7.0699802750833112e+02,	 8.1436611430489356e+03,	 5.1024534889667842e+02,	 8.3491251635144681e-01 
4.4141880000000000e-01,	 3.8583950000000000e-01,	 3.9839740142891197e-02,	 3.5414715771834153e+02,	 2.4078606175420674e+02,	 7.0600559381448841e+02,	 8.0919758240009151e+03,	 5.0988710001321482e+02,	 8.3989198158101208e-01 
4.4755210000000001e-01,	 3.8794659999999997e-01,	 3.9624476245574781e-02,	 3.5579684455386354e+02,	 2.4286893129783982e+02,	 7.0485800207818852e+02,	 8.0351706888896624e+03,	 5.0947252808633937e+02,	 8.4555325844650842e-01 
4.5368249999999999e-01,	 3.9010869999999997e-01,	 3.9392929011043354e-02,	 3.5777385671842615e+02,	 2.4499262082091332e+02,	 7.0356977087566781e+02,	 7.9736172070798302e+03,	 5.0900674734793614e+02,	 8.5188808973809949e-01 
4.5981460000000002e-01,	 3.9232600000000001e-01,	 3.9145492190518341e-02,	 3.6008093374941632e+02,	 2.4716479757631862e+02,	 7.0214244950747218e+02,	 7.9074585754184736e+03,	 5.0849017807543714e+02,	 8.5891115488348435e-01 
4.6595130000000001e-01,	 3.9459590000000000e-01,	 3.8881081260862371e-02,	 3.6273272323076731e+02,	 2.4938971519227775e+02,	 7.0057183459346959e+02,	 7.8364784668143866e+03,	 5.0792114156677570e+02,	 8.6665703999661736e-01 
4.7209669999999998e-01,	 3.9691680000000001e-01,	 3.8599043718870914e-02,	 3.6573744956052712e+02,	 2.5166646986902970e+02,	 6.9885491736832728e+02,	 7.7605679898827784e+03,	 5.0729836923558031e+02,	 8.7514442235057288e-01 
4.7825469999999998e-01,	 3.9928649999999999e-01,	 3.8299084331553788e-02,	 3.6909874479933961e+02,	 2.5398783864237836e+02,	 6.9698986975688092e+02,	 7.6797095349055317e+03,	 5.0662099852915048e+02,	 8.8437769730157090e-01 
4.8443019999999998e-01,	 4.0170420000000001e-01,	 3.7981208652738227e-02,	 3.7281889796664558e+02,	 2.5633993867999834e+02,	 6.9497553718637630e+02,	 7.5939587942365215e+03,	 5.0588838991090853e+02,	 8.9435214435778609e-01 
4.9062790000000001e-01,	 4.0416669999999999e-01,	 3.7645574423592752e-02,	 3.7690067766639976e+02,	 2.5870171614920235e+02,	 6.9281140853764396e+02,	 7.5034137775080344e+03,	 5.0510011670817613e+02,	 9.0505634966422921e-01 
4.9685319999999999e-01,	 4.0667239999999999e-01,	 3.7292362516945815e-02,	 3.8135065871523824e+02,	 2.6104808759928255e+02,	 6.9049622779259823e+02,	 7.4081735024067693e+03,	 5.0425545924752493e+02,	 9.1648216559814655e-01 
5.0311189999999995e-01,	 4.0921829999999998e-01,	 3.6921457249284813e-02,	 3.8618100569784798e+02,	 2.6335270656789612e+02,	 6.8802651935327071e+02,	 7.3082593240790802e+03,	 5.0335286232726565e+02,	 9.2863201997871303e-01 
5.0940989999999997e-01,	 4.1180080000000002e-01,	 3.6532206686515793e-02,	 3.9141106740948055e+02,	 2.6559161157239731e+02,	 6.8539512753798624e+02,	 7.2035546656327324e+03,	 5.0238939114244425e+02,	 9.4152713234327812e-01 
5.1575599999999999e-01,	 4.1440939999999998e-01,	 3.6122935181656060e-02,	 3.9707047438777943e+02,	 2.6774555678676143e+02,	 6.8258709486855014e+02,	 7.0936710025421171e+03,	 5.0135920165484788e+02,	 9.5521885454273914e-01 
5.2215670000000003e-01,	 4.1702750000000000e-01,	 3.5690557595475333e-02,	 4.0325307826255818e+02,	 2.6986008254433455e+02,	 6.7956575946382725e+02,	 6.9777396127218553e+03,	 5.0024838792184210e+02,	 9.6995621372776952e-01 
5.2862019999999998e-01,	 4.1963170000000000e-01,	 3.5229765462570159e-02,	 4.1001632586676271e+02,	 2.7190441244179527e+02,	 6.7630091309108843e+02,	 6.8545612767140710e+03,	 4.9904526631056126e+02,	 9.8584462641731685e-01 
5.3515000000000001e-01,	 4.2218400000000000e-01,	 3.4738128130298265e-02,	 4.1733556956242433e+02,	 2.7375504531365806e+02,	 6.7278970813480078e+02,	 6.7238139750579076e+03,	 4.9774811409203329e+02,	 1.0027361154056702e+00 
5.4175720000000005e-01,	 4.2468660000000003e-01,	 3.4212610481009854e-02,	 4.2530385520787200e+02,	 2.7541497629604271e+02,	 6.6897720149677787e+02,	 6.5845707395683767e+03,	 4.9633581245038607e+02,	 1.0208652748951759e+00 
5.4843779999999998e-01,	 4.2705890000000002e-01,	 3.3645316957695501e-02,	 4.3405620015286422e+02,	 2.7689696224082132e+02,	 6.6480430217027958e+02,	 6.4349975023263851e+03,	 4.9478538642758264e+02,	 1.0405643045132029e+00 
5.5520340000000001e-01,	 4.2913540000000000e-01,	 3.3023398959342871e-02,	 4.4374100435127849e+02,	 2.7818050017138103e+02,	 6.6018916946666411e+02,	 6.2722029755854455e+03,	 4.9306497254496730e+02,	 1.0621875526363642e+00 
5.6205680000000002e-01,	 4.3050280000000002e-01,	 3.2326206043785562e-02,	 4.5458135499788773e+02,	 2.7943243184904213e+02,	 6.5499222196004723e+02,	 6.0914518685274379e+03,	 4.9112045750839457e+02,	 1.0864908331829093e+00 
5.6902339999999996e-01,	 4.3056040000000001e-01,	 2.9661415572512041e-02,	 4.9940269269494604e+02,	 2.7952388423851028e+02,	 6.3263676066259268e+02,	 5.3985388985385007e+03,	 4.8266650925243840e+02,	 1.1857217512767950e+00 
5.7639220000000002e-01,	 4.3351560000000000e-01,	 2.8898601959083753e-02,	 5.1248675385228671e+02,	 2.7943322268167549e+02,	 6.2660615439550509e+02,	 5.2095645882421859e+03,	 4.8036049271495017e+02,	 1.2151645744811268e+00 
5.8384179999999997e-01,	 4.3629160000000000e-01,	 3.0681933374902555e-02,	 4.8229750928679340e+02,	 2.7835984583471128e+02,	 6.4229476553058930e+02,	 5.6695298043458442e+03,	 4.8633681345372156e+02,	 1.1450126924032131e+00 
5.9134960000000003e-01,	 4.3892819999999999e-01,	 3.0338147312989717e-02,	 4.8858228218317407e+02,	 2.7665298747782833e+02,	 6.3947756028257186e+02,	 5.5814148387432078e+03,	 4.8526906669591239e+02,	 1.1570299744232260e+00 
5.9891320000000003e-01,	 4.4142250000000000e-01,	 2.9682880344281584e-02,	 4.9987116349714211e+02,	 2.7632259262312050e+02,	 6.3415482711368929e+02,	 5.4154092377084598e+03,	 4.8324526222000213e+02,	 1.1819286267088884e+00 
6.0652799999999996e-01,	 4.4377590000000000e-01,	 2.9244764176649882e-02,	 5.0758269535922165e+02,	 2.7522447182335213e+02,	 6.3058181389760557e+02,	 5.3054167303939121e+03,	 4.8188196684549871e+02,	 1.1982150361411277e+00 
6.1419040000000003e-01,	 4.4598870000000002e-01,	 2.8758975802092204e-02,	 5.1611716234138987e+02,	 2.7395524430636340e+02,	 6.2660416047121373e+02,	 5.1843776178809994e+03,	 4.8035972843645544e+02,	 1.2164191022264672e+00 