TITLE = "Final State"
VARIABLES = "X", "Y", "rho", "u", "v", "T", "p", "c", "M"
ZONE I=48, J=46, DATAPACKING=POINT
2.6489710000000000e+00,	 7.4012639999999996e-01,	 2.4824045942677519e-02,	 7.3633710828838059e+02,	 -1.6972277297065311e+01,	 5.3882600360837307e+02,	 3.8481416524821661e+03,	 4.4544514190054360e+02,	 1.6534756250595040e+00 
2.6564399999999999e+00,	 7.4012739999999999e-01,	 2.4802485989407628e-02,	 7.3690895127567228e+02,	 -1.7448431831739128e+01,	 5.3853308406744077e+02,	 3.8427093687547554e+03,	 4.4532404777792283e+02,	 1.6552339736183106e+00 
2.6639089999999999e+00,	 7.4012840000000002e-01,	 2.4775095700513880e-02,	 7.3763759460722770e+02,	 -1.7909013419223477e+01,	 5.3816932011309325e+02,	 3.8358729491428057e+03,	 4.4517362043555210e+02,	 1.6574543820355034e+00 
2.6713770000000001e+00,	 7.4012940000000005e-01,	 2.4746172957180304e-02,	 7.3840831025420266e+02,	 -1.8305051452768552e+01,	 5.3779369559445490e+02,	 3.8287207172697431e+03,	 4.4501823503079748e+02,	 1.6597862902088758e+00 
2.6788460000000001e+00,	 7.4013039999999997e-01,	 2.4714300179578257e-02,	 7.3921748088700588e+02,	 -1.8645666994363459e+01,	 5.3740983909153351e+02,	 3.8210600962239810e+03,	 4.4485938821140451e+02,	 1.6622164615818200e+00 
2.6863150000000000e+00,	 7.4013139999999999e-01,	 2.4679110533090222e-02,	 7.4004686462940390e+02,	 -1.8925077120341008e+01,	 5.3701949713648173e+02,	 3.8128480155542561e+03,	 4.4469779940723890e+02,	 1.6647008592305363e+00 
2.6937840000000000e+00,	 7.4013240000000002e-01,	 2.4641328507425342e-02,	 7.4087232238860361e+02,	 -1.9128973428958187e+01,	 5.3662865806326556e+02,	 3.8042400906218472e+03,	 4.4453594596263338e+02,	 1.6671750361369690e+00 
2.7012520000000002e+00,	 7.4013340000000005e-01,	 2.4600869330419235e-02,	 7.4169477073933956e+02,	 -1.9267156023215044e+01,	 5.3623848207699064e+02,	 3.7952323455068981e+03,	 4.4437430831260974e+02,	 1.6696396890473504e+00 
2.7087210000000002e+00,	 7.4013439999999997e-01,	 2.4556148103154180e-02,	 7.4253562767066842e+02,	 -1.9380404256680627e+01,	 5.3583324321692282e+02,	 3.7854702319309085e+03,	 4.4420636832088906e+02,	 1.6721698624522949e+00 
2.7161900000000001e+00,	 7.4013540000000000e-01,	 2.4506432526919378e-02,	 7.4340757818437396e+02,	 -1.9494569264492281e+01,	 5.3539846647701029e+02,	 3.7747409687780732e+03,	 4.4402611654320981e+02,	 1.6748184670158850e+00 
2.7236590000000001e+00,	 7.4013649999999997e-01,	 2.4453648010893125e-02,	 7.4429958810488324e+02,	 -1.9593996713814050e+01,	 5.3494258250831967e+02,	 3.7634033232883708e+03,	 4.4383703541056167e+02,	 1.6775469239737137e+00 
2.7311269999999999e+00,	 7.4013750000000000e-01,	 2.4401241351493859e-02,	 7.4518287359615420e+02,	 -1.9626728792493836e+01,	 5.3449233239402452e+02,	 3.7521771761508476e+03,	 4.4365021186166729e+02,	 1.6802455506504057e+00 
2.7385959999999998e+00,	 7.4013850000000003e-01,	 2.4351848311088990e-02,	 7.4604165106025425e+02,	 -1.9597262288622456e+01,	 5.3407537136025917e+02,	 3.7416608383768671e+03,	 4.4347713085487607e+02,	 1.6828353670293421e+00 
2.7460650000000002e+00,	 7.4013949999999995e-01,	 2.4306140099152999e-02,	 7.4686787786340824e+02,	 -1.9497783440024239e+01,	 5.3370757730865375e+02,	 3.7320658932317201e+03,	 4.4332440302793452e+02,	 1.6852723076831471e+00 
2.7535340000000001e+00,	 7.4014060000000004e-01,	 2.4262852244530383e-02,	 7.4764901986085704e+02,	 -1.9368760856075681e+01,	 5.3338663422556101e+02,	 3.7231790287512899e+03,	 4.4319108723537676e+02,	 1.6875336283207569e+00 
2.7610020000000000e+00,	 7.4014159999999996e-01,	 2.4220164979889925e-02,	 7.4836682127262407e+02,	 -1.9240418726110036e+01,	 5.3309699440337795e+02,	 3.7146103848264711e+03,	 4.4307073999520861e+02,	 1.6896040456637307e+00 
2.7684709999999999e+00,	 7.4014270000000004e-01,	 2.4177183437172955e-02,	 7.4900173118921020e+02,	 -1.9132252265143389e+01,	 5.3282329477937890e+02,	 3.7061146203886096e+03,	 4.4295698596411171e+02,	 1.6914645643787791e+00 
2.7759399999999999e+00,	 7.4014369999999996e-01,	 2.4134093258034117e-02,	 7.4954648118466821e+02,	 -1.9043991122899072e+01,	 5.3255676914249398e+02,	 3.6976587910939575e+03,	 4.4284618547792275e+02,	 1.6931124065925847e+00 
2.7834089999999998e+00,	 7.4014480000000005e-01,	 2.4091762079379672e-02,	 7.5001366359983820e+02,	 -1.8970598089118866e+01,	 5.3229693412803545e+02,	 3.6893721734952769e+03,	 4.4273813973480122e+02,	 1.6945762651307814e+00 
2.7908770000000001e+00,	 7.4014579999999996e-01,	 2.4050643071839677e-02,	 7.5042088296328632e+02,	 -1.8912076038080080e+01,	 5.3204531560240048e+02,	 3.6813342755192075e+03,	 4.4263348547244215e+02,	 1.6958932851924717e+00 
2.7983460000000000e+00,	 7.4014690000000005e-01,	 2.4010154843807429e-02,	 7.5076856346815168e+02,	 -1.8878700244625030e+01,	 5.3180020223526503e+02,	 3.6734437706635667e+03,	 4.4253151306549785e+02,	 1.6970675852426584e+00 
2.8058149999999999e+00,	 7.4014800000000003e-01,	 2.3969336832261837e-02,	 7.5105176917851259e+02,	 -1.8882221739791447e+01,	 5.3155926811721997e+02,	 3.6655373633053196e+03,	 4.4243125641050602e+02,	 1.6980922575728294e+00 
2.8132839999999999e+00,	 7.4014899999999995e-01,	 2.3927846928376951e-02,	 7.5127619125407705e+02,	 -1.8929978533263338e+01,	 5.3132274530284860e+02,	 3.6575642781578199e+03,	 4.4233281326829285e+02,	 1.6989800917216531e+00 
2.8207520000000001e+00,	 7.4015010000000003e-01,	 2.3886471016957879e-02,	 7.5145780869689372e+02,	 -1.9027815822770705e+01,	 5.3109474830180670e+02,	 3.6496728455941284e+03,	 4.4223789791115007e+02,	 1.6997608690707533e+00 
2.8282210000000001e+00,	 7.4015120000000001e-01,	 2.3846224509622295e-02,	 7.5162111770112574e+02,	 -1.9162081133649540e+01,	 5.3087585574276238e+02,	 3.6420217914781160e+03,	 4.4214675357021395e+02,	 1.7004882071794922e+00 
2.8356900000000000e+00,	 7.4015229999999999e-01,	 2.3807470940969334e-02,	 7.5178226051690456e+02,	 -1.9324325145324362e+01,	 5.3065982227490611e+02,	 3.6346233107163148e+03,	 4.4205678129614847e+02,	 1.7012081120711446e+00 
2.8431590000000000e+00,	 7.4015339999999996e-01,	 2.3769661728010670e-02,	 7.5193891543402515e+02,	 -1.9522695318904233e+01,	 5.3043509995337752e+02,	 3.6273143430697928e+03,	 4.4196317090653929e+02,	 1.7019343635172894e+00 
2.8506279999999999e+00,	 7.4015450000000005e-01,	 2.3731926034582074e-02,	 7.5208721814905243e+02,	 -1.9773848948780564e+01,	 5.3019128543151487e+02,	 3.6198911264029143e+03,	 4.4186158503422075e+02,	 1.7026760084401475e+00 
2.8580960000000002e+00,	 7.4015560000000002e-01,	 2.3694016360665621e-02,	 7.5223202715667549e+02,	 -2.0082092458245530e+01,	 5.2992662153824506e+02,	 3.6123045560146256e+03,	 4.4175128578135468e+02,	 1.7034473156262622e+00 
2.8655650000000001e+00,	 7.4015670000000000e-01,	 2.3656149492733404e-02,	 7.5238187197394041e+02,	 -2.0442920972270930e+01,	 5.2964467242003730e+02,	 3.6046126430766417e+03,	 4.4163375256842698e+02,	 1.7042618301320294e+00 
2.8730340000000001e+00,	 7.4015779999999998e-01,	 2.3617851576610310e-02,	 7.5253605160332370e+02,	 -2.0866554163332012e+01,	 5.2934241023637833e+02,	 3.5967232059463981e+03,	 4.4150771690715595e+02,	 1.7051237483448223e+00 
2.8805030000000000e+00,	 7.4015889999999995e-01,	 2.3578146248546341e-02,	 7.5269008705860142e+02,	 -2.1361807274430113e+01,	 5.2901094223106975e+02,	 3.5884281082744237e+03,	 4.4136946178477763e+02,	 1.7060381876175681e+00 
2.8879709999999998e+00,	 7.4016000000000004e-01,	 2.3537327959411401e-02,	 7.5285516441263030e+02,	 -2.1914852065617126e+01,	 5.2865181698038373e+02,	 3.5797840225858818e+03,	 4.4121962194579174e+02,	 1.7070275640464305e+00 
2.8954399999999998e+00,	 7.4016119999999996e-01,	 2.3496952970221061e-02,	 7.5305751071659768e+02,	 -2.2499354006316409e+01,	 5.2827827396619318e+02,	 3.5711182840448264e+03,	 4.4106371249197332e+02,	 1.7081286100172173e+00 
2.9029090000000002e+00,	 7.4016230000000005e-01,	 2.3457802360605969e-02,	 7.5330778789456679e+02,	 -2.3111806076340265e+01,	 5.2789700537646877e+02,	 3.5625950384281446e+03,	 4.4090452168228609e+02,	 1.7093547639052353e+00 
2.9103780000000001e+00,	 7.4016349999999997e-01,	 2.3419079885701723e-02,	 7.5359659511381767e+02,	 -2.3760346884452133e+01,	 5.2750054786289866e+02,	 3.5540430208715907e+03,	 4.4073892807199070e+02,	 1.7106977105626648e+00 
2.9178470000000001e+00,	 7.4016459999999995e-01,	 2.3380044402522948e-02,	 7.5391837433302703e+02,	 -2.4439764026667895e+01,	 5.2708227002266449e+02,	 3.5453056008646563e+03,	 4.4056415300568449e+02,	 1.7121556462516112e+00 
2.9253149999999999e+00,	 7.4016579999999998e-01,	 2.3340942436437456e-02,	 7.5428451692224280e+02,	 -2.5134491944425601e+01,	 5.2664484079742260e+02,	 3.5364389000133106e+03,	 4.4038130143991219e+02,	 1.7137493525758221e+00 
2.9327839999999998e+00,	 7.4016689999999996e-01,	 2.3302386856804861e-02,	 7.5471206835559178e+02,	 -2.5831566048676386e+01,	 5.2619462127135262e+02,	 3.5275790108068904e+03,	 4.4019302403015996e+02,	 1.7155065320452965e+00 
2.9402529999999998e+00,	 7.4016810000000000e-01,	 2.3264842684409624e-02,	 7.5521633887106827e+02,	 -2.6520823745836832e+01,	 5.2573707506956487e+02,	 3.5188330495447190e+03,	 4.4000160013468769e+02,	 1.7174525255014674e+00 
2.9477220000000002e+00,	 7.4016919999999997e-01,	 2.3228075987005638e-02,	 7.5579841111970222e+02,	 -2.7198006868983747e+01,	 5.2527209910857800e+02,	 3.5101648141486016e+03,	 4.3980698248944810e+02,	 1.7195898515831014e+00 
2.9551900000000000e+00,	 7.4017040000000001e-01,	 2.3190604166530279e-02,	 7.5643629879114997e+02,	 -2.7866144216418402e+01,	 5.2478871433842255e+02,	 3.5012771337575887e+03,	 4.3960456841614706e+02,	 1.7218870222918676e+00 
2.9626589999999999e+00,	 7.4017140000000003e-01,	 2.3150519187165059e-02,	 7.5709933190040272e+02,	 -2.8530919490704214e+01,	 5.2427216546121645e+02,	 3.4917848274226894e+03,	 4.3938816403710456e+02,	 1.7242993555304051e+00 
2.9701270000000002e+00,	 7.4017250000000001e-01,	 2.3106944963891526e-02,	 7.5777330968751255e+02,	 -2.9189608052103207e+01,	 5.2371700117537853e+02,	 3.4815219677594314e+03,	 4.3915546312039010e+02,	 1.7268037410425316e+00 
2.9775960000000001e+00,	 7.4017339999999998e-01,	 2.3060434201711975e-02,	 7.5846482788863796e+02,	 -2.9830290936102244e+01,	 5.2313083156696689e+02,	 3.4706253483685314e+03,	 4.3890963220908941e+02,	 1.7294020354403663e+00 
2.9850639999999999e+00,	 7.4017420000000000e-01,	 2.3012317773407141e-02,	 7.5918917693506955e+02,	 -3.0436485475109713e+01,	 5.2252878726578956e+02,	 3.4593979335109725e+03,	 4.3865700027023621e+02,	 1.7321028564823790e+00 
2.9925320000000002e+00,	 7.4017469999999996e-01,	 2.2963964144321926e-02,	 7.5995959275127325e+02,	 -3.0995511920493847e+01,	 5.2192669639259429e+02,	 3.4481512620476065e+03,	 4.3840420319177224e+02,	 1.7349090450366642e+00 
3.0000000000000000e+00,	 7.4017460000000002e-01,	 2.2924497392166246e-02,	 7.6062860547743912e+02,	 -3.1456365224151835e+01,	 5.2142481871135817e+02,	 3.4389151393183952e+03,	 4.3819337070777891e+02,	 1.7373124041834014e+00 
2.6489710000000000e+00,	 7.4589660000000002e-01,	 2.4863181399273820e-02,	 7.3656610907335266e+02,	 -1.6800196469243794e+01,	 5.3876928063740843e+02,	 3.8538025638423387e+03,	 4.4542169496527271e+02,	 1.6540677940332309e+00 
2.6564399999999999e+00,	 7.4589760000000005e-01,	 2.4839996015729508e-02,	 7.3715259322321685e+02,	 -1.7261569448021440e+01,	 5.3846816678623395e+02,	 3.8480569696011717e+03,	 4.4529720625364257e+02,	 1.6558708618863585e+00 
2.6639080000000002e+00,	 7.4589870000000003e-01,	 2.4810318183170192e-02,	 7.3789730024760365e+02,	 -1.7707103912430590e+01,	 5.3809512694721832e+02,	 3.8407967943571748e+03,	 4.4514293308729134e+02,	 1.6581409495314228e+00 
2.6713770000000001e+00,	 7.4589980000000000e-01,	 2.4779160200328255e-02,	 7.3868432343166330e+02,	 -1.8092172931177974e+01,	 5.3770980037982770e+02,	 3.8332264216512508e+03,	 4.4498352250366020e+02,	 1.6605240721774619e+00 
2.6788460000000001e+00,	 7.4590089999999998e-01,	 2.4745106600189332e-02,	 7.3951218834498127e+02,	 -1.8420182390052652e+01,	 5.3731347093840509e+02,	 3.8251370093446303e+03,	 4.4481950040458690e+02,	 1.6630151380329374e+00 
2.6863150000000000e+00,	 7.4590199999999995e-01,	 2.4707519382477040e-02,	 7.4036661105208532e+02,	 -1.8690248849299351e+01,	 5.3690458547150934e+02,	 3.8164202829041933e+03,	 4.4465021854773926e+02,	 1.6655844445487036e+00 
2.6937829999999998e+00,	 7.4590299999999998e-01,	 2.4667213476239899e-02,	 7.4122651018552892e+02,	 -1.8889903142460071e+01,	 5.3648972246851122e+02,	 3.8072503598781577e+03,	 4.4447839605056816e+02,	 1.6681737043979443e+00 
2.7012520000000002e+00,	 7.4590409999999996e-01,	 2.4625402316168735e-02,	 7.4208208248970845e+02,	 -1.9010677696437071e+01,	 5.3608167635912594e+02,	 3.7979062047850502e+03,	 4.4430933206655442e+02,	 1.6707403986100795e+00 
2.7087210000000002e+00,	 7.4590520000000005e-01,	 2.4581678274793600e-02,	 7.4294118191211624e+02,	 -1.9074723475352371e+01,	 5.3567609509213787e+02,	 3.7882945039124511e+03,	 4.4414122555717495e+02,	 1.6733101248638413e+00 
2.7161900000000001e+00,	 7.4590630000000002e-01,	 2.4534499501349338e-02,	 7.4381737006683693e+02,	 -1.9119227765311891e+01,	 5.3525472061977848e+02,	 3.7780495244188510e+03,	 4.4396650561466583e+02,	 1.6759441135211766e+00 
2.7236579999999999e+00,	 7.4590740000000000e-01,	 2.4483735665524031e-02,	 7.4471366308022311e+02,	 -1.9161253444142133e+01,	 5.3481332049190928e+02,	 3.7671233001549617e+03,	 4.4378340840627413e+02,	 1.6786570087180235e+00 
2.7311269999999999e+00,	 7.4590849999999997e-01,	 2.4431539917241799e-02,	 7.4561524695334867e+02,	 -1.9170243837886652e+01,	 5.3437067706319954e+02,	 3.7559810942992290e+03,	 4.4359971957064056e+02,	 1.6813843943902811e+00 
2.7385959999999998e+00,	 7.4590959999999995e-01,	 2.4380802335479991e-02,	 7.4650110170184360e+02,	 -1.9128329677544748e+01,	 5.3395391462187285e+02,	 3.7452577020117055e+03,	 4.4342670131681001e+02,	 1.6840351093946775e+00 
2.7460650000000002e+00,	 7.4591070000000004e-01,	 2.4333408727686894e-02,	 7.4735247449920701e+02,	 -1.9015097637130946e+01,	 5.3358260558503480e+02,	 3.7353779596630520e+03,	 4.4327249608416565e+02,	 1.6865344572133520e+00 
2.7535330000000000e+00,	 7.4591189999999996e-01,	 2.4288818854636129e-02,	 7.4815077594817876e+02,	 -1.8860059515425093e+01,	 5.3325451096812458e+02,	 3.7262404104261232e+03,	 4.4313619321200986e+02,	 1.6888452587531466e+00 
2.7610020000000000e+00,	 7.4591300000000005e-01,	 2.4245484413719116e-02,	 7.4887837101374510e+02,	 -1.8696426299999352e+01,	 5.3295518298622289e+02,	 3.7175044160037201e+03,	 4.4301180450191265e+02,	 1.6909520551080783e+00 
2.7684709999999999e+00,	 7.4591410000000002e-01,	 2.4202395176377942e-02,	 7.4951959904301725e+02,	 -1.8548517744075170e+01,	 5.3267168808450901e+02,	 3.7089237041093402e+03,	 4.4289396317311514e+02,	 1.6928410370732987e+00 
2.7759399999999999e+00,	 7.4591520000000000e-01,	 2.4159541381127761e-02,	 7.5006886445665020e+02,	 -1.8421473077894376e+01,	 5.3239885510538761e+02,	 3.7004601884207304e+03,	 4.4278052410825416e+02,	 1.6945077809729272e+00 
2.7834080000000001e+00,	 7.4591640000000003e-01,	 2.4117585082195348e-02,	 7.5053751503594231e+02,	 -1.8312902301825424e+01,	 5.3213822380283807e+02,	 3.6922254580448689e+03,	 4.4267213113307639e+02,	 1.6959750655199370e+00 
2.7908770000000001e+00,	 7.4591750000000001e-01,	 2.4076813515547659e-02,	 7.5094066768603739e+02,	 -1.8223237851324043e+01,	 5.3189001199422353e+02,	 3.6842643312068099e+03,	 4.4256887857469667e+02,	 1.6972764808212217e+00 
2.7983460000000000e+00,	 7.4591870000000005e-01,	 2.4036602350947855e-02,	 7.5128012499556075e+02,	 -1.8160427585024237e+01,	 5.3164868004481468e+02,	 3.6764423160971796e+03,	 4.4246846483717428e+02,	 1.6984251883365196e+00 
2.8058149999999999e+00,	 7.4591980000000002e-01,	 2.3996208894069612e-02,	 7.5155145102486847e+02,	 -1.8135912162601016e+01,	 5.3140909970246366e+02,	 3.6686101077074245e+03,	 4.4236875736531778e+02,	 1.6994198351792276e+00 
2.8132830000000002e+00,	 7.4592099999999995e-01,	 2.3955513458712847e-02,	 7.5176343672397127e+02,	 -1.8154714084801359e+01,	 5.3117084315924092e+02,	 3.6607464444953603e+03,	 4.4226957853365491e+02,	 1.7002811292944153e+00 
2.8207520000000001e+00,	 7.4592210000000003e-01,	 2.3915319458780865e-02,	 7.5193746770639541e+02,	 -1.8221545916386933e+01,	 5.3093909375728208e+02,	 3.6530097233250908e+03,	 4.4217308708105736e+02,	 1.7010492876339549e+00 
2.8282210000000001e+00,	 7.4592329999999996e-01,	 2.3876523272580115e-02,	 7.5209392779057646e+02,	 -1.8330888600186192e+01,	 5.3071696442485324e+02,	 3.6455578628641088e+03,	 4.4208058128424699e+02,	 1.7017650562063253e+00 
2.8356900000000000e+00,	 7.4592449999999999e-01,	 2.3838960341143876e-02,	 7.5224573431756096e+02,	 -1.8476127019773450e+01,	 5.3049712092840025e+02,	 3.6383148571215866e+03,	 4.4198900836109078e+02,	 1.7024690312377875e+00 
2.8431590000000000e+00,	 7.4592559999999997e-01,	 2.3801913700533035e-02,	 7.5239123017449231e+02,	 -1.8666783769201295e+01,	 5.3026856284452720e+02,	 3.6310956923513982e+03,	 4.4189378537116056e+02,	 1.7031756960408626e+00 
2.8506269999999998e+00,	 7.4592680000000000e-01,	 2.3764771441209566e-02,	 7.5252889392480711e+02,	 -1.8917063946375695e+01,	 5.3002335500379581e+02,	 3.6237529848921035e+03,	 4.4179160285652341e+02,	 1.7038952754890391e+00 
2.8580960000000002e+00,	 7.4592800000000004e-01,	 2.3727419840433257e-02,	 7.5266310782518519e+02,	 -1.9229228309983057e+01,	 5.2975948868398609e+02,	 3.6162562443740562e+03,	 4.4168161861182614e+02,	 1.7046412452645749e+00 
2.8655650000000001e+00,	 7.4592919999999996e-01,	 2.3689729749131784e-02,	 7.5279650926556155e+02,	 -1.9602271735709852e+01,	 5.2947511060265992e+02,	 3.6085738162543889e+03,	 4.4156305402281032e+02,	 1.7054227557841692e+00 
2.8730340000000001e+00,	 7.4593039999999999e-01,	 2.3651141291753084e-02,	 7.5292851471814083e+02,	 -2.0048928643716959e+01,	 5.2916432186540248e+02,	 3.6005810783562370e+03,	 4.4143344172828699e+02,	 1.7062490671642636e+00 
2.8805030000000000e+00,	 7.4593160000000003e-01,	 2.3611230307931247e-02,	 7.5306087833797972e+02,	 -2.0572201857005098e+01,	 5.2882250176403249e+02,	 3.5921832319370801e+03,	 4.4129084405788876e+02,	 1.7071322302268064e+00 
2.8879709999999998e+00,	 7.4593279999999995e-01,	 2.3570666564510380e-02,	 7.5321078072938167e+02,	 -2.1151847560938258e+01,	 5.2845519375953199e+02,	 3.5835211526422204e+03,	 4.4113756217737574e+02,	 1.7081014686951768e+00 
2.8954399999999998e+00,	 7.4593399999999999e-01,	 2.3530636034217178e-02,	 7.5340310421779668e+02,	 -2.1761035725453951e+01,	 5.2807304242577607e+02,	 3.5748481724105195e+03,	 4.4097802945058822e+02,	 1.7091946933681925e+00 
2.9029090000000002e+00,	 7.4593529999999997e-01,	 2.3491407304203876e-02,	 7.5364363902852460e+02,	 -2.2399498014127744e+01,	 5.2767862489541380e+02,	 3.5662228192283806e+03,	 4.4081331553751295e+02,	 1.7104211998146548e+00 
2.9103780000000001e+00,	 7.4593650000000000e-01,	 2.3452318550076331e-02,	 7.5392299904460788e+02,	 -2.3077271018973835e+01,	 5.2726602351724762e+02,	 3.5575049146915926e+03,	 4.4064094191778230e+02,	 1.7117703723306816e+00 
2.9178459999999999e+00,	 7.4593770000000004e-01,	 2.3413063580223395e-02,	 7.5424025273122220e+02,	 -2.3786089534572678e+01,	 5.2683264518090846e+02,	 3.5486311472302100e+03,	 4.4045981561152621e+02,	 1.7132441999316963e+00 
2.9253149999999999e+00,	 7.4593900000000002e-01,	 2.3374038249117577e-02,	 7.5460864155816103e+02,	 -2.4508805157374507e+01,	 5.2638260834207176e+02,	 3.5396899242051982e+03,	 4.4027164817823353e+02,	 1.7148652392748724e+00 
2.9327839999999998e+00,	 7.4594020000000005e-01,	 2.3335750866539315e-02,	 7.5504437317880991e+02,	 -2.5232879574634428e+01,	 5.2592153505766089e+02,	 3.5307963699944739e+03,	 4.4007878279484186e+02,	 1.7166605497058895e+00 
2.9402529999999998e+00,	 7.4594150000000004e-01,	 2.3298432665076727e-02,	 7.5555962645457498e+02,	 -2.5949177922178045e+01,	 5.2545308198687746e+02,	 3.5220100205612566e+03,	 4.3988274386965122e+02,	 1.7186514111754827e+00 
2.9477210000000000e+00,	 7.4594269999999996e-01,	 2.3261482790708457e-02,	 7.5615069144648328e+02,	 -2.6655056594606251e+01,	 5.2497419270875730e+02,	 3.5132195191531218e+03,	 4.3968224723571763e+02,	 1.7208344408780694e+00 
2.9551900000000000e+00,	 7.4594389999999999e-01,	 2.3223211779814783e-02,	 7.5679243851695401e+02,	 -2.7355470931152929e+01,	 5.2447243792305756e+02,	 3.5040870795426190e+03,	 4.3947207937054139e+02,	 1.7231735899998921e+00 
2.9626589999999999e+00,	 7.4594510000000003e-01,	 2.3181937343810213e-02,	 7.5745661938888634e+02,	 -2.8054938647770555e+01,	 5.2393572067732839e+02,	 3.4942797689995286e+03,	 4.3924715561608423e+02,	 1.7256252792178335e+00 
2.9701270000000002e+00,	 7.4594620000000000e-01,	 2.3137236979494713e-02,	 7.5813409405690982e+02,	 -2.8746817269771562e+01,	 5.2336342950575295e+02,	 3.4837325384654905e+03,	 4.3900719683747758e+02,	 1.7281696349464415e+00 
2.9775960000000001e+00,	 7.4594720000000003e-01,	 2.3089960866822083e-02,	 7.5883478481179782e+02,	 -2.9414364330017154e+01,	 5.2276656375360290e+02,	 3.4726493807446250e+03,	 4.3875679425330333e+02,	 1.7308100262468962e+00 
2.9850639999999999e+00,	 7.4594800000000006e-01,	 2.3041430632457775e-02,	 7.5957360087735378e+02,	 -3.0037743131400852e+01,	 5.2216069614700416e+02,	 3.4613343867253448e+03,	 4.3850246888770431e+02,	 1.7335530631531377e+00 
2.9925320000000002e+00,	 7.4594850000000001e-01,	 2.2992749819506348e-02,	 7.6036086002477612e+02,	 -3.0603225313306062e+01,	 5.2155947687305525e+02,	 3.4500444648297535e+03,	 4.3824994885916436e+02,	 1.7363983191700043e+00 
3.0000000000000000e+00,	 7.4594850000000001e-01,	 2.2952903233151793e-02,	 7.6104253915384083e+02,	 -3.1062944464422088e+01,	 5.2106155914929172e+02,	 3.4407775655493670e+03,	 4.3804070664250781e+02,	 1.7388251847425455e+00 
2.6489710000000000e+00,	 7.5166670000000002e-01,	 2.4923252089337575e-02,	 7.3712849789705911e+02,	 -1.6570694108935449e+01,	 5.3832511633955471e+02,	 3.8599287720066623e+03,	 4.4523805308599634e+02,	 1.6560011534826702e+00 
2.6564390000000002e+00,	 7.5166780000000000e-01,	 2.4898103684209111e-02,	 7.3773417217077599e+02,	 -1.7022148817674076e+01,	 5.3801889872069864e+02,	 3.8538405300439895e+03,	 4.4511140180549091e+02,	 1.6578558171654005e+00 
2.6639080000000002e+00,	 7.5166900000000003e-01,	 2.4865967287073878e-02,	 7.3849934884778099e+02,	 -1.7461062478064598e+01,	 5.3764495732466230e+02,	 3.8461912211548961e+03,	 4.4495669115242146e+02,	 1.6601744825610478e+00 
2.6713770000000001e+00,	 7.5167010000000001e-01,	 2.4832341874920734e-02,	 7.3930537833547578e+02,	 -1.7838667818199735e+01,	 5.3725997499897164e+02,	 3.8382397931746800e+03,	 4.4479735632048744e+02,	 1.6626010715606587e+00 
2.6788460000000001e+00,	 7.5167130000000004e-01,	 2.4796049977273499e-02,	 7.4015178771214210e+02,	 -1.8156981111657487e+01,	 5.3686073865255264e+02,	 3.8297822772417785e+03,	 4.4463206178746429e+02,	 1.6651396203579591e+00 
2.6863139999999999e+00,	 7.5167240000000002e-01,	 2.4756132947499131e-02,	 7.4102986499391750e+02,	 -1.8420201952077640e+01,	 5.3644292376756800e+02,	 3.8206412884667784e+03,	 4.4445900941154605e+02,	 1.6677775783036530e+00 
2.6937829999999998e+00,	 7.5167360000000005e-01,	 2.4712872242215453e-02,	 7.4192952397308989e+02,	 -1.8624030437169296e+01,	 5.3601154643660243e+02,	 3.8108978394031783e+03,	 4.4428026895962643e+02,	 1.6704843556429319e+00 
2.7012520000000002e+00,	 7.5167479999999998e-01,	 2.4667990109879710e-02,	 7.4283847337848431e+02,	 -1.8754141263663087e+01,	 5.3558542488367505e+02,	 3.8009525931606140e+03,	 4.4410363560114195e+02,	 1.6732021879419703e+00 
2.7087210000000002e+00,	 7.5167589999999995e-01,	 2.4622905912231381e-02,	 7.4374285682760501e+02,	 -1.8802763535095629e+01,	 5.3517461328345189e+02,	 3.7910956943701631e+03,	 4.4393328189557053e+02,	 1.6758835799618366e+00 
2.7161890000000000e+00,	 7.5167709999999999e-01,	 2.4577121738462000e-02,	 7.4463899347975916e+02,	 -1.8789228026743263e+01,	 5.3477240354342325e+02,	 3.7812025834057977e+03,	 4.4376643181884941e+02,	 1.6785316633285621e+00 
2.7236579999999999e+00,	 7.5167830000000002e-01,	 2.4529060499155722e-02,	 7.4554065248157826e+02,	 -1.8752049802807296e+01,	 5.3436777519751854e+02,	 3.7709529361653040e+03,	 4.4359851509909566e+02,	 1.6811968891827946e+00 
2.7311269999999999e+00,	 7.5167949999999994e-01,	 2.4478609927010266e-02,	 7.4645525336268770e+02,	 -1.8699116133334158e+01,	 5.3396223864840545e+02,	 3.7603410387829690e+03,	 4.4343015768368042e+02,	 1.6838941043644442e+00 
2.7385959999999998e+00,	 7.5168069999999998e-01,	 2.4427644912460737e-02,	 7.4736772139475511e+02,	 -1.8615656631029857e+01,	 5.3356973862244945e+02,	 3.7497535626793701e+03,	 4.4326715145247476e+02,	 1.6865664986487483e+00 
2.7460640000000001e+00,	 7.5168190000000001e-01,	 2.4378400495785317e-02,	 7.4824866574999101e+02,	 -1.8483997009926803e+01,	 5.3320462603394378e+02,	 3.7396336036634452e+03,	 4.4311546545782289e+02,	 1.6891239292955260e+00 
2.7535330000000000e+00,	 7.5168310000000005e-01,	 2.4331586243503001e-02,	 7.4906697230128054e+02,	 -1.8311226009001253e+01,	 5.3286870075220622e+02,	 3.7301008328549588e+03,	 4.4297585944861407e+02,	 1.6914934196125972e+00 
2.7610020000000000e+00,	 7.5168429999999997e-01,	 2.4286771685491867e-02,	 7.4980338044578207e+02,	 -1.8118970375250075e+01,	 5.3255581359044527e+02,	 3.7210444468239684e+03,	 4.4284578818434375e+02,	 1.6936420998560382e+00 
2.7684709999999999e+00,	 7.5168550000000001e-01,	 2.4243237567097013e-02,	 7.5044801891944041e+02,	 -1.7929868841182227e+01,	 5.3225909631320167e+02,	 3.7123049720982085e+03,	 4.4272240364804975e+02,	 1.6955595071696934e+00 
2.7759390000000002e+00,	 7.5168670000000004e-01,	 2.4200715829224086e-02,	 7.5099955766989581e+02,	 -1.7755756398362635e+01,	 5.3197702559847573e+02,	 3.7038298416854950e+03,	 4.4260507773010585e+02,	 1.6972453872000743e+00 
2.7834080000000001e+00,	 7.5168789999999996e-01,	 2.4159386942276647e-02,	 7.5146692779648993e+02,	 -1.7601155414606882e+01,	 5.3171194544595323e+02,	 3.6956621700018864e+03,	 4.4249479059818867e+02,	 1.6987161117230130e+00 
2.7908770000000001e+00,	 7.5168910000000000e-01,	 2.4119219970412061e-02,	 7.5186070173597409e+02,	 -1.7470917781611199e+01,	 5.3146239723277040e+02,	 3.6877862267377727e+03,	 4.4239094043588341e+02,	 1.6999978766615220e+00 
2.7983460000000000e+00,	 7.5169039999999998e-01,	 2.4079645078702597e-02,	 7.5218420662975439e+02,	 -1.7371707089430011e+01,	 5.3121969568413817e+02,	 3.6800539670730691e+03,	 4.4228991614170940e+02,	 1.7011122170433730e+00 
2.8058149999999999e+00,	 7.5169160000000002e-01,	 2.4040077523603976e-02,	 7.5243659612198508e+02,	 -1.7311980488395648e+01,	 5.3097398713257917e+02,	 3.6723075577144623e+03,	 4.4218761667415578e+02,	 1.7020732772398999e+00 
2.8132830000000002e+00,	 7.5169280000000005e-01,	 2.4000801240035324e-02,	 7.5262885712221725e+02,	 -1.7297788838880468e+01,	 5.3072531738755742e+02,	 3.6645907690394401e+03,	 4.4208406022719169e+02,	 1.7029060251788908e+00 
2.8207520000000001e+00,	 7.5169410000000003e-01,	 2.3962537380093824e-02,	 7.5278837448550780e+02,	 -1.7324414204806413e+01,	 5.3048089110375383e+02,	 3.6570633645840917e+03,	 4.4198224728861345e+02,	 1.7036605017247060e+00 
2.8282210000000001e+00,	 7.5169529999999996e-01,	 2.3925679740105579e-02,	 7.5293323064360629e+02,	 -1.7402597039309285e+01,	 5.3024584576484961e+02,	 3.6498204256244112e+03,	 4.4188431974887828e+02,	 1.7043698629646893e+00 
2.8356900000000000e+00,	 7.5169660000000005e-01,	 2.3889798857451561e-02,	 7.5306822777104537e+02,	 -1.7528693190801498e+01,	 5.3001500611689062e+02,	 3.6427603133856232e+03,	 4.4178812330923711e+02,	 1.7050530844086496e+00 
2.8431579999999999e+00,	 7.5169790000000003e-01,	 2.3853963319539925e-02,	 7.5319392308737577e+02,	 -1.7708522244825868e+01,	 5.2977766005000092e+02,	 3.6356672270235081e+03,	 4.4168919364323335e+02,	 1.7057290054136380e+00 
2.8506269999999998e+00,	 7.5169909999999995e-01,	 2.3817644803693309e-02,	 7.5330949805128330e+02,	 -1.7952506329510307e+01,	 5.2952629712387443e+02,	 3.6284094091280394e+03,	 4.4158439735883059e+02,	 1.7064085368557915e+00 
2.8580960000000002e+00,	 7.5170040000000005e-01,	 2.3780730256270591e-02,	 7.5341803089946177e+02,	 -1.8268494976949484e+01,	 5.2925679154685986e+02,	 3.6209419628992082e+03,	 4.4147200954640664e+02,	 1.7071059197815899e+00 
2.8655650000000001e+00,	 7.5170170000000003e-01,	 2.3742869510539156e-02,	 7.5351893213489325e+02,	 -1.8658125505889267e+01,	 5.2896278034383909e+02,	 3.6131688529343724e+03,	 4.4134936988459987e+02,	 1.7078304583716042e+00 
2.8730340000000001e+00,	 7.5170300000000001e-01,	 2.3703839010351387e-02,	 7.5361533402013231e+02,	 -1.9129557014004199e+01,	 5.2863947834904332e+02,	 3.6050244878680287e+03,	 4.4121447292535277e+02,	 1.7085978153408490e+00 
2.8805019999999999e+00,	 7.5170429999999999e-01,	 2.3663939078827041e-02,	 7.5371838136992653e+02,	 -1.9677643277002520e+01,	 5.2828794698308820e+02,	 3.5965630514233835e+03,	 4.4106775051267482e+02,	 1.7094317210895746e+00 
2.8879709999999998e+00,	 7.5170559999999997e-01,	 2.3623860626230803e-02,	 7.5384477245526955e+02,	 -2.0283891134071773e+01,	 5.2791431942802581e+02,	 3.5879323957450297e+03,	 4.4091175205198834e+02,	 1.7103595253551074e+00 
2.8954399999999998e+00,	 7.5170689999999996e-01,	 2.3584107931597594e-02,	 7.5401197063602172e+02,	 -2.0925334215469622e+01,	 5.2752366373033328e+02,	 3.5792442606049854e+03,	 4.4074858488757525e+02,	 1.7114116765627667e+00 
2.9029090000000002e+00,	 7.5170820000000005e-01,	 2.3544533659582170e-02,	 7.5422302532395372e+02,	 -2.1598849787723015e+01,	 5.2711496551556945e+02,	 3.5704699063443200e+03,	 4.4057781713326358e+02,	 1.7125969535790913e+00 
2.9103780000000001e+00,	 7.5170950000000003e-01,	 2.3504852741001725e-02,	 7.5447454554917397e+02,	 -2.2311780632623119e+01,	 5.2668589379331320e+02,	 3.5615509286449324e+03,	 4.4039846539752534e+02,	 1.7139123805771581e+00 