TITLE = "Final State"
VARIABLES = "X", "Y", "rho", "u", "v", "T", "p", "c", "M"
ZONE I=81, J=24, DATAPACKING=POINT
8.5040492500000009e-01,	 2.6722847499999997e-01,	 2.6940105456620379e-02,	 1.6041172642803697e+03,	 3.6391674760601416e+02,	 4.5297454851545660e+02,	 3.5107752634126355e+03,	 4.2713571543988928e+02,	 3.8509521560603224e+00 
8.5241477499999996e-01,	 2.6748499999999997e-01,	 2.6952842764383474e-02,	 1.6039422698910910e+03,	 3.6446361763072633e+02,	 4.5305551914803493e+02,	 3.5130630202221068e+03,	 4.2717388966376438e+02,	 3.8504919811003626e+00 
8.5439939999999992e-01,	 2.6773824999999996e-01,	 2.6965119298774529e-02,	 1.6037724865806213e+03,	 3.6499495414345705e+02,	 4.5313349325058186e+02,	 3.5152680558727639e+03,	 4.2721064792653317e+02,	 3.8500489396000410e+00 
8.5635879999999998e-01,	 2.6798825000000004e-01,	 2.6977233537220840e-02,	 1.6036036498909198e+03,	 3.6552416228387159e+02,	 4.5321042340935634e+02,	 3.5174443789730649e+03,	 4.2724691095791735e+02,	 3.8496119291475486e+00 
8.5829367499999987e-01,	 2.6823504999999997e-01,	 2.6988903313514480e-02,	 1.6034398048674539e+03,	 3.6603844009901320e+02,	 4.5328452594849267e+02,	 3.5195413218399144e+03,	 4.2728183820722461e+02,	 3.8491910746759950e+00 
8.6020402500000004e-01,	 2.6847864999999999e-01,	 2.7000426136445398e-02,	 1.6032768088770129e+03,	 3.6655079593310722e+02,	 4.5335768695369364e+02,	 3.5216122817117562e+03,	 4.2731631887635029e+02,	 3.8487756573524234e+00 
8.6209047500000002e-01,	 2.6871914999999996e-01,	 2.7011535942612498e-02,	 1.6031185942301065e+03,	 3.6704879643805526e+02,	 4.5342818151317090e+02,	 3.5236091279327597e+03,	 4.2734954022188703e+02,	 3.8483754648558453e+00 
8.6395299999999997e-01,	 2.6895654999999996e-01,	 2.7022498231952252e-02,	 1.6029612011833601e+03,	 3.6754490678969859e+02,	 4.5349778692058231e+02,	 3.5255802660320151e+03,	 4.2738234001090484e+02,	 3.8479804012666001e+00 
8.6579230000000007e-01,	 2.6919094999999998e-01,	 2.7033073385695210e-02,	 1.6028083725918659e+03,	 3.6802723599379937e+02,	 4.5356489472672132e+02,	 3.5274819020452110e+03,	 4.2741396048524535e+02,	 3.8475995898799034e+00 
8.6760837499999988e-01,	 2.6942232499999996e-01,	 2.7043517216666185e-02,	 1.6026562703508205e+03,	 3.6850793239801465e+02,	 4.5363118977598458e+02,	 3.5293604844172628e+03,	 4.2744519570049607e+02,	 3.8472234642168379e+00 
8.6940180000000000e-01,	 2.6965074999999999e-01,	 2.7053588807959147e-02,	 1.6025085739967076e+03,	 3.6897527490123014e+02,	 4.5369511393085986e+02,	 3.5311724252946265e+03,	 4.2747531169667377e+02,	 3.8468608591312630e+00 
8.7117259999999996e-01,	 2.6987627500000000e-01,	 2.7063538735868631e-02,	 1.6023615923800551e+03,	 3.6944098060816850e+02,	 4.5375826266718479e+02,	 3.5329628168429294e+03,	 4.2750506029397451e+02,	 3.8465027193158767e+00 
8.7292140000000007e-01,	 2.7009894999999995e-01,	 2.7073132511238659e-02,	 1.6022188143036440e+03,	 3.6989391307964621e+02,	 4.5381917822848732e+02,	 3.5346896764649646e+03,	 4.2753375490838158e+02,	 3.8461573075187818e+00 
8.7464819999999999e-01,	 2.7031875000000000e-01,	 2.7082612637673812e-02,	 1.6020766752447660e+03,	 3.7034537273840743e+02,	 4.5387939479390246e+02,	 3.5363965860428898e+03,	 4.2756211836414553e+02,	 3.8458159199116206e+00 
8.7635357500000000e-01,	 2.7053577499999998e-01,	 2.7091764607784834e-02,	 1.6019385608856794e+03,	 3.7078453145350687e+02,	 4.5393751561875104e+02,	 3.5380446339075543e+03,	 4.2758949289115509e+02,	 3.8454864709174217e+00 
8.7803752499999999e-01,	 2.7075002499999995e-01,	 2.7100808538897396e-02,	 1.6018010509275941e+03,	 3.7122232190995123e+02,	 4.5399496893061632e+02,	 3.5396736722751143e+03,	 4.2761655130158283e+02,	 3.8451608607915797e+00 
8.7970064999999997e-01,	 2.7096157499999995e-01,	 2.7109533268685131e-02,	 1.6016674389852978e+03,	 3.7164816790934998e+02,	 4.5405042142221458e+02,	 3.5412457081517196e+03,	 4.2764266577509784e+02,	 3.8448466420936023e+00 
8.8134295000000007e-01,	 2.7117042499999999e-01,	 2.7118158903194682e-02,	 1.6015343752467068e+03,	 3.7207276254922863e+02,	 4.5410526655466538e+02,	 3.5428003378298681e+03,	 4.2766849265392187e+02,	 3.8445359151978069e+00 
8.8296495000000008e-01,	 2.7137665000000000e-01,	 2.7126488340917923e-02,	 1.6014050378242491e+03,	 3.7248589320585779e+02,	 4.5415822964073112e+02,	 3.5443018512673107e+03,	 4.2769343178637064e+02,	 3.8442358984974221e+00 
8.8456667499999997e-01,	 2.7158024999999997e-01,	 2.7134721356418638e-02,	 1.6012762268757501e+03,	 3.7289782811139861e+02,	 4.5421061220654946e+02,	 3.5457864868815559e+03,	 4.2771809613450546e+02,	 3.8439392160300465e+00 
8.8614870000000001e-01,	 2.7178130000000000e-01,	 2.7142664078608648e-02,	 1.6011510095642766e+03,	 3.7329866493037315e+02,	 4.5426120986714926e+02,	 3.5472194947429757e+03,	 4.2774191870911352e+02,	 3.8436526860737512e+00 
8.8771099999999992e-01,	 2.7197979999999999e-01,	 2.7150529127284780e-02,	 1.6010262437883744e+03,	 3.7369846250051211e+02,	 4.5431130013892920e+02,	 3.5486386184900157e+03,	 4.2776550108626446e+02,	 3.8433690712463151e+00 
8.8925410000000005e-01,	 2.7217580000000002e-01,	 2.7158121479492026e-02,	 1.6009049387122745e+03,	 3.7408756636032223e+02,	 4.5435968700144548e+02,	 3.5500090138127916e+03,	 4.2778828026806343e+02,	 3.8430951407596545e+00 
8.9077802500000003e-01,	 2.7236934999999995e-01,	 2.7165630344925893e-02,	 1.6007841082781163e+03,	 3.7447555574823133e+02,	 4.5440756878981017e+02,	 3.5513647589286124e+03,	 4.2781082048110170e+02,	 3.8428241078396708e+00 
8.9228330000000000e-01,	 2.7256047500000002e-01,	 2.7172880102921678e-02,	 1.6006665748885864e+03,	 3.7485331872122583e+02,	 4.5445385250640436e+02,	 3.5526743413545182e+03,	 4.2783260727775399e+02,	 3.8425621568602355e+00 
8.9376992499999997e-01,	 2.7274915000000000e-01,	 2.7180058639340886e-02,	 1.6005494454693796e+03,	 3.7523014585673963e+02,	 4.5449968739355160e+02,	 3.5539712945179190e+03,	 4.2785418170686933e+02,	 3.8423027810947503e+00 
8.9523839999999999e-01,	 2.7293552499999996e-01,	 2.7186987254322160e-02,	 1.6004355555768736e+03,	 3.7559688360838493e+02,	 4.5454398217457555e+02,	 3.5552237088663182e+03,	 4.2787503017617149e+02,	 3.8420521537297314e+00 
8.9668870000000001e-01,	 2.7311954999999999e-01,	 2.7193849950403123e-02,	 1.6003220194292196e+03,	 3.7596282307255854e+02,	 4.5458786635346695e+02,	 3.5564644664498737e+03,	 4.2789568438337500e+02,	 3.8418038816671585e+00 
8.9812135000000004e-01,	 2.7330129999999997e-01,	 2.7200477993228788e-02,	 1.6002116021731190e+03,	 3.7631903624903629e+02,	 4.5463028324700639e+02,	 3.5576632238556185e+03,	 4.2791564706129304e+02,	 3.8415639409896079e+00 
8.9953639999999990e-01,	 2.7348074999999999e-01,	 2.7207037863530282e-02,	 1.6001015164226287e+03,	 3.7667453506838524e+02,	 4.5467230245334349e+02,	 3.5588501128159219e+03,	 4.2793542165735988e+02,	 3.8413262792868221e+00 
9.0093427500000001e-01,	 2.7365797500000000e-01,	 2.7213374429535843e-02,	 1.5999944355842842e+03,	 3.7702059517765144e+02,	 4.5471294350231886e+02,	 3.5599971583390502e+03,	 4.2795454681157707e+02,	 3.8410964402780863e+00 
9.0231494999999995e-01,	 2.7383299999999999e-01,	 2.7219651433964199e-02,	 1.5998876739258399e+03,	 3.7736592755226542e+02,	 4.5475321982443813e+02,	 3.5611337034752696e+03,	 4.2797349948684456e+02,	 3.8408686908886276e+00 
9.0367897500000005e-01,	 2.7400585000000000e-01,	 2.7225717926459506e-02,	 1.5997837884867022e+03,	 3.7770222370727504e+02,	 4.5479218628364629e+02,	 3.5622325907541735e+03,	 4.2799183498613939e+02,	 3.8406483738861898e+00 
9.0502632499999991e-01,	 2.7417654999999996e-01,	 2.7231716515868497e-02,	 1.5996802470961886e+03,	 3.7803766945382455e+02,	 4.5483080240144221e+02,	 3.5633199840887719e+03,	 4.2801000485888176e+02,	 3.8404300624965004e+00 
9.0635742499999994e-01,	 2.7434514999999998e-01,	 2.7237529055123093e-02,	 1.5995794341248338e+03,	 3.7836444000954498e+02,	 4.5486822166705031e+02,	 3.5643737850336411e+03,	 4.2802761084618010e+02,	 3.8402185408858434e+00 
9.0767229999999999e-01,	 2.7451167499999996e-01,	 2.7243280031062789e-02,	 1.5994789633634068e+03,	 3.7869030541482579e+02,	 4.5490532161688805e+02,	 3.5654171514224668e+03,	 4.2804506587859538e+02,	 3.8400088471405662e+00 
9.0897142499999994e-01,	 2.7467617500000002e-01,	 2.7248851015909559e-02,	 1.5993811234403026e+03,	 3.7900772517926526e+02,	 4.5494130629863491e+02,	 3.5664283396940837e+03,	 4.2806199551223483e+02,	 3.8398054787718947e+00 
9.1025477500000007e-01,	 2.7483859999999999e-01,	 2.7254371785118806e-02,	 1.5992835687918864e+03,	 3.7932426484821207e+02,	 4.5497705986027410e+02,	 3.5674312581986674e+03,	 4.2807881574821289e+02,	 3.8396034377790529e+00 
9.1152279999999997e-01,	 2.7499907499999998e-01,	 2.7259729835173906e-02,	 1.5991885853602901e+03,	 3.7963232720861106e+02,	 4.5501181704853150e+02,	 3.5684051756538424e+03,	 4.2809516660757600e+02,	 3.8394070474731192e+00 
9.1277550000000007e-01,	 2.7515757499999999e-01,	 2.7265054538350472e-02,	 1.5990938430380868e+03,	 3.7993939216222714e+02,	 4.5504646447097298e+02,	 3.5693739736930356e+03,	 4.2811146520816169e+02,	 3.8392112972455128e+00 
9.1401330000000003e-01,	 2.7531409999999995e-01,	 2.7270232041479808e-02,	 1.5990015547676578e+03,	 3.8023801647512329e+02,	 4.5508029971290273e+02,	 3.5703172339527641e+03,	 4.2812738114958125e+02,	 3.8390201547931464e+00 
9.1523619999999994e-01,	 2.7546874999999998e-01,	 2.7275403900943820e-02,	 1.5989095046031525e+03,	 3.8053502024607400e+02,	 4.5511427227449445e+02,	 3.5712609336071009e+03,	 4.2814336109026391e+02,	 3.8388282556137217e+00 
9.1644462500000001e-01,	 2.7562154999999999e-01,	 2.7280475127725828e-02,	 1.5988197349938669e+03,	 3.8082337362804816e+02,	 4.5514779935111875e+02,	 3.5721880608463503e+03,	 4.2815913089995229e+02,	 3.8386388915064820e+00 
9.1763855000000005e-01,	 2.7577245000000000e-01,	 2.7285590458887992e-02,	 1.5987301094909644e+03,	 3.8110930974574239e+02,	 4.5518192195392442e+02,	 3.5731257363134296e+03,	 4.2817518022520989e+02,	 3.8384461828640966e+00 
9.1881842499999999e-01,	 2.7592152500000000e-01,	 2.7290671118350523e-02,	 1.5986426110990317e+03,	 3.8138561471234817e+02,	 4.5521622624685511e+02,	 3.5740603980274032e+03,	 4.2819131440076598e+02,	 3.8382524674911926e+00 
9.1998425000000006e-01,	 2.7606880000000000e-01,	 2.7295898751842854e-02,	 1.5985551157380103e+03,	 3.8165768058643715e+02,	 4.5525204906668642e+02,	 3.5750263343581150e+03,	 4.2820816212901474e+02,	 3.8380501977670218e+00 
9.2113640000000008e-01,	 2.7621434999999994e-01,	 2.7301217703784887e-02,	 1.5984695257269059e+03,	 3.8191794907269036e+02,	 4.5528924079064740e+02,	 3.5760150915294785e+03,	 4.2822565296134150e+02,	 3.8378402210728879e+00 
9.2227490000000001e-01,	 2.7635812499999995e-01,	 2.7306876266447618e-02,	 1.5983836180608912e+03,	 3.8217060531386693e+02,	 4.5532975139913276e+02,	 3.5770745228201590e+03,	 4.2824470381335391e+02,	 3.8376115326120215e+00 
9.2340012500000002e-01,	 2.7650014999999994e-01,	 2.7312882259160381e-02,	 1.5982991577768641e+03,	 3.8240729788412477e+02,	 4.5537395660320499e+02,	 3.5782086329461958e+03,	 4.2826549114937109e+02,	 3.8373620184837702e+00 
9.2451207499999999e-01,	 2.7664047500000000e-01,	 2.7319596546283232e-02,	 1.5982138921531136e+03,	 3.8262941053587832e+02,	 4.5542491776925431e+02,	 3.5794887967635900e+03,	 4.2828945419986593e+02,	 3.8370744106356982e+00 
9.2561112499999998e-01,	 2.7677917499999999e-01,	 2.7327126797328433e-02,	 1.5981293699412295e+03,	 3.8282696643489180e+02,	 4.5548397943955047e+02,	 3.5809397640892803e+03,	 4.2831722460667902e+02,	 3.8367411397922746e+00 
9.2669727499999999e-01,	 2.7691619999999995e-01,	 2.7336076298885580e-02,	 1.5980429948339558e+03,	 3.8299694317202341e+02,	 4.5555642634136484e+02,	 3.5826822566013425e+03,	 4.2835128620218802e+02,	 3.8363324177882299e+00 
9.2777094999999998e-01,	 2.7705157499999999e-01,	 2.7346741232997296e-02,	 1.5979560193416542e+03,	 3.8312598431684603e+02,	 4.5564536635879546e+02,	 3.5847797427466912e+03,	 4.2839309848861012e+02,	 3.8358307651622447e+00 
9.2883212500000001e-01,	 2.7718537499999996e-01,	 2.7360168313650294e-02,	 1.5978653274735618e+03,	 3.8320219782157551e+02,	 4.5576028554056637e+02,	 3.5874444154236216e+03,	 4.2844711800054398e+02,	 3.8351827738458804e+00 
9.2988109999999990e-01,	 2.7731762500000001e-01,	 2.7377010168839883e-02,	 1.5977715123209905e+03,	 3.8320637867049606e+02,	 4.5590756281204523e+02,	 3.5908126897991810e+03,	 4.2851633796952939e+02,	 3.8343526435879798e+00 
9.3091792499999992e-01,	 2.7744829999999998e-01,	 2.7399118116343355e-02,	 1.5976703263710467e+03,	 3.8311112599402151e+02,	 4.5610436338218261e+02,	 3.5952636933308258e+03,	 4.2860881632214875e+02,	 3.8332439311470843e+00 
9.3194297500000001e-01,	 2.7757745000000000e-01,	 2.7427781865139771e-02,	 1.5975613680060187e+03,	 3.8288562693526160e+02,	 4.5636301111606684e+02,	 3.6010658352237183e+03,	 4.2873032687540802e+02,	 3.8317877583763256e+00 
9.3295622499999997e-01,	 2.7770507500000002e-01,	 2.7466340041222330e-02,	 1.5974382019572088e+03,	 3.8247472159108088e+02,	 4.5671457887505721e+02,	 3.6089062880389101e+03,	 4.2889543528554509e+02,	 3.8298102095453528e+00 
9.3395802499999991e-01,	 2.7783122500000001e-01,	 2.7517134712817744e-02,	 1.5972986513272881e+03,	 3.8182851728748608e+02,	 4.5718120832893584e+02,	 3.6192744635186723e+03,	 4.2911448253966199e+02,	 3.8271885688434555e+00 
9.3494837500000005e-01,	 2.7795592499999999e-01,	 2.7586128111721286e-02,	 1.5971322634574456e+03,	 3.8084330511760612e+02,	 4.5781824960876816e+02,	 3.6334048103110240e+03,	 4.2941334486546617e+02,	 3.8236152490555195e+00 
9.3592762499999993e-01,	 2.7807919999999997e-01,	 2.7677191436173136e-02,	 1.5969336712338877e+03,	 3.7944201523032416e+02,	 4.5866225160917998e+02,	 3.6521192839709684e+03,	 4.2980898095078322e+02,	 3.8188911998823576e+00 
9.3689580000000006e-01,	 2.7820099999999998e-01,	 2.7800396885457799e-02,	 1.5966851815994980e+03,	 3.7744683054101921e+02,	 4.5980618470535325e+02,	 3.6775259169962592e+03,	 4.3034463276482609e+02,	 3.8125067782265680e+00 
9.3785320000000005e-01,	 2.7832144999999997e-01,	 2.7961869096170353e-02,	 1.5963767802401217e+03,	 3.7474371878574652e+02,	 4.6130480367018788e+02,	 3.7109415395845558e+03,	 4.3104536060910345e+02,	 3.8041746586581326e+00 
9.3879982499999992e-01,	 2.7844052499999999e-01,	 2.8177106464369508e-02,	 1.5959784986982945e+03,	 3.7106271638386221e+02,	 4.6329937303974759e+02,	 3.7556753428588991e+03,	 4.3197622295096653e+02,	 3.7931406797430980e+00 
9.3973600000000002e-01,	 2.7855822499999999e-01,	 2.8453783996690744e-02,	 1.5954740883319162e+03,	 3.6627757228468647e+02,	 4.6585074039462097e+02,	 3.8134385965399574e+03,	 4.3316402603979645e+02,	 3.7791179714894070e+00 
9.4066169999999993e-01,	 2.7867459999999999e-01,	 2.8813716617357862e-02,	 1.5948170947704596e+03,	 3.6003021919614065e+02,	 4.6914467434375501e+02,	 3.8889826774656990e+03,	 4.3469273499009398e+02,	 3.7611637499364656e+00 
9.4157729999999995e-01,	 2.7878967499999996e-01,	 2.9262736177489874e-02,	 1.5939873923911762e+03,	 3.5227100740808606e+02,	 4.7320289049469466e+02,	 3.9837516663434199e+03,	 4.3656878587686987e+02,	 3.7392716527619183e+00 
9.4248277499999999e-01,	 2.7890345000000000e-01,	 2.9826996426375301e-02,	 1.5929238876063603e+03,	 3.4263185071105431e+02,	 4.7821197905706458e+02,	 4.1035517104234259e+03,	 4.3887335233383885e+02,	 3.7125896173491366e+00 
9.4337842500000002e-01,	 2.7901597499999997e-01,	 3.0504291287466120e-02,	 1.5916144164346942e+03,	 3.3128066205292345e+02,	 4.8408120755998510e+02,	 4.2482405513124713e+03,	 4.4155834634154007e+02,	 3.6817908455444659e+00 
9.4426425000000003e-01,	 2.7912722499999998e-01,	 3.1319108426541238e-02,	 1.5899940179523023e+03,	 3.1797808069466930e+02,	 4.9092991201859581e+02,	 4.4234265669098522e+03,	 4.4467092480754366e+02,	 3.6464674220420421e+00 
9.4514057499999993e-01,	 2.7923725000000005e-01,	 3.2254814144283724e-02,	 1.5880806228020306e+03,	 3.0320029917550579e+02,	 4.9850769627917083e+02,	 4.6259011573662565e+03,	 4.4808965795540348e+02,	 3.6081293345322694e+00 
9.4600739999999994e-01,	 2.7934605000000001e-01,	 3.3328863161780638e-02,	 1.5858198101906717e+03,	 2.8688470055037931e+02,	 5.0685149096814524e+02,	 4.8599428928954212e+03,	 4.5182405690031482e+02,	 3.5667877638694585e+00 
9.4686499999999996e-01,	 2.7945367500000001e-01,	 3.4507670599906219e-02,	 1.5832785677453348e+03,	 2.6974707218555346e+02,	 5.1558737547120813e+02,	 5.1185606780739636e+03,	 4.5570114938146867e+02,	 3.5244434518589363e+00 
9.4771340000000004e-01,	 2.7956012499999999e-01,	 3.5800119995111554e-02,	 1.5804185926439798e+03,	 2.5180772696902551e+02,	 5.2472629362915222e+02,	 5.4043970306155597e+03,	 4.5972211920599841e+02,	 3.4811314002971221e+00 
9.4855287499999996e-01,	 2.7966540000000001e-01,	 3.7154659566075637e-02,	 1.5773430018621707e+03,	 2.3386588769043487e+02,	 5.3387584497559669e+02,	 5.7066796758311630e+03,	 4.6371284106083533e+02,	 3.4387357019935099e+00 
9.4938342499999995e-01,	 2.7976955000000003e-01,	 3.8573908148350135e-02,	 1.5740177972364272e+03,	 2.1586472366336565e+02,	 5.4309925153883933e+02,	 6.0270220973461401e+03,	 4.6770131255601166e+02,	 3.3969349985608637e+00 
9.5020534999999995e-01,	 2.7987259999999997e-01,	 3.9997456758463133e-02,	 1.5705670555877109e+03,	 1.9852127008272612e+02,	 5.5205622376846600e+02,	 6.3525139205986216e+03,	 4.7154228293964167e+02,	 3.3572047283349646e+00 
9.5101862500000001e-01,	 2.7997452499999997e-01,	 4.1428818883740511e-02,	 1.5669758844905664e+03,	 1.8173462206406251e+02,	 5.6082084897114464e+02,	 6.6843108748861114e+03,	 4.7527072250257453e+02,	 3.3191173168757255e+00 
9.5182354999999996e-01,	 2.8007539999999997e-01,	 4.2814889621594576e-02,	 1.5633988737787472e+03,	 1.6610766777333222e+02,	 5.6908018642931347e+02,	 7.0096806285043858e+03,	 4.7875764180775332e+02,	 3.2839128998247391e+00 
9.5262015000000000e-01,	 2.8017517500000000e-01,	 4.4164733474783648e-02,	 1.5598369166220966e+03,	 1.5148865637729784e+02,	 5.7690983868820331e+02,	 7.3301607179864322e+03,	 4.8203986853873943e+02,	 3.2511331785829372e+00 
9.5340864999999997e-01,	 2.8027392499999998e-01,	 4.5437058612805455e-02,	 1.5564271989491001e+03,	 1.3823276433027868e+02,	 5.8409312846707030e+02,	 7.6352321064035132e+03,	 4.8503160124045985e+02,	 3.2215502049077247e+00 
8.5040440000000006e-01,	 2.6870982499999996e-01,	 2.6889649917306215e-02,	 1.6047665457863104e+03,	 3.6181317669420832e+02,	 4.5269804159898888e+02,	 3.5020609578220333e+03,	 4.2700532841352577e+02,	 3.8525244352351948e+00 
8.5241322500000005e-01,	 2.6895542499999997e-01,	 2.6903276526069289e-02,	 1.6045850482768872e+03,	 3.6237893689349460e+02,	 4.5278383244999702e+02,	 3.5044996757515805e+03,	 4.2704578740795461e+02,	 3.8520364727853931e+00 
8.5439687499999994e-01,	 2.6919787499999998e-01,	 2.6916395070619045e-02,	 1.6044090429066241e+03,	 3.6292839897238110e+02,	 4.5286639619012527e+02,	 3.5068478821752906e+03,	 4.2708472087654877e+02,	 3.8515669817777183e+00 
8.5635529999999993e-01,	 2.6943724999999996e-01,	 2.6929350621217346e-02,	 1.6042340098362572e+03,	 3.6347568955032136e+02,	 4.5294786412846793e+02,	 3.5091669823849661e+03,	 4.2712313413412994e+02,	 3.8511038336396015e+00 
8.5828922500000004e-01,	 2.6967354999999998e-01,	 2.6941830257400382e-02,	 1.6040641640789318e+03,	 3.6400756725307332e+02,	 4.5302631257174500e+02,	 3.5114012582050641e+03,	 4.2716012039338790e+02,	 3.8506579562486558e+00 
8.6019864999999995e-01,	 2.6990677499999999e-01,	 2.6954155588545504e-02,	 1.6038952337009375e+03,	 3.6453739304234654e+02,	 4.5310373620159032e+02,	 3.5136080359101024e+03,	 4.2719662034185603e+02,	 3.8502180043701455e+00 
8.6208419999999997e-01,	 2.7013704999999999e-01,	 2.6966026193405945e-02,	 1.6037313071568847e+03,	 3.6505224684985023e+02,	 4.5317831118616880e+02,	 3.5157339770894123e+03,	 4.2723177440049199e+02,	 3.8497943342480192e+00 
8.6394589999999993e-01,	 2.7036434999999998e-01,	 2.6977757838688523e-02,	 1.6035682003024185e+03,	 3.6556528522356962e+02,	 4.5325194994302973e+02,	 3.5178350412300515e+03,	 4.2726648429065790e+02,	 3.8493760740245406e+00 
8.6578437500000005e-01,	 2.7058877500000000e-01,	 2.6989061351309851e-02,	 1.6034098848350818e+03,	 3.6606392753351332e+02,	 4.5332290491548139e+02,	 3.5198599274585599e+03,	 4.2729992650224352e+02,	 3.8489731429793470e+00 
8.6759962499999999e-01,	 2.7081029999999995e-01,	 2.7000230743649319e-02,	 1.6032523305990958e+03,	 3.6656087692091734e+02,	 4.5339299230468941e+02,	 3.5218610415277576e+03,	 4.2733295723867701e+02,	 3.8485752210838755e+00 
8.6939224999999998e-01,	 2.7102899999999996e-01,	 2.7011000116310187e-02,	 1.6030993554306424e+03,	 3.6704400423169125e+02,	 4.5346055809510705e+02,	 3.5237908250634905e+03,	 4.2736479718096990e+02,	 3.8481916931046474e+00 
8.7116229999999995e-01,	 2.7124492499999997e-01,	 2.7021636568900557e-02,	 1.6029471192725005e+03,	 3.6752545607809668e+02,	 4.5352730393494596e+02,	 3.5256973100019350e+03,	 4.2739624839785733e+02,	 3.8478128941477179e+00 
8.7291037500000002e-01,	 2.7145812499999994e-01,	 2.7031902371434335e-02,	 1.6027992477898199e+03,	 3.6799367907824109e+02,	 4.5359168372295829e+02,	 3.5275374345206401e+03,	 4.2742658251800066e+02,	 3.8474475934161743e+00 
8.7463647500000008e-01,	 2.7166857499999997e-01,	 2.7042045055828683e-02,	 1.6026520563764634e+03,	 3.6846039313678079e+02,	 4.5365529381597253e+02,	 3.5293558826064645e+03,	 4.2745655186323262e+02,	 3.8470867278283811e+00 
8.7634120000000004e-01,	 2.7187637499999995e-01,	 2.7051827780211552e-02,	 1.6025090875963965e+03,	 3.6891425507653423e+02,	 4.5371665461560610e+02,	 3.5311102102131276e+03,	 4.2748545948243287e+02,	 3.8467386864934601e+00 
8.7802447500000003e-01,	 2.7208149999999998e-01,	 2.7061497306437650e-02,	 1.6023667234766349e+03,	 3.6936675940465517e+02,	 4.5377732632796904e+02,	 3.5328447404796057e+03,	 4.2751404054461256e+02,	 3.8463946152885522e+00 
8.7968695000000008e-01,	 2.7228405000000000e-01,	 2.7070833687426247e-02,	 1.6022284001808025e+03,	 3.6980691686624590e+02,	 4.5383587940654843e+02,	 3.5345196106622866e+03,	 4.2754162175493440e+02,	 3.8460626169798870e+00 
8.8132862500000009e-01,	 2.7248402500000002e-01,	 2.7080059644609231e-02,	 1.6020906627115153e+03,	 3.7024577465939268e+02,	 4.5389376687440932e+02,	 3.5361751903733675e+03,	 4.2756888768283801e+02,	 3.8457344487490235e+00 
8.8295002499999997e-01,	 2.7268147500000001e-01,	 2.7088963077412920e-02,	 1.6019568160242500e+03,	 3.7067268914264037e+02,	 4.5394965092505521e+02,	 3.5377733427838898e+03,	 4.2759520831961288e+02,	 3.8454176908769515e+00 
8.8455119999999998e-01,	 2.7287642499999998e-01,	 2.7097770447932830e-02,	 1.6018234880623297e+03,	 3.7109843859023596e+02,	 4.5400494036096302e+02,	 3.5393545988379938e+03,	 4.2762124730653380e+02,	 3.8451043544266157e+00 
8.8613267500000004e-01,	 2.7306889999999995e-01,	 2.7106275694942384e-02,	 1.6016938772145704e+03,	 3.7151276080672500e+02,	 4.5405833563416166e+02,	 3.5408818973980383e+03,	 4.2764639271795153e+02,	 3.8448018007824891e+00 
8.8769442499999995e-01,	 2.7325895000000000e-01,	 2.7114685692184590e-02,	 1.6015648044208010e+03,	 3.7192582634099909e+02,	 4.5411115211991699e+02,	 3.5423924984053269e+03,	 4.2767126410676462e+02,	 3.8445025733024094e+00 
8.8923702500000001e-01,	 2.7344662500000000e-01,	 2.7122805735240115e-02,	 1.6014392798269723e+03,	 3.7232795881459805e+02,	 4.5416218222048997e+02,	 3.5438515303230915e+03,	 4.2769529290944735e+02,	 3.8442135104317705e+00 
8.9076047499999988e-01,	 2.7363192500000000e-01,	 2.7130837752653934e-02,	 1.6013142541204450e+03,	 3.7272890108619436e+02,	 4.5421268326703517e+02,	 3.5452951685265298e+03,	 4.2771907126478021e+02,	 3.8439274869688895e+00 
8.9226527499999997e-01,	 2.7381492499999999e-01,	 2.7138605162185869e-02,	 1.6011926297262678e+03,	 3.7311931829786033e+02,	 4.5426150059861612e+02,	 3.5466913131358174e+03,	 4.2774205558852657e+02,	 3.8436510398105854e+00 
8.9375145000000011e-01,	 2.7399557499999999e-01,	 2.7146279145293748e-02,	 1.6010714774367432e+03,	 3.7350865913571755e+02,	 4.5430980045895791e+02,	 3.5480714235436631e+03,	 4.2776479505948987e+02,	 3.8433775619410513e+00 
8.9521950000000006e-01,	 2.7417399999999997e-01,	 2.7153697877794199e-02,	 1.6009536409719344e+03,	 3.7388766693191997e+02,	 4.5435650011380937e+02,	 3.5494058812129861e+03,	 4.2778678000779513e+02,	 3.8431131813568462e+00 
8.9666939999999995e-01,	 2.7435019999999999e-01,	 2.7161039526940763e-02,	 1.6008362123875793e+03,	 3.7426573998634012e+02,	 4.5440274229775963e+02,	 3.5507268865093674e+03,	 4.2780854847778471e+02,	 3.8428514262796862e+00 
8.9810164999999997e-01,	 2.7452422499999996e-01,	 2.7168131180482790e-02,	 1.6007219891680818e+03,	 3.7463381190051439e+02,	 4.5444745427515926e+02,	 3.5520034419881745e+03,	 4.2782959555106783e+02,	 3.8425983666807038e+00 
8.9951629999999994e-01,	 2.7469605000000002e-01,	 2.7175157334625572e-02,	 1.6006081053097819e+03,	 3.7500111789077681e+02,	 4.5449176454966295e+02,	 3.5532684750174458e+03,	 4.2785045251105714e+02,	 3.8423476133126040e+00 
9.0091382500000006e-01,	 2.7486572500000001e-01,	 2.7181943893287461e-02,	 1.6004973226336567e+03,	 3.7535870948032016e+02,	 4.5453462002148910e+02,	 3.5544909793366801e+03,	 4.2787062372452044e+02,	 3.8421051236671819e+00 
9.0229417499999998e-01,	 2.7503329999999998e-01,	 2.7188668774580753e-02,	 1.6003868964267413e+03,	 3.7571540005629004e+02,	 4.5457710594511786e+02,	 3.5557026942940638e+03,	 4.2789062006041041e+02,	 3.8418647550691056e+00 
9.0365784999999998e-01,	 2.7519882499999998e-01,	 2.7195172578474477e-02,	 1.6002794191923776e+03,	 3.7606277311609040e+02,	 4.5461824660391164e+02,	 3.5568751335173329e+03,	 4.2790998234624828e+02,	 3.8416320259353864e+00 
9.0500487500000004e-01,	 2.7536224999999998e-01,	 2.7201617738471639e-02,	 1.6001722719474694e+03,	 3.7640926971224053e+02,	 4.5465905918539892e+02,	 3.5580374884847538e+03,	 4.2792918936138580e+02,	 3.8414011803940822e+00 
9.0633570000000008e-01,	 2.7552367500000002e-01,	 2.7207854085143368e-02,	 1.6000679999800989e+03,	 3.7674653282426101e+02,	 4.5469862693968344e+02,	 3.5591629351527176e+03,	 4.2794780971910097e+02,	 3.8411774022096785e+00 
9.0765030000000002e-01,	 2.7568310000000001e-01,	 2.7214042043021237e-02,	 1.5999640068907706e+03,	 3.7708286036791833e+02,	 4.5473797816723709e+02,	 3.5602804980760761e+03,	 4.2796632737706739e+02,	 3.8409548743036659e+00 
9.0894914999999998e-01,	 2.7584057499999998e-01,	 2.7220050808172070e-02,	 1.5998627440650714e+03,	 3.7741010998796145e+02,	 4.5477627089425323e+02,	 3.5613664670193043e+03,	 4.2798434616321038e+02,	 3.8407383567257480e+00 
9.1023224999999996e-01,	 2.7599609999999997e-01,	 2.7226033396860728e-02,	 1.5997617309743555e+03,	 3.7773613377689378e+02,	 4.5481451017006930e+02,	 3.5624487245687847e+03,	 4.2800233904069239e+02,	 3.8405221655802837e+00 
9.1150002499999994e-01,	 2.7614974999999997e-01,	 2.7231855883491991e-02,	 1.5996633596021129e+03,	 3.7805287452142602e+02,	 4.5485192234797739e+02,	 3.5635036832538153e+03,	 4.2801994200851698e+02,	 3.8403106739534540e+00 
9.1275249999999997e-01,	 2.7630149999999998e-01,	 2.7237688017052262e-02,	 1.5995651469952654e+03,	 3.7836785436300761e+02,	 4.5488963475958553e+02,	 3.5645623824196668e+03,	 4.2803768550795962e+02,	 3.8400975085232929e+00 
9.1399010000000003e-01,	 2.7645137500000000e-01,	 2.7243426515277995e-02,	 1.5994693739316749e+03,	 3.7867309658477990e+02,	 4.5492702598831363e+02,	 3.5656064358298968e+03,	 4.2805527716635328e+02,	 3.8398861817572172e+00 
9.1521279999999994e-01,	 2.7659944999999997e-01,	 2.7249236202493286e-02,	 1.5993737308443447e+03,	 3.7897506728030510e+02,	 4.5496534042829541e+02,	 3.5666671680931877e+03,	 4.2807330242313344e+02,	 3.8396696611804964e+00 
9.1642105000000007e-01,	 2.7674575000000001e-01,	 2.7255049004104918e-02,	 1.5992802773375572e+03,	 3.7926598804284936e+02,	 4.5500423965776668e+02,	 3.5677330215059419e+03,	 4.2809160202117891e+02,	 3.8394498606876555e+00 
9.1761482500000002e-01,	 2.7689022499999999e-01,	 2.7261076318738236e-02,	 1.5991866967287540e+03,	 3.7955118751467484e+02,	 4.5504540462297530e+02,	 3.5688448573330797e+03,	 4.2811096665100462e+02,	 3.8392172848568724e+00 
9.1879455000000010e-01,	 2.7703295000000000e-01,	 2.7267299686230366e-02,	 1.5990949510580331e+03,	 3.7982221565408429e+02,	 4.5508891171696382e+02,	 3.5700008773405530e+03,	 4.2813143210202207e+02,	 3.8389715067755863e+00 
9.1996022500000008e-01,	 2.7717397500000002e-01,	 2.7274010815429441e-02,	 1.5990027045637994e+03,	 3.8008228952997410e+02,	 4.5513726774872498e+02,	 3.5712589674275982e+03,	 4.2815417731364573e+02,	 3.8386983729961384e+00 
9.2111222500000001e-01,	 2.7731332499999994e-01,	 2.7281272897851230e-02,	 1.5989116971678743e+03,	 3.8032182198490574e+02,	 4.5519133939425916e+02,	 3.5726342535319509e+03,	 4.2817960954584169e+02,	 3.8383930009106577e+00 
9.2225060000000003e-01,	 2.7745097499999999e-01,	 2.7289570062993557e-02,	 1.5988193255369308e+03,	 3.8054056644020591e+02,	 4.5525536846612994e+02,	 3.5742235075615899e+03,	 4.2820972323274515e+02,	 3.8380314562046389e+00 
9.2337572499999998e-01,	 2.7758695000000000e-01,	 2.7299106538285774e-02,	 1.5987271033223731e+03,	 3.8072612569006702e+02,	 4.5533165241624187e+02,	 3.5760716545162391e+03,	 4.2824559778048064e+02,	 3.8376008017501673e+00 
9.2448759999999996e-01,	 2.7772129999999995e-01,	 2.7310722128414042e-02,	 1.5986320079475217e+03,	 3.8087118186791844e+02,	 4.5542777640076167e+02,	 3.5783485066850994e+03,	 4.2829079835096422e+02,	 3.8370582787396108e+00 
9.2558657499999997e-01,	 2.7785409999999999e-01,	 2.7324914369741195e-02,	 1.5985350140544138e+03,	 3.8095851460991440e+02,	 4.5554872509047146e+02,	 3.5811588265351579e+03,	 4.2834766551496165e+02,	 3.8363758616496311e+00 
9.2667265000000010e-01,	 2.7798529999999999e-01,	 2.7343177904798857e-02,	 1.5984321028929398e+03,	 3.8096828008192858e+02,	 4.5570840053254631e+02,	 3.5848084950130697e+03,	 4.2842272950556588e+02,	 3.8354753093599236e+00 