TITLE = "Final State"
VARIABLES = "X", "Y", "rho", "u", "v", "T", "p", "c", "M"
ZONE I=82, J=27, DATAPACKING=POINT
8.4940000000000004e-01,	 2.2769999999999999e-01,	 2.7706729343051871e-02,	 1.5862097868888789e+03,	 4.2428510144205399e+02,	 4.5841794362905750e+02,	 3.6540695426841767e+03,	 4.1086652401839967e+02,	 3.9963689491631418e+00 
8.5143709999999995e-01,	 2.2824580000000000e-01,	 2.7706561606518139e-02,	 1.5862134647782532e+03,	 4.2428371049523525e+02,	 4.5841816268927948e+02,	 3.6540491670759884e+03,	 4.1086662218700587e+02,	 3.9963757670579563e+00 
8.5347430000000002e-01,	 2.2879159999999998e-01,	 2.7706809586623644e-02,	 1.5862130824298260e+03,	 4.2428818433493120e+02,	 4.5842206803186832e+02,	 3.6541130014046253e+03,	 4.1086837230472719e+02,	 3.9963606589247416e+00 
8.5545939999999998e-01,	 2.2932349999999999e-01,	 2.7707737581901377e-02,	 1.5862086043175032e+03,	 4.2430250550465399e+02,	 4.5843044681624991e+02,	 3.6543021801641880e+03,	 4.1087212709971919e+02,	 3.9963226157663825e+00 
8.5744460000000000e-01,	 2.2985539999999999e-01,	 2.7708000513449287e-02,	 1.5862092395517716e+03,	 4.2430690540283240e+02,	 4.5843434712574583e+02,	 3.6543679484936611e+03,	 4.1087387493852600e+02,	 3.9963098763616247e+00 
8.5937909999999995e-01,	 2.3037369999999999e-01,	 2.7708105752993602e-02,	 1.5862105817422866e+03,	 4.2430925032764981e+02,	 4.5843712847122953e+02,	 3.6544039997125819e+03,	 4.1087512133342454e+02,	 3.9963023840122185e+00 
8.6131360000000001e-01,	 2.3089199999999999e-01,	 2.7708194765359746e-02,	 1.5862125752011661e+03,	 4.2431217901956984e+02,	 4.5843984466323514e+02,	 3.6544373915262900e+03,	 4.1087633852766720e+02,	 3.9962970741116526e+00 
8.6319889999999999e-01,	 2.3139709999999999e-01,	 2.7708204789147272e-02,	 1.5862152514136392e+03,	 4.2431443161669756e+02,	 4.5844197006657305e+02,	 3.6544556561503691e+03,	 4.1087729097207119e+02,	 3.9962955193067846e+00 
8.6508419999999997e-01,	 2.3190220000000000e-01,	 2.7708686437704105e-02,	 1.5862146387437492e+03,	 4.2432409057254699e+02,	 4.5844714995162440e+02,	 3.6545604731428616e+03,	 4.1087961219401922e+02,	 3.9962775770676000e+00 
8.6692159999999996e-01,	 2.3239449999999998e-01,	 2.7709594386646982e-02,	 1.5862110261164767e+03,	 4.2433991418792380e+02,	 4.5845515645214266e+02,	 3.6547440513209217e+03,	 4.1088320005956189e+02,	 3.9962441398511679e+00 
8.6875899999999995e-01,	 2.3288679999999998e-01,	 2.7710118347065764e-02,	 1.5862101061530254e+03,	 4.2435009918222090e+02,	 4.5846060847713511e+02,	 3.6548566224825518e+03,	 4.1088564319798468e+02,	 3.9962246211662307e+00 
8.7054980000000004e-01,	 2.3336659999999998e-01,	 2.7710327556931584e-02,	 1.5862113044302923e+03,	 4.2435617094210886e+02,	 4.5846397815620372e+02,	 3.6549110797964936e+03,	 4.1088715319707921e+02,	 3.9962165713806796e+00 
8.7234060000000002e-01,	 2.3384639999999998e-01,	 2.7710922290083699e-02,	 1.5862097994178041e+03,	 4.2436841416486050e+02,	 4.5846986583236651e+02,	 3.6550364613853449e+03,	 4.1088979153165502e+02,	 3.9961950739823200e+00 
8.7408609999999998e-01,	 2.3431410000000000e-01,	 2.7711918450213674e-02,	 1.5862056622731857e+03,	 4.2438593456314209e+02,	 4.5847809023684283e+02,	 3.6552334230443907e+03,	 4.1089347695237456e+02,	 3.9961605247374203e+00 
8.7583160000000004e-01,	 2.3478179999999998e-01,	 2.7711618283982824e-02,	 1.5862097952841577e+03,	 4.2438796373212529e+02,	 4.5847913246510387e+02,	 3.6552021398917595e+03,	 4.1089394398074478e+02,	 3.9961669758322405e+00 
8.7753300000000001e-01,	 2.3523759999999999e-01,	 2.7711429469729324e-02,	 1.5862143898377001e+03,	 4.2438729009536513e+02,	 4.5847883239779117e+02,	 3.6551748427658399e+03,	 4.1089380951894162e+02,	 3.9961786617431283e+00 
8.7923439999999997e-01,	 2.3569350000000000e-01,	 2.7712497520592655e-02,	 1.5862103933032365e+03,	 4.2440772936589309e+02,	 4.5848770684381941e+02,	 3.6553864734376843e+03,	 4.1089778618812784e+02,	 3.9961434475712916e+00 
8.8089300000000004e-01,	 2.3613789999999998e-01,	 2.7712026707211092e-02,	 1.5862173099751217e+03,	 4.2440469711315313e+02,	 4.5848614675144188e+02,	 3.6553119333745635e+03,	 4.1089708710826164e+02,	 3.9961646001361615e+00 
8.8255150000000004e-01,	 2.3658219999999999e-01,	 2.7711086894556800e-02,	 1.5862276276722555e+03,	 4.2439694792960478e+02,	 4.5848177596818118e+02,	 3.6551531236584342e+03,	 4.1089512854702360e+02,	 3.9962030307874232e+00 
8.8416839999999997e-01,	 2.3701539999999999e-01,	 2.7711633053569960e-02,	 1.5862274271681672e+03,	 4.2441106416893933e+02,	 4.5848716074196273e+02,	 3.6552680930945689e+03,	 4.1089754147915590e+02,	 3.9961879717666360e+00 
8.8578520000000005e-01,	 2.3744859999999998e-01,	 2.7712993364952435e-02,	 1.5862215717703948e+03,	 4.2443596319906703e+02,	 4.5849778911594501e+02,	 3.6555322616449630e+03,	 4.1090230404156131e+02,	 3.9961435507062943e+00 
8.8736150000000003e-01,	 2.3787100000000000e-01,	 2.7713547964220375e-02,	 1.5862211151082929e+03,	 4.2444956211515091e+02,	 4.5850379182133003e+02,	 3.6556532766627952e+03,	 4.1090499382268871e+02,	 3.9961248730363810e+00 
8.8893780000000000e-01,	 2.3829329999999999e-01,	 2.7713000317300202e-02,	 1.5862293157045426e+03,	 4.2444432523140540e+02,	 4.5850119414723474e+02,	 3.6555603265037980e+03,	 4.1090382982057037e+02,	 3.9961521779982037e+00 
8.9047469999999995e-01,	 2.3870509999999998e-01,	 2.7713576414541079e-02,	 1.5862292159153096e+03,	 4.2445763274668570e+02,	 4.5850641718239194e+02,	 3.6556779615424825e+03,	 4.1090617022781987e+02,	 3.9961375538502781e+00 
8.9201160000000002e-01,	 2.3911689999999999e-01,	 2.7713563313758738e-02,	 1.5862331811923475e+03,	 4.2446365668909687e+02,	 4.5850794037111285e+02,	 3.6556883778265442e+03,	 4.1090685275602510e+02,	 3.9961440278097982e+00 
8.9351020000000003e-01,	 2.3951839999999999e-01,	 2.7713145132819396e-02,	 1.5862400743141288e+03,	 4.2446391696391453e+02,	 4.5850694952469127e+02,	 3.6556253157867254e+03,	 4.1090640876610831e+02,	 3.9961647146785388e+00 
8.9500869999999999e-01,	 2.3991989999999999e-01,	 2.7712995693269536e-02,	 1.5862452890504410e+03,	 4.2446862919067189e+02,	 4.5850732515088373e+02,	 3.6556085981101764e+03,	 4.1090657708109057e+02,	 3.9961783016631967e+00 
8.9646999999999999e-01,	 2.4031139999999998e-01,	 2.7712379775956204e-02,	 1.5862539639088623e+03,	 4.2446659239229524e+02,	 4.5850458248051132e+02,	 3.6555054863344831e+03,	 4.1090534811165179e+02,	 3.9962093664631402e+00 
8.9793129999999999e-01,	 2.4070290000000000e-01,	 2.7712325503510896e-02,	 1.5862589744632437e+03,	 4.2447230060895862e+02,	 4.5850553416163939e+02,	 3.6555059147480615e+03,	 4.1090577455304106e+02,	 3.9962205896296816e+00 
8.9935630000000000e-01,	 2.4108469999999999e-01,	 2.7712428460978756e-02,	 1.5862624053264699e+03,	 4.2448163479126015e+02,	 4.5850814190258160e+02,	 3.6555402864606690e+03,	 4.1090694306051620e+02,	 3.9962231632796557e+00 
9.0078139999999995e-01,	 2.4146650000000000e-01,	 2.7712730035795212e-02,	 1.5862647078991915e+03,	 4.2449250561078600e+02,	 4.5851164634583324e+02,	 3.6556080072486152e+03,	 4.1090851336775893e+02,	 3.9962201435834670e+00 
9.0217119999999995e-01,	 2.4183890000000000e-01,	 2.7713932417755306e-02,	 1.5862606083354417e+03,	 4.2451592875631098e+02,	 4.5852111677240794e+02,	 3.6558421232094151e+03,	 4.1091275694460330e+02,	 3.9961839723529540e+00 
9.0356099999999995e-01,	 2.4221129999999999e-01,	 2.7714227947395434e-02,	 1.5862628912495086e+03,	 4.2452563530120369e+02,	 4.5852460994033851e+02,	 3.6559089592924415e+03,	 4.1091432217734672e+02,	 3.9961802239697430e+00 
9.0491659999999996e-01,	 2.4257450000000000e-01,	 2.7713679425014185e-02,	 1.5862710874791721e+03,	 4.2452332970270959e+02,	 4.5852248355967959e+02,	 3.6558196475029222e+03,	 4.1091336938085419e+02,	 3.9962073077301010e+00 
9.0627219999999997e-01,	 2.4293769999999998e-01,	 2.7713510408681179e-02,	 1.5862766550770195e+03,	 4.2452791513478053e+02,	 4.5852285241801485e+02,	 3.6558002928041624e+03,	 4.1091353466041659e+02,	 3.9962216739798304e+00 
9.0759449999999997e-01,	 2.4329199999999998e-01,	 2.7712610778899152e-02,	 1.5862870368836961e+03,	 4.2452385682638180e+02,	 4.5851787277909170e+02,	 3.6556419176858340e+03,	 4.1091130335768435e+02,	 3.9962652271187951e+00 
9.0891679999999997e-01,	 2.4364619999999998e-01,	 2.7712390177382747e-02,	 1.5862946357503488e+03,	 4.2452297165208915e+02,	 4.5851713891917439e+02,	 3.6556069667464462e+03,	 4.1091097452485837e+02,	 3.9962857323164456e+00 
9.1020679999999998e-01,	 2.4399189999999998e-01,	 2.7713483928562835e-02,	 1.5862902842447697e+03,	 4.2455145716787399e+02,	 4.5852774022618837e+02,	 3.6558357701372083e+03,	 4.1091572480336180e+02,	 3.9962472264257620e+00 
9.1149680000000000e-01,	 2.4433749999999999e-01,	 2.7712977640857291e-02,	 1.5862990517795065e+03,	 4.2454921307112897e+02,	 4.5852553817099800e+02,	 3.6557514263468101e+03,	 4.1091473810167332e+02,	 3.9962760216241042e+00 
9.1275530000000005e-01,	 2.4467469999999999e-01,	 2.7712896845754783e-02,	 1.5863042200794719e+03,	 4.2455488772265863e+02,	 4.5852604093341836e+02,	 3.6557447767118001e+03,	 4.1091496338076297e+02,	 3.9962895509810479e+00 
9.1401390000000005e-01,	 2.4501189999999998e-01,	 2.7712313639900784e-02,	 1.5863131733184823e+03,	 4.2455336784773829e+02,	 4.5852347137803338e+02,	 3.6556473569870068e+03,	 4.1091381200642223e+02,	 3.9963208400765642e+00 
9.1524190000000005e-01,	 2.4534090000000000e-01,	 2.7711588857982052e-02,	 1.5863232614343751e+03,	 4.2455002205860501e+02,	 4.5851955348344637e+02,	 3.6555205127815011e+03,	 4.1091205645786329e+02,	 3.9963595244475347e+00 
9.1647000000000001e-01,	 2.4566990000000000e-01,	 2.7711352813860064e-02,	 1.5863299061942830e+03,	 4.2455420021721960e+02,	 4.5851960534518992e+02,	 3.6554897889400440e+03,	 4.1091207969636525e+02,	 3.9963775481997628e+00 
9.1766840000000005e-01,	 2.4599099999999999e-01,	 2.7712403631410237e-02,	 1.5863274682384490e+03,	 4.2457674035477294e+02,	 4.5852780335025341e+02,	 3.6556937655563129e+03,	 4.1091575308809547e+02,	 3.9963502730583071e+00 
9.1886679999999998e-01,	 2.4631209999999998e-01,	 2.7713265482387929e-02,	 1.5863267857958378e+03,	 4.2459444226607570e+02,	 4.5853419242103371e+02,	 3.6558583965800526e+03,	 4.1091861590324726e+02,	 3.9963319648587556e+00 
9.2003639999999998e-01,	 2.4662550000000000e-01,	 2.7712971742190118e-02,	 1.5863333867285023e+03,	 4.2459714671257950e+02,	 4.5853327272771583e+02,	 3.6558123146068469e+03,	 4.1091820380824868e+02,	 3.9963531919474593e+00 
9.2120590000000002e-01,	 2.4693879999999999e-01,	 2.7711966209089257e-02,	 1.5863455256721516e+03,	 4.2458813945616504e+02,	 4.5852807921166772e+02,	 3.6556382621198427e+03,	 4.1091587669650369e+02,	 3.9963986934111384e+00 
9.2234760000000005e-01,	 2.4724469999999998e-01,	 2.7712648474500196e-02,	 1.5863452506304923e+03,	 4.2460607224240408e+02,	 4.5853397995507726e+02,	 3.6557753086450771e+03,	 4.1091852070181159e+02,	 3.9963836160717210e+00 
9.2348920000000001e-01,	 2.4755059999999998e-01,	 2.7713516387863714e-02,	 1.5863440319027727e+03,	 4.2462566008216811e+02,	 4.5854083092420160e+02,	 3.6559444241083843e+03,	 4.1092159046294773e+02,	 3.9963632217666127e+00 
9.2460359999999997e-01,	 2.4784919999999999e-01,	 2.7713271027087177e-02,	 1.5863505792289411e+03,	 4.2462848853411384e+02,	 4.5854029062003070e+02,	 3.6559077485102380e+03,	 4.1092134836595261e+02,	 3.9963827474775919e+00 
9.2571809999999999e-01,	 2.4814780000000000e-01,	 2.7712042114911788e-02,	 1.5863640166747573e+03,	 4.2461750646013883e+02,	 4.5853324032312594e+02,	 3.6556894226098116e+03,	 4.1091818928843418e+02,	 3.9964381495891352e+00 
9.2680620000000002e-01,	 2.4843930000000000e-01,	 2.7710714439741529e-02,	 1.5863782340260327e+03,	 4.2460599358243280e+02,	 4.5852552693012086e+02,	 3.6554527870487700e+03,	 4.1091473306483050e+02,	 3.9964979422861564e+00 
9.2789429999999995e-01,	 2.4873080000000000e-01,	 2.7710747643273730e-02,	 1.5863829321750140e+03,	 4.2461515293811811e+02,	 4.5852679887532389e+02,	 3.6554673072868413e+03,	 4.1091530300110492e+02,	 3.9965092070656150e+00 
9.2895680000000003e-01,	 2.4901550000000000e-01,	 2.7712073887921698e-02,	 1.5863787129306379e+03,	 4.2464248317015267e+02,	 4.5853661466782467e+02,	 3.6557205162479272e+03,	 4.1091970125849519e+02,	 3.9964737093910148e+00 
9.3001929999999999e-01,	 2.4930020000000000e-01,	 2.7712384330097543e-02,	 1.5863815913332710e+03,	 4.2465356219943499e+02,	 4.5853955029679241e+02,	 3.6557848739526839e+03,	 4.1092101664510676e+02,	 3.9964746546141656e+00 
9.3105689999999997e-01,	 2.4957820000000000e-01,	 2.7711356784910421e-02,	 1.5863930980162909e+03,	 4.2464651943646788e+02,	 4.5853468191545073e+02,	 3.6556105088477811e+03,	 4.1091883523510734e+02,	 3.9965184885102985e+00 
9.3209460000000000e-01,	 2.4985620000000000e-01,	 2.7711672018400101e-02,	 1.5863973754239846e+03,	 4.2465220464920196e+02,	 4.5853659905124209e+02,	 3.6556673779339872e+03,	 4.1091969426105891e+02,	 3.9965237666542821e+00 
9.3310810000000000e-01,	 2.5012780000000001e-01,	 2.7711909530597195e-02,	 1.5863994468691135e+03,	 4.2466433030575234e+02,	 4.5853956039864397e+02,	 3.6557223195030670e+03,	 4.1092102117150267e+02,	 3.9965233613450515e+00 
9.3412160000000000e-01,	 2.5039929999999999e-01,	 2.7710427095727980e-02,	 1.5864148904836893e+03,	 4.2465169292186090e+02,	 4.5853075159125626e+02,	 3.6554565336878095e+03,	 4.1091707413854840e+02,	 3.9965901022763894e+00 
9.3511180000000005e-01,	 2.5066460000000002e-01,	 2.7710388152033617e-02,	 1.5864199423846460e+03,	 4.2465848710495027e+02,	 4.5853149664706814e+02,	 3.6554573360372401e+03,	 4.1091740798314754e+02,	 3.9966030067534777e+00 
9.3610199999999999e-01,	 2.5092989999999998e-01,	 2.7710545208557820e-02,	 1.5864238914906086e+03,	 4.2466793714954292e+02,	 4.5853351601659710e+02,	 3.6554941530837286e+03,	 4.1091831282085781e+02,	 3.9966094365674900e+00 
9.3706940000000005e-01,	 2.5118910000000000e-01,	 2.7710447795745885e-02,	 1.5864307983556332e+03,	 4.2467358478653841e+02,	 4.5853388125157335e+02,	 3.6554842143649607e+03,	 4.1091847647488208e+02,	 3.9966276355226631e+00 
9.3803689999999995e-01,	 2.5144830000000001e-01,	 2.7711186699380701e-02,	 1.5864281358588782e+03,	 4.2468938598437313e+02,	 4.5853940974429219e+02,	 3.6556257633985233e+03,	 4.1092095366691802e+02,	 3.9966072269746871e+00 
9.3898239999999999e-01,	 2.5170169999999997e-01,	 2.7712137919128289e-02,	 1.5864270479924767e+03,	 4.2471204865623014e+02,	 4.5854615485313832e+02,	 3.6558050231950524e+03,	 4.1092397597678695e+02,	 3.9965895370241413e+00 
9.3992790000000004e-01,	 2.5195499999999998e-01,	 2.7710863501281435e-02,	 1.5864411775650694e+03,	 4.2469848761550492e+02,	 4.5853954660630427e+02,	 3.6555842185975330e+03,	 4.1092101499148805e+02,	 3.9966430164889335e+00 
9.4085200000000002e-01,	 2.5220260000000000e-01,	 2.7710342417502726e-02,	 1.5864494593020140e+03,	 4.2469636788391870e+02,	 4.5853707940935442e+02,	 3.6554958091443168e+03,	 4.1091990949857467e+02,	 3.9966719032291227e+00 
9.4177619999999995e-01,	 2.5245020000000001e-01,	 2.7710019577065509e-02,	 1.5864564924289321e+03,	 4.2470058295910297e+02,	 4.5853590155781905e+02,	 3.6554438308250233e+03,	 4.1091938172996134e+02,	 3.9966962224072997e+00 
9.4267970000000001e-01,	 2.5269229999999998e-01,	 2.7709404294422771e-02,	 1.5864656916062263e+03,	 4.2469434824687261e+02,	 4.5853277959166451e+02,	 3.6553377763826320e+03,	 4.1091798284431110e+02,	 3.9967275301787022e+00 
9.4358319999999996e-01,	 2.5293430000000000e-01,	 2.7707759710946814e-02,	 1.5864822511885789e+03,	 4.2468076329569658e+02,	 4.5852285639593754e+02,	 3.6550417269143486e+03,	 4.1091353644286022e+02,	 3.9968011576011340e+00 
9.4446660000000004e-01,	 2.5317099999999998e-01,	 2.7708411343986595e-02,	 1.5864822692625801e+03,	 4.2469817232567596e+02,	 4.5852812350868680e+02,	 3.6551696733780946e+03,	 4.1091589654517685e+02,	 3.9967891998282172e+00 
9.4535009999999997e-01,	 2.5340770000000001e-01,	 2.7708640284386236e-02,	 1.5864860453703113e+03,	 4.2470776913166532e+02,	 4.5853010133579642e+02,	 3.6552156406054828e+03,	 4.1091678277186816e+02,	 3.9967954962180627e+00 
9.4621409999999995e-01,	 2.5363920000000001e-01,	 2.7708754822004557e-02,	 1.5864897696618898e+03,	 4.2471702930591130e+02,	 4.5853218625740669e+02,	 3.6552473701774456e+03,	 4.1091771698349794e+02,	 3.9968009922946766e+00 
9.4707819999999998e-01,	 2.5387070000000000e-01,	 2.7708795654768553e-02,	 1.5864943295997268e+03,	 4.2472394869526426e+02,	 4.5853334385269739e+02,	 3.6552619846317398e+03,	 4.1091823567785366e+02,	 3.9968110212660042e+00 
9.4792350000000003e-01,	 2.5409719999999997e-01,	 2.7710183621463845e-02,	 1.5864885306992178e+03,	 4.2474992591383432e+02,	 4.5854341015781620e+02,	 3.6555253300371724e+03,	 4.1092274615205679e+02,	 3.9967698673355145e+00 
9.4876870000000002e-01,	 2.5432369999999999e-01,	 2.7710827467949034e-02,	 1.5864889516333387e+03,	 4.2476534600922901e+02,	 4.5854815168303281e+02,	 3.6556480667126812e+03,	 4.1092487070066329e+02,	 3.9967598978987846e+00 
9.4959579999999999e-01,	 2.5454529999999997e-01,	 2.7709848055517825e-02,	 1.5865005851444701e+03,	 4.2475484198790480e+02,	 4.5854291900786529e+02,	 3.6554771467844384e+03,	 4.1092252608048210e+02,	 3.9968034389091747e+00 
9.5042289999999996e-01,	 2.5476689999999996e-01,	 2.7709389466795038e-02,	 1.5865081632032948e+03,	 4.2475373804295941e+02,	 4.5854088902321860e+02,	 3.6554004672093338e+03,	 4.1092161649567817e+02,	 3.9968294053514599e+00 
9.5123239999999998e-01,	 2.5498379999999998e-01,	 2.7709543812163971e-02,	 1.5865114316355816e+03,	 4.2476240801820938e+02,	 4.5854249527977095e+02,	 3.6554336331688442e+03,	 4.1092233621880081e+02,	 3.9968355448947097e+00 
9.5204190000000000e-01,	 2.5520070000000000e-01,	 2.7709201408344285e-02,	 1.5865182579066382e+03,	 4.2476412042666527e+02,	 4.5854105838811199e+02,	 3.6553770088245665e+03,	 4.1092169238388249e+02,	 3.9968589318329792e+00 
9.5283430000000002e-01,	 2.5541300000000000e-01,	 2.7707882320444834e-02,	 1.5865319797553234e+03,	 4.2475165249142611e+02,	 4.5853315708389891e+02,	 3.6551400114775361e+03,	 4.1091815199068674e+02,	 3.9969177781335472e+00 
9.5362680000000000e-01,	 2.5562530000000000e-01,	 2.7706569791023813e-02,	 1.5865457019632313e+03,	 4.2473999188991388e+02,	 4.5852526696870621e+02,	 3.6549039744748675e+03,	 4.1091461658059552e+02,	 3.9969770862725134e+00 
9.5440280000000000e-01,	 2.5583319999999998e-01,	 2.7706235109072549e-02,	 1.5865519859416358e+03,	 4.2474242285863136e+02,	 4.5852358960763411e+02,	 3.6548464549238679e+03,	 4.1091386498317894e+02,	 3.9970006994866574e+00 
8.4940000000000004e-01,	 2.2918680000000000e-01,	 2.7703476818561272e-02,	 1.5866498560957295e+03,	 4.2234720381973978e+02,	 4.5846223734683190e+02,	 3.6539936130227652e+03,	 4.1088637311737818e+02,	 3.9959947548917039e+00 
8.5143610000000003e-01,	 2.2972170000000000e-01,	 2.7703600593335549e-02,	 1.5866485516449088e+03,	 4.2236188523625970e+02,	 4.5846424225633609e+02,	 3.6540259179081067e+03,	 4.1088727154371173e+02,	 3.9959921408264152e+00 
8.5347220000000001e-01,	 2.3025659999999998e-01,	 2.7703614473754183e-02,	 1.5866462939803282e+03,	 4.2237787690454502e+02,	 4.5846654774486308e+02,	 3.6540461237799382e+03,	 4.1088830466103281e+02,	 3.9959867956924313e+00 
8.5545640000000001e-01,	 2.3077779999999998e-01,	 2.7704066007476224e-02,	 1.5866413609465890e+03,	 4.2240000558703446e+02,	 4.5847125063600521e+02,	 3.6541431634379337e+03,	 4.1089041207543681e+02,	 3.9959685536493219e+00 
8.5744060000000000e-01,	 2.3129909999999998e-01,	 2.7704529449841801e-02,	 1.5866370323311212e+03,	 4.2242274893167581e+02,	 4.5847595133845135e+02,	 3.6542417576292119e+03,	 4.1089251849826229e+02,	 3.9959521285331228e+00 
8.5937419999999998e-01,	 2.3180699999999999e-01,	 2.7704821366521040e-02,	 1.5866338329486584e+03,	 4.2244321127746309e+02,	 4.5847991183493929e+02,	 3.6543118287074385e+03,	 4.1089429322042304e+02,	 3.9959401575807423e+00 
8.6130779999999996e-01,	 2.3231499999999999e-01,	 2.7705020503475886e-02,	 1.5866316209469685e+03,	 4.2246280962873902e+02,	 4.5848316453492924e+02,	 3.6543640210168746e+03,	 4.1089575076900746e+02,	 3.9959330529126449e+00 
8.6319219999999997e-01,	 2.3280999999999999e-01,	 2.7705081913655658e-02,	 1.5866304318998748e+03,	 4.2248056414430908e+02,	 4.5848516751940770e+02,	 3.6543880861066123e+03,	 4.1089664831222802e+02,	 3.9959326459513389e+00 
8.6507659999999997e-01,	 2.3330499999999998e-01,	 2.7705194733686177e-02,	 1.5866287016668452e+03,	 4.2249901907556989e+02,	 4.5848764488550421e+02,	 3.6544227135262058e+03,	 4.1089775842453128e+02,	 3.9959293381313952e+00 
8.6691320000000005e-01,	 2.3378739999999998e-01,	 2.7705653228868133e-02,	 1.5866246386216430e+03,	 4.2252227364352666e+02,	 4.5849210735451413e+02,	 3.6545187599749343e+03,	 4.1089975805753346e+02,	 3.9959149001159595e+00 
8.6874980000000002e-01,	 2.3426989999999998e-01,	 2.7706230440687280e-02,	 1.5866201640184288e+03,	 4.2254748493779903e+02,	 4.5849700685500522e+02,	 3.6546339506253266e+03,	 4.1090195351319755e+02,	 3.9958988163827378e+00 
8.7053990000000003e-01,	 2.3474009999999998e-01,	 2.7706630722166309e-02,	 1.5866170340344138e+03,	 4.2257029386711406e+02,	 4.5850108367277812e+02,	 3.6547192467617501e+03,	 4.1090378031755853e+02,	 3.9958879762099970e+00 
8.7232989999999999e-01,	 2.3521029999999998e-01,	 2.7706984761965973e-02,	 1.5866140313619110e+03,	 4.2259237353372271e+02,	 4.5850492960228411e+02,	 3.6547966037096639e+03,	 4.1090550365444386e+02,	 3.9958779856942708e+00 
8.7407469999999998e-01,	 2.3566859999999998e-01,	 2.7707675550603848e-02,	 1.5866087703965372e+03,	 4.2261903392322500e+02,	 4.5851089513380606e+02,	 3.6549352779845763e+03,	 4.1090817675739561e+02,	 3.9958563186519753e+00 
8.7581949999999997e-01,	 2.3612690000000000e-01,	 2.7708161002573561e-02,	 1.5866053542057202e+03,	 4.2264462668583315e+02,	 4.5851626739367896e+02,	 3.6550421389625430e+03,	 4.1091058400558393e+02,	 3.9958409076466754e+00 
8.7752030000000003e-01,	 2.3657370000000000e-01,	 2.7708151392592719e-02,	 1.5866058103436026e+03,	 4.2266028255175689e+02,	 4.5851764704367258e+02,	 3.6550518691047077e+03,	 4.1091120220868646e+02,	 3.9958457761426254e+00 
8.7922100000000003e-01,	 2.3702039999999999e-01,	 2.7708585485649504e-02,	 1.5866029050545690e+03,	 4.2268364511642852e+02,	 4.5852210383117495e+02,	 3.6551446590391774e+03,	 4.1091319923047206e+02,	 3.9958341602547565e+00 
8.8087899999999997e-01,	 2.3745590000000000e-01,	 2.7708948333903680e-02,	 1.5866015154509591e+03,	 4.2270575278386372e+02,	 4.5852547799735288e+02,	 3.6552194215099939e+03,	 4.1091471113890202e+02,	 3.9958300406617360e+00 
8.8253689999999996e-01,	 2.3789140000000000e-01,	 2.7708600203428448e-02,	 1.5866052537606840e+03,	 4.2271821312931058e+02,	 4.5852446370588740e+02,	 3.6551654124522911e+03,	 4.1091425665214496e+02,	 3.9958510577256701e+00 
8.8415319999999997e-01,	 2.3831590000000000e-01,	 2.7708356810935829e-02,	 1.5866075704128652e+03,	 4.2273110446375665e+02,	 4.5852421136078044e+02,	 3.6551312938876572e+03,	 4.1091414358051571e+02,	 3.9958656818952947e+00 
8.8576949999999999e-01,	 2.3874049999999999e-01,	 2.7708727929738601e-02,	 1.5866053038129071e+03,	 4.2275239848764619e+02,	 4.5852844187734172e+02,	 3.6552139738678538e+03,	 4.1091603920024193e+02,	 3.9958552602179873e+00 
8.8734519999999995e-01,	 2.3915429999999999e-01,	 2.7709522712269480e-02,	 1.5866006911117993e+03,	 4.2278127810342471e+02,	 4.5853557964798688e+02,	 3.6553757193158858e+03,	 4.1091923748933380e+02,	 3.9958314081871809e+00 
8.8892099999999996e-01,	 2.3956819999999998e-01,	 2.7709722167618883e-02,	 1.5866012458019109e+03,	 4.2280045478157416e+02,	 4.5853757557547021e+02,	 3.6554179423452520e+03,	 4.1092013181917798e+02,	 3.9958360324628113e+00 
8.9045739999999995e-01,	 2.3997179999999999e-01,	 2.7709926564594013e-02,	 1.5866009816293963e+03,	 4.2282038855884338e+02,	 4.5854017073593036e+02,	 3.6554655945606505e+03,	 4.1092129464881975e+02,	 3.9958365951964776e+00 
8.9199379999999995e-01,	 2.4037529999999999e-01,	 2.7710177964482829e-02,	 1.5866006028084516e+03,	 4.2284176121913981e+02,	 4.5854302436060112e+02,	 3.6555215081793681e+03,	 4.1092257328632485e+02,	 3.9958366644917631e+00 
8.9349190000000001e-01,	 2.4076879999999998e-01,	 2.7710127029639868e-02,	 1.5866026115221744e+03,	 4.2285838768208009e+02,	 4.5854381806423993e+02,	 3.6555211162867549e+03,	 4.1092292892427292e+02,	 3.9958483494254495e+00 
8.9498999999999995e-01,	 2.4116230000000000e-01,	 2.7710094242369265e-02,	 1.5866046723617828e+03,	 4.2287526544153809e+02,	 4.5854464673499217e+02,	 3.6555233971617745e+03,	 4.1092330022974619e+02,	 3.9958601624113572e+00 
8.9645090000000005e-01,	 2.4154599999999998e-01,	 2.7709823868203066e-02,	 1.5866086129244027e+03,	 4.2288852127880750e+02,	 4.5854390816292943e+02,	 3.6554818414781566e+03,	 4.1092296929513179e+02,	 3.9958809544645688e+00 
8.9791169999999998e-01,	 2.4192959999999999e-01,	 2.7709532033290522e-02,	 1.5866127185356208e+03,	 4.2290072456455317e+02,	 4.5854304646745857e+02,	 3.6554364732895228e+03,	 4.1092258319183662e+02,	 3.9959020116321167e+00 
8.9933640000000004e-01,	 2.4230379999999999e-01,	 2.7709404524336661e-02,	 1.5866154675236123e+03,	 4.2291564500254634e+02,	 4.5854359454095078e+02,	 3.6554240214709725e+03,	 4.1092282876933433e+02,	 3.9959154394097034e+00 
9.0076109999999998e-01,	 2.4267799999999998e-01,	 2.7709292915414217e-02,	 1.5866181451580990e+03,	 4.2292996234622365e+02,	 4.5854402641692445e+02,	 3.6554127408452882e+03,	 4.1092302228163845e+02,	 3.9959288279422402e+00 
9.0215049999999997e-01,	 2.4304289999999998e-01,	 2.7709705605065801e-02,	 1.5866169070442782e+03,	 4.2295175904366471e+02,	 4.5854796879086359e+02,	 3.6554986111174271e+03,	 4.1092478875185577e+02,	 3.9959224015100299e+00 
9.0354000000000001e-01,	 2.4340779999999998e-01,	 2.7710336659068080e-02,	 1.5866147457358902e+03,	 4.2297728026255874e+02,	 4.5855333713720552e+02,	 3.6556246574368711e+03,	 4.1092719414919708e+02,	 3.9959099267408078e+00 
9.0489529999999996e-01,	 2.4376380000000000e-01,	 2.7710524651658318e-02,	 1.5866160305809690e+03,	 4.2299670005813209e+02,	 4.5855577599026145e+02,	 3.6556689008097333e+03,	 4.1092828692252300e+02,	 3.9959144954124968e+00 
9.0625060000000002e-01,	 2.4411970000000000e-01,	 2.7710519415417124e-02,	 1.5866185318603050e+03,	 4.2301362275327301e+02,	 4.5855688824262080e+02,	 3.6556770770516973e+03,	 4.1092878528684793e+02,	 3.9959261395011714e+00 
9.0757259999999995e-01,	 2.4446689999999999e-01,	 2.7710347706038023e-02,	 1.5866223378705631e+03,	 4.2302893644239424e+02,	 4.5855667178011578e+02,	 3.6556526988401065e+03,	 4.1092868829704469e+02,	 3.9959456324206206e+00 
9.0889470000000006e-01,	 2.4481409999999998e-01,	 2.7709730195953415e-02,	 1.5866296440506808e+03,	 4.2303387374998317e+02,	 4.5855324455309767e+02,	 3.6555439130646678e+03,	 4.1092715266511391e+02,	 3.9959808401961339e+00 
9.1018440000000000e-01,	 2.4515279999999998e-01,	 2.7709838217738748e-02,	 1.5866302647954910e+03,	 4.2305341497389321e+02,	 4.5855608551147350e+02,	 3.6555808115408813e+03,	 4.1092842560903250e+02,	 3.9959821726276310e+00 
9.1147409999999995e-01,	 2.4549150000000000e-01,	 2.7709951122237092e-02,	 1.5866325965769847e+03,	 4.2306986653735805e+02,	 4.5855780410545219e+02,	 3.6556094068864422e+03,	 4.1092919565492059e+02,	 3.9959904819712357e+00 
9.1273249999999995e-01,	 2.4582199999999998e-01,	 2.7709977955150716e-02,	 1.5866352958258758e+03,	 4.2308623172808791e+02,	 4.5855894383915188e+02,	 3.6556220327260253e+03,	 4.1092970633160877e+02,	 3.9960021236979588e+00 
9.1399079999999999e-01,	 2.4615250000000000e-01,	 2.7709845697190677e-02,	 1.5866394086076243e+03,	 4.2310022417002131e+02,	 4.5855909907932556e+02,	 3.6556058222402926e+03,	 4.1092977588950794e+02,	 3.9960198912490430e+00 
9.1521870000000005e-01,	 2.4647490000000000e-01,	 2.7709497389240712e-02,	 1.5866451534836551e+03,	 4.2311098115647968e+02,	 4.5855760465311596e+02,	 3.6555479585827507e+03,	 4.1092910628691044e+02,	 3.9960466557783336e+00 
9.1644650000000005e-01,	 2.4679730000000000e-01,	 2.7708891548531879e-02,	 1.5866523044875728e+03,	 4.2311752602621004e+02,	 4.5855473790572660e+02,	 3.6554451808956678e+03,	 4.1092782178985721e+02,	 3.9960800651720181e+00 
9.1764469999999998e-01,	 2.4711200000000000e-01,	 2.7708810408499207e-02,	 1.5866552768987490e+03,	 4.2313093785529134e+02,	 4.5855515281395878e+02,	 3.6554377841443911e+03,	 4.1092800769710385e+02,	 3.9960936563446494e+00 
9.1884299999999997e-01,	 2.4742670000000000e-01,	 2.7709230133344927e-02,	 1.5866551005302772e+03,	 4.2315130704575790e+02,	 4.5855862669292230e+02,	 3.6555208485732433e+03,	 4.1092956422901619e+02,	 3.9960908780164623e+00 
9.2001239999999995e-01,	 2.4773379999999998e-01,	 2.7709719964202243e-02,	 1.5866548676711200e+03,	 4.2317425958663455e+02,	 4.5856271998766272e+02,	 3.6556181005210433e+03,	 4.1093139829337827e+02,	 3.9960868886519876e+00 
9.2118180000000005e-01,	 2.4804089999999998e-01,	 2.7709472031115449e-02,	 1.5866602286708862e+03,	 4.2318589062902561e+02,	 4.5856214476639889e+02,	 3.6555808062618044e+03,	 4.1093114055704024e+02,	 3.9961092944043637e+00 
9.2232329999999996e-01,	 2.4834059999999999e-01,	 2.7709238743873654e-02,	 1.5866643586243747e+03,	 4.2319789109280555e+02,	 4.5856160414407128e+02,	 3.6555457200545225e+03,	 4.1093089832311654e+02,	 3.9961288866951983e+00 
9.2346479999999997e-01,	 2.4864039999999998e-01,	 2.7709557504541980e-02,	 1.5866646609668287e+03,	 4.2321739966717632e+02,	 4.5856459783844491e+02,	 3.6556116379113000e+03,	 4.1093223969088405e+02,	 3.9961287882822560e+00 
9.2457920000000005e-01,	 2.4893299999999999e-01,	 2.7709973425373423e-02,	 1.5866648773825959e+03,	 4.2323877017006140e+02,	 4.5856822606703736e+02,	 3.6556954328467696e+03,	 4.1093386536495427e+02,	 3.9961268914062975e+00 
9.2569360000000001e-01,	 2.4922559999999999e-01,	 2.7709963686689029e-02,	 1.5866687920009713e+03,	 4.2325433207001100e+02,	 4.5856899310643729e+02,	 3.6557002628691739e+03,	 4.1093420904591142e+02,	 3.9961425140682665e+00 