TITLE = "Final State"
VARIABLES = "X", "Y", "rho", "u", "v", "T", "p", "c", "M"
ZONE I=51, J=48, DATAPACKING=POINT
1.5288200000000001e+00,	 4.6940589999999999e-01,	 2.5780664210639952e-02,	 6.3748933410872212e+02,	 -2.8819354543255272e+01,	 6.0438908074568531e+02,	 4.4827100548133631e+03,	 4.7176775986605247e+02,	 1.3526579869177164e+00 
1.5362890000000000e+00,	 4.6940359999999998e-01,	 2.5814384815345027e-02,	 6.3720563846967229e+02,	 -2.7328291904479968e+01,	 6.0465200150510850e+02,	 4.4905259667991995e+03,	 4.7187036268839580e+02,	 1.3516241824621782e+00 
1.5437570000000000e+00,	 4.6940120000000002e-01,	 2.5852950074169045e-02,	 6.3685959813823479e+02,	 -2.5729583712301277e+01,	 6.0495374267033185e+02,	 4.4994788309118348e+03,	 4.7198808739098376e+02,	 1.3504136016455077e+00 
1.5512260000000000e+00,	 4.6939880000000000e-01,	 2.5887242042667777e-02,	 6.3660332103778455e+02,	 -2.4187867816182283e+01,	 6.0520610878826119e+02,	 4.5073265659694243e+03,	 4.7208652581111170e+02,	 1.3494616598254383e+00 
1.5586949999999999e+00,	 4.6939639999999999e-01,	 2.5917017398607276e-02,	 6.3642385433038589e+02,	 -2.2707190246179003e+01,	 6.0540822158383776e+02,	 4.5140178513290284e+03,	 4.7216534752269638e+02,	 1.3487411088951300e+00 
1.5661630000000000e+00,	 4.6939389999999998e-01,	 2.5942068952215788e-02,	 6.3631071395396623e+02,	 -2.1293427424415746e+01,	 6.0556070162726724e+02,	 4.5195191435174747e+03,	 4.7222480431352602e+02,	 1.3482284048508646e+00 
1.5736310000000000e+00,	 4.6939130000000001e-01,	 2.5961790690391437e-02,	 6.3625232779728822e+02,	 -1.9949041257771636e+01,	 6.0566267826838407e+02,	 4.5237166498098159e+03,	 4.7226456405360619e+02,	 1.3478991233351094e+00 
1.5810999999999999e+00,	 4.6938879999999999e-01,	 2.5975874268489067e-02,	 6.3624031052579176e+02,	 -1.8663989771609629e+01,	 6.0571878155774732e+02,	 4.5265899101117211e+03,	 4.7228643677491806e+02,	 1.3477287391911716e+00 
1.5885680000000000e+00,	 4.6938619999999998e-01,	 2.5985921802986534e-02,	 6.3624255461360656e+02,	 -1.7427757957209582e+01,	 6.0574997577904276e+02,	 4.5285740139867685e+03,	 4.7229859787871447e+02,	 1.3476245760135503e+00 
1.5960369999999999e+00,	 4.6938350000000001e-01,	 2.5992379145269879e-02,	 6.3627735980127568e+02,	 -1.6244520992470321e+01,	 6.0576449572897718e+02,	 4.5298079146836453e+03,	 4.7230425839144630e+02,	 1.3476158231034026e+00 
1.6035050000000000e+00,	 4.6938079999999999e-01,	 2.5995317485517946e-02,	 6.3635739302369996e+02,	 -1.5118123919124024e+01,	 6.0575609837661943e+02,	 4.5302571912247577e+03,	 4.7230098474380702e+02,	 1.3477358105140849e+00 
1.6109730000000000e+00,	 4.6937820000000002e-01,	 2.5993704040741281e-02,	 6.3648228156654250e+02,	 -1.4035974555559690e+01,	 6.0572325494725055e+02,	 4.5297304025839740e+03,	 4.7228818075030102e+02,	 1.3479842441674963e+00 
1.6184410000000000e+00,	 4.6937540000000000e-01,	 2.5986730702499013e-02,	 6.3667689433702503e+02,	 -1.2971608383998996e+01,	 6.0564367153458761e+02,	 4.5279202281128410e+03,	 4.7225715375939802e+02,	 1.3484370048330026e+00 
1.6259090000000000e+00,	 4.6937269999999998e-01,	 2.5972776082676344e-02,	 6.3696087160722959e+02,	 -1.1925364040395177e+01,	 6.0550915103159912e+02,	 4.5244836156169931e+03,	 4.7220470394374456e+02,	 1.3491447491897428e+00 
1.6333780000000000e+00,	 4.6936990000000001e-01,	 2.5952574334651628e-02,	 6.3732662754949047e+02,	 -1.0896801715383067e+01,	 6.0532174798183564e+02,	 4.5195652275487801e+03,	 4.7213162540349339e+02,	 1.3500891306935963e+00 
1.6408460000000000e+00,	 4.6936719999999998e-01,	 2.5928191860869587e-02,	 6.3774188172356230e+02,	 -9.8976086446396412e+00,	 6.0508588190026080e+02,	 4.5135596783069732e+03,	 4.7203963243701719e+02,	 1.3511973096866889e+00 
1.6483140000000001e+00,	 4.6936440000000001e-01,	 2.5902651622129000e-02,	 6.3817473136456670e+02,	 -8.9302339091612843e+00,	 6.0480766819122346e+02,	 4.5070403983680799e+03,	 4.7193109991276265e+02,	 1.3523948953333700e+00 
1.6557820000000001e+00,	 4.6936149999999999e-01,	 2.5876531810379050e-02,	 6.3863069808648549e+02,	 -8.0039653645429549e+00,	 6.0450246272237655e+02,	 4.5002234677047109e+03,	 4.7181200905456711e+02,	 1.3536765507274040e+00 
1.6632499999999999e+00,	 4.6935870000000002e-01,	 2.5848845472813402e-02,	 6.3912335471577035e+02,	 -7.1268666500078126e+00,	 6.0418438292069209e+02,	 4.4930430843213226e+03,	 4.7168786264792834e+02,	 1.3550551963524278e+00 
1.6707179999999999e+00,	 4.6935589999999999e-01,	 2.5818929057513776e-02,	 6.3965319832648913e+02,	 -6.2899174285653388e+00,	 6.0385248620115010e+02,	 4.4853777091190514e+03,	 4.7155828866006033e+02,	 1.3565324549718112e+00 
1.6781860000000000e+00,	 4.6935300000000002e-01,	 2.5786082260739127e-02,	 6.4021638975546739e+02,	 -5.4791258285613873e+00,	 6.0350042082887478e+02,	 4.4770596272210569e+03,	 4.7142080181190715e+02,	 1.3581068817999993e+00 
1.6856540000000000e+00,	 4.6935020000000000e-01,	 2.5750031055375707e-02,	 6.4080426250367827e+02,	 -4.6860208120786524e+00,	 6.0312621781107111e+02,	 4.4680281662077996e+03,	 4.7127462590665721e+02,	 1.3597621446645103e+00 
1.6931220000000000e+00,	 4.6934730000000002e-01,	 2.5710946411588720e-02,	 6.4141244035911927e+02,	 -3.9058479586182351e+00,	 6.0273267691532567e+02,	 4.4583354058005079e+03,	 4.7112084706483881e+02,	 1.3614857768974931e+00 
1.7005900000000000e+00,	 4.6934439999999999e-01,	 2.5669194902831947e-02,	 6.4204090959691200e+02,	 -3.1390698574381828e+00,	 6.0232308498177679e+02,	 4.4480708226181714e+03,	 4.7096074284256269e+02,	 1.3632741010523504e+00 
1.7080580000000001e+00,	 4.6934150000000002e-01,	 2.5625185437683773e-02,	 6.4269157438297668e+02,	 -2.3868850388474021e+00,	 6.0190059595336493e+02,	 4.4373299967150997e+03,	 4.7079554026616677e+02,	 1.3651276439813889e+00 
1.7155260000000001e+00,	 4.6933849999999999e-01,	 2.5579176317380419e-02,	 6.4336634540075420e+02,	 -1.6495481351136807e+00,	 6.0146731205364199e+02,	 4.4261744073196742e+03,	 4.7062605642369289e+02,	 1.3670481081128907e+00 
1.7229939999999999e+00,	 4.6933560000000002e-01,	 2.5531221517030443e-02,	 6.4406481015130134e+02,	 -9.2721702374422321e-01,	 6.0102344611816875e+02,	 4.4146161270517550e+03,	 4.7045236998681918e+02,	 1.3690343989449196e+00 
1.7304619999999999e+00,	 4.6933269999999999e-01,	 2.5481276668351115e-02,	 6.4478218857472962e+02,	 -2.2127305504736142e-01,	 6.0056743665617364e+02,	 4.4026372263530338e+03,	 4.7027386493744336e+02,	 1.3710781623558359e+00 
1.7379300000000000e+00,	 4.6932970000000002e-01,	 2.5429369478047789e-02,	 6.4551200389405324e+02,	 4.6456448916546411e-01,	 6.0009726381192775e+02,	 4.3902290183431942e+03,	 4.7008974465401849e+02,	 1.3731679501727385e+00 
1.7453980000000000e+00,	 4.6932679999999999e-01,	 2.5375602402807694e-02,	 6.4625249688772180e+02,	 1.1267967098489455e+00,	 5.9961054905326955e+02,	 4.3773932438928732e+03,	 4.6989907054018528e+02,	 1.3753027399638333e+00 
1.7528660000000000e+00,	 4.6932380000000001e-01,	 2.5320235030888559e-02,	 6.4700501443979942e+02,	 1.7650262419578522e+00,	 5.9910685326978523e+02,	 4.3641729956712588e+03,	 4.6970166248247472e+02,	 1.3774859099004497e+00 
1.7603340000000001e+00,	 4.6932089999999999e-01,	 2.5263615280029836e-02,	 6.4777109986428604e+02,	 2.3821462298001430e+00,	 5.9858939466979814e+02,	 4.3506530860162738e+03,	 4.6949877407628469e+02,	 1.3797170849625806e+00 
1.7678020000000001e+00,	 4.6931790000000001e-01,	 2.5206083638770638e-02,	 6.4855283355093013e+02,	 2.9817723525073356e+00,	 5.9806378870515346e+02,	 4.3369340515264621e+03,	 4.6929260140354910e+02,	 1.3819942740217004e+00 
1.7752699999999999e+00,	 4.6931499999999998e-01,	 2.5147847966303427e-02,	 6.4935084847210271e+02,	 3.5654173724761700e+00,	 5.9753479557864910e+02,	 4.3230868820062233e+03,	 4.6908500859749563e+02,	 1.3843133438257447e+00 
1.7827379999999999e+00,	 4.6931200000000001e-01,	 2.5088887500251577e-02,	 6.5016119250105396e+02,	 4.1326008025889678e+00,	 5.9700419366676806e+02,	 4.3091213392797117e+03,	 4.6887669212532342e+02,	 1.3866637801653692e+00 
1.7902060000000000e+00,	 4.6930899999999998e-01,	 2.5029128828587495e-02,	 6.5097742011598029e+02,	 4.6832292807932081e+00,	 5.9647181803912395e+02,	 4.2950240519356967e+03,	 4.6866758622643437e+02,	 1.3890319812105028e+00 
1.7976740000000000e+00,	 4.6930600000000000e-01,	 2.4968731960927172e-02,	 6.5179652449694731e+02,	 5.2193382451751642e+00,	 5.9593909964389525e+02,	 4.2808331904299839e+03,	 4.6845825226684184e+02,	 1.3914098390709413e+00 
1.8051420000000000e+00,	 4.6930300000000003e-01,	 2.4908225968632337e-02,	 6.5262390475196639e+02,	 5.7454512880780824e+00,	 5.9541082454973821e+02,	 4.2666739896686813e+03,	 4.6825057190502594e+02,	 1.3938033048945206e+00 
1.8126100000000001e+00,	 4.6929999999999999e-01,	 2.4848269369554685e-02,	 6.5346931110397156e+02,	 6.2653547960337761e+00,	 5.9489291239851650e+02,	 4.2527012871063262e+03,	 4.6804687606111725e+02,	 1.3962262743891392e+00 
1.8200769999999999e+00,	 4.6929700000000002e-01,	 2.4789029846097606e-02,	 6.5433555989790125e+02,	 6.7804960433404418e+00,	 5.9438660720768030e+02,	 4.2389518466137370e+03,	 4.6784765952913170e+02,	 1.3986832610585589e+00 
1.8275450000000000e+00,	 4.6929399999999999e-01,	 2.4729900783009011e-02,	 6.5521336845152268e+02,	 7.2905375590175252e+00,	 5.9388558756903251e+02,	 4.2252761413634535e+03,	 4.6765043916907570e+02,	 1.4011617932958482e+00 
1.8350130000000000e+00,	 4.6929100000000001e-01,	 2.4670063436897448e-02,	 6.5609032242035084e+02,	 7.7950904348986008e+00,	 5.9338110501991707e+02,	 4.2114719911275088e+03,	 4.6745177160297129e+02,	 1.4036456119399199e+00 
1.8424810000000000e+00,	 4.6928799999999998e-01,	 2.4609276937787292e-02,	 6.5696503368206072e+02,	 8.2950888885024057e+00,	 5.9286964863922992e+02,	 4.1974739419144826e+03,	 4.6725027147969701e+02,	 1.4061359407636855e+00 
1.8499490000000001e+00,	 4.6928500000000001e-01,	 2.4547970944385485e-02,	 6.5784779800607657e+02,	 8.7935484056062450e+00,	 5.9235406120167863e+02,	 4.1833760756038500e+03,	 4.6704705584044950e+02,	 1.4086515683636620e+00 
1.8574170000000001e+00,	 4.6928199999999998e-01,	 2.4486512398966889e-02,	 6.5874661351139650e+02,	 9.2946455873486720e+00,	 5.9183661339119567e+02,	 4.1692573161342734e+03,	 4.6684301800795356e+02,	 1.4112071010194365e+00 
1.8648849999999999e+00,	 4.6927890000000000e-01,	 2.4424545542066640e-02,	 6.5965527636080242e+02,	 9.8036593875890574e+00,	 5.9131255791948388e+02,	 4.1550239510356432e+03,	 4.6663628373823269e+02,	 1.4137951661751045e+00 
1.8723529999999999e+00,	 4.6927590000000002e-01,	 2.4361215460106559e-02,	 6.6055751935188039e+02,	 1.0324497228712254e+01,	 5.9077233768976157e+02,	 4.1404642775220427e+03,	 4.6642307672990034e+02,	 1.4163926126275310e+00 
1.8798210000000000e+00,	 4.6927289999999999e-01,	 2.4295892008285046e-02,	 6.6144049289479040e+02,	 1.0857731524174945e+01,	 5.9020898342280464e+02,	 4.1254241017282075e+03,	 4.6620063562591469e+02,	 1.4189804832866011e+00 
1.8872880000000001e+00,	 4.6926990000000002e-01,	 2.4228618488173675e-02,	 6.6230309842658789e+02,	 1.1400209613311150e+01,	 5.8962241573225128e+02,	 4.1099124890651665e+03,	 4.6596891583307735e+02,	 1.4215566413107521e+00 
1.8947560000000001e+00,	 4.6926679999999998e-01,	 2.4159954850901760e-02,	 6.6315336699380123e+02,	 1.1946852714521345e+01,	 5.8901803660609312e+02,	 4.0940642085294089e+03,	 4.6573003915268049e+02,	 1.4241318254900395e+00 
1.9022239999999999e+00,	 4.6926380000000001e-01,	 2.4104972083349947e-02,	 6.6375016066320347e+02,	 1.2440136932248887e+01,	 5.8853573548339921e+02,	 4.0814023326847455e+03,	 4.6553932502592187e+02,	 1.4260164340471599e+00 
1.5288120000000001e+00,	 4.7515259999999998e-01,	 2.5744992956082902e-02,	 6.3946069875649266e+02,	 -2.9455820731917438e+01,	 6.0277150084886716e+02,	 4.4645267083681956e+03,	 4.7113602001847551e+02,	 1.3587132625981284e+00 
1.5362800000000001e+00,	 4.7515049999999998e-01,	 2.5781998777348630e-02,	 6.3915648718474529e+02,	 -2.7923222693368388e+01,	 6.0304711953481024e+02,	 4.4729883632391929e+03,	 4.7124372173458903e+02,	 1.3576120305080825e+00 
1.5437490000000000e+00,	 4.7514830000000002e-01,	 2.5825155760629694e-02,	 6.3877178616327592e+02,	 -2.6267148762678687e+01,	 6.0336776396597133e+02,	 4.4828580851876068e+03,	 4.7136898690051027e+02,	 1.3562869979316377e+00 
1.5512180000000000e+00,	 4.7514600000000001e-01,	 2.5863359182982076e-02,	 6.3847241502912254e+02,	 -2.4667400576331318e+01,	 6.0364094926939254e+02,	 4.4915223188370555e+03,	 4.7147568509923639e+02,	 1.3552103966567515e+00 
1.5586860000000000e+00,	 4.7514370000000000e-01,	 2.5896155625974193e-02,	 6.3824551755674452e+02,	 -2.3128714653788791e+01,	 6.0386621779121731e+02,	 4.4988961500978539e+03,	 4.7156365024128201e+02,	 1.3543547057609646e+00 
1.5661550000000000e+00,	 4.7514129999999999e-01,	 2.5923342857218180e-02,	 6.3808279809298142e+02,	 -2.1657950539594207e+01,	 6.0404418906214801e+02,	 4.5049466480173660e+03,	 4.7163313467096617e+02,	 1.3537010122524162e+00 
1.5736230000000000e+00,	 4.7513889999999998e-01,	 2.5944746872368914e-02,	 6.3797591277940319e+02,	 -2.0256579509226874e+01,	 6.0417519422668784e+02,	 4.5096440679520056e+03,	 4.7168427581910822e+02,	 1.3532302243134455e+00 
1.5810919999999999e+00,	 4.7513650000000002e-01,	 2.5960602952394128e-02,	 6.3791597305465029e+02,	 -1.8918338476901166e+01,	 6.0426345593025655e+02,	 4.5130593276071158e+03,	 4.7171872786032560e+02,	 1.3529173198237006e+00 
1.5885600000000000e+00,	 4.7513400000000000e-01,	 2.5972522660121979e-02,	 6.3788103599885244e+02,	 -1.7635349933521326e+01,	 6.0432603071319716e+02,	 4.5155990474095161e+03,	 4.7174315175405525e+02,	 1.3526953540030895e+00 
1.5960289999999999e+00,	 4.7513149999999998e-01,	 2.5981387810517308e-02,	 6.3788079701623860e+02,	 -1.6411209525380148e+01,	 6.0437247879956601e+02,	 4.5174875323314163e+03,	 4.7176128033410328e+02,	 1.3525736428120410e+00 
1.6034970000000000e+00,	 4.7512900000000002e-01,	 2.5987321029507786e-02,	 6.3792149833410087e+02,	 -1.5249710697980886e+01,	 6.0439669024666114e+02,	 4.5187001787964764e+03,	 4.7177072972937719e+02,	 1.3525717188768640e+00 
1.6109650000000000e+00,	 4.7512640000000000e-01,	 2.5987271509548472e-02,	 6.3803050340792265e+02,	 -1.4132277019915787e+01,	 6.0438074511023285e+02,	 4.5185723565242997e+03,	 4.7176450658290349e+02,	 1.3527660287837100e+00 
1.6184330000000000e+00,	 4.7512389999999999e-01,	 2.5981243884174877e-02,	 6.3821210426492200e+02,	 -1.3029740610693453e+01,	 6.0430967327367421e+02,	 4.5169930590243312e+03,	 4.7173676731759224e+02,	 1.3531807190974114e+00 
1.6259020000000000e+00,	 4.7512120000000002e-01,	 2.5968305922364210e-02,	 6.3848165819107703e+02,	 -1.1941629318305260e+01,	 6.0417691809876476e+02,	 4.5137519156887502e+03,	 4.7168494873880104e+02,	 1.3538556260490009e+00 
1.6333700000000000e+00,	 4.7511860000000000e-01,	 2.5949911492249456e-02,	 6.3882622617840468e+02,	 -1.0876884469167742e+01,	 6.0399130447718881e+02,	 4.5091689170851787e+03,	 4.7161248827705850e+02,	 1.3547538121199205e+00 
1.6408380000000000e+00,	 4.7511599999999998e-01,	 2.5927491424613043e-02,	 6.3921652898486298e+02,	 -9.8498033271341345e+00,	 6.0377178232961433e+02,	 4.5036356563519521e+03,	 4.7152677612011570e+02,	 1.3557923866870927e+00 
1.6483060000000000e+00,	 4.7511330000000002e-01,	 2.5902399693244468e-02,	 6.3962346365380824e+02,	 -8.8601395819904543e+00,	 6.0353264606276412e+02,	 4.4974951616696653e+03,	 4.7143338791978874e+02,	 1.3568933447452551e+00 
1.6557740000000001e+00,	 4.7511059999999999e-01,	 2.5875982305058148e-02,	 6.4004675422549144e+02,	 -7.9067188287219743e+00,	 6.0327738419062428e+02,	 4.4910079891177729e+03,	 4.7133368188325920e+02,	 1.3580518731876929e+00 
1.6632430000000000e+00,	 4.7510790000000003e-01,	 2.5848122498019849e-02,	 6.4050544179029657e+02,	 -6.9965382573599442e+00,	 6.0300582973199062e+02,	 4.4841533007163980e+03,	 4.7122758875526654e+02,	 1.3593084724941038e+00 
1.6707110000000001e+00,	 4.7510520000000001e-01,	 2.5818070808646388e-02,	 6.4100722740243805e+02,	 -6.1244167256742088e+00,	 6.0271552621419403e+02,	 4.4767836249038310e+03,	 4.7111414416765530e+02,	 1.3606818902080167e+00 
1.6781790000000001e+00,	 4.7510249999999998e-01,	 2.5785168744385793e-02,	 6.4154764049834398e+02,	 -5.2802478753057436e+00,	 6.0240101792961264e+02,	 4.4687454032250271e+03,	 4.7099121002268549e+02,	 1.3621684566012617e+00 
1.6856469999999999e+00,	 4.7509980000000002e-01,	 2.5749131016875398e-02,	 6.4211635763323955e+02,	 -4.4568411364736313e+00,	 6.0205974583294176e+02,	 4.4599717250932354e+03,	 4.7085777820195693e+02,	 1.3637490009383793e+00 
1.6931149999999999e+00,	 4.7509699999999999e-01,	 2.5710102343908692e-02,	 6.4270767383276825e+02,	 -3.6513277840227794e+00,	 6.0169382949902570e+02,	 4.4505050753033147e+03,	 4.7071466886755178e+02,	 1.3654090007255464e+00 
1.7005830000000000e+00,	 4.7509430000000002e-01,	 2.5668428708563677e-02,	 6.4332138487367001e+02,	 -2.8637555432554902e+00,	 6.0130724020889238e+02,	 4.4404364070105630e+03,	 4.7056342709001240e+02,	 1.3671435598969284e+00 
1.7080510000000000e+00,	 4.7509150000000000e-01,	 2.5624502775795456e-02,	 6.4395938781947007e+02,	 -2.0944016319184735e+00,	 6.0090390792576488e+02,	 4.4298641999215879e+03,	 4.7040558327423571e+02,	 1.3689522756613639e+00 
1.7155190000000000e+00,	 4.7508869999999997e-01,	 2.5578574114494594e-02,	 6.4462262793989703e+02,	 -1.3429764016256414e+00,	 6.0048611656993239e+02,	 4.4188497940538273e+03,	 4.7024202504438995e+02,	 1.3708345757153408e+00 
1.7229870000000000e+00,	 4.7508590000000001e-01,	 2.5530696964001991e-02,	 6.4530926482965162e+02,	 -6.0897270750595522e-01,	 6.0005364984453740e+02,	 4.4074022594437556e+03,	 4.7007266171383162e+02,	 1.3727868151659157e+00 
1.7304550000000001e+00,	 4.7508309999999998e-01,	 2.5480826862265785e-02,	 6.4601638225097497e+02,	 1.0732773073001566e-01,	 5.9960342307064559e+02,	 4.3954926472020361e+03,	 4.6989627830898985e+02,	 1.3748063583124817e+00 
1.7379230000000001e+00,	 4.7508030000000001e-01,	 2.5428963307178344e-02,	 6.4673903957907987e+02,	 8.0398718337646791e-01,	 5.9913366869666504e+02,	 4.3831094786749345e+03,	 4.6971217405447749e+02,	 1.3768847712220456e+00 
1.7453909999999999e+00,	 4.7507749999999999e-01,	 2.5375200118075779e-02,	 6.4747424346608705e+02,	 1.4790600985251341e+00,	 5.9864527626240238e+02,	 4.3702770882043251e+03,	 4.6952068870353742e+02,	 1.3790147024188246e+00 
1.7528589999999999e+00,	 4.7507470000000002e-01,	 2.5319802995132153e-02,	 6.4822207510583758e+02,	 2.1325819199806411e+00,	 5.9814143760850163e+02,	 4.3570661136281333e+03,	 4.6932306543918003e+02,	 1.3811926811523574e+00 
1.7603270000000000e+00,	 4.7507179999999999e-01,	 2.5263132319598029e-02,	 6.4898413721590134e+02,	 2.7676245533189459e+00,	 5.9762640547912497e+02,	 4.3435708741434919e+03,	 4.6912096565332092e+02,	 1.3834172549084487e+00 
1.7677950000000000e+00,	 4.7506900000000002e-01,	 2.5205533519989852e-02,	 6.4976178290620214e+02,	 3.3875802796652938e+00,	 5.9710461073817009e+02,	 4.3298839519415251e+03,	 4.6891612337645131e+02,	 1.3856862264950318e+00 
1.7752630000000000e+00,	 4.7506619999999999e-01,	 2.5147232484988152e-02,	 6.5055454782346476e+02,	 3.9929602251636989e+00,	 5.9657933910171516e+02,	 4.3160686418398227e+03,	 4.6870982574608348e+02,	 1.3879948017449160e+00 
1.7827310000000001e+00,	 4.7506330000000002e-01,	 2.5088309099602590e-02,	 6.5135880515719634e+02,	 4.5821692346290304e+00,	 5.9605182173808691e+02,	 4.3021480220731974e+03,	 4.6850255469510614e+02,	 1.3903337681257499e+00 
1.7901990000000001e+00,	 4.7506050000000000e-01,	 2.5028777289334555e-02,	 6.5216962515512091e+02,	 5.1548675462752556e+00,	 5.9552187731709432e+02,	 4.2881235703356997e+03,	 4.6829423763564012e+02,	 1.3926927664878501e+00 
1.7976669999999999e+00,	 4.7505760000000002e-01,	 2.4968789685837600e-02,	 6.5298591062385742e+02,	 5.7138357268484246e+00,	 5.9499084118824931e+02,	 4.2740314085647824e+03,	 4.6808539843800929e+02,	 1.3950678898982549e+00 
1.8051349999999999e+00,	 4.7505480000000000e-01,	 2.4908791781005416e-02,	 6.5381339709170913e+02,	 6.2634585267040555e+00,	 5.9446357730163265e+02,	 4.2599828465702458e+03,	 4.6787795051496511e+02,	 1.3974657221963813e+00 
1.8126030000000000e+00,	 4.7505190000000003e-01,	 2.4849274849307632e-02,	 6.5466013953024537e+02,	 6.8057748333693180e+00,	 5.9394555190650340e+02,	 4.2461007171446290e+03,	 4.6767404779127486e+02,	 1.3998970387814396e+00 
1.8200710000000000e+00,	 4.7504910000000000e-01,	 2.4790302321308934e-02,	 6.5552740799540231e+02,	 7.3395022102500267e+00,	 5.9343687713842451e+02,	 4.2323959598001529e+03,	 4.6747373907278961e+02,	 1.4023643248030104e+00 
1.8275390000000000e+00,	 4.7504619999999997e-01,	 2.4731339718687968e-02,	 6.5640542697620253e+02,	 7.8627858440766243e+00,	 5.9293062103422062e+02,	 4.2187273648024411e+03,	 4.6727429753309121e+02,	 1.4048547526433224e+00 
1.8350070000000001e+00,	 4.7504330000000000e-01,	 2.4671734537523433e-02,	 6.5728229164879383e+02,	 8.3762939845790036e+00,	 5.9241834168026094e+02,	 4.2049236739061143e+03,	 4.6707239642288653e+02,	 1.4073528376987401e+00 
1.8424750000000001e+00,	 4.7504039999999997e-01,	 2.4611317401691001e-02,	 6.5815717874347376e+02,	 8.8833706631093499e+00,	 5.9189819312445843e+02,	 4.1909435684497712e+03,	 4.6686730454254297e+02,	 1.4098591195877457e+00 
1.8499429999999999e+00,	 4.7503750000000000e-01,	 2.4550541707747568e-02,	 6.5904058233665080e+02,	 9.3878593359419824e+00,	 5.9137518374180991e+02,	 4.1769003354401875e+03,	 4.6666099377261492e+02,	 1.4123902608770811e+00 
1.8574100000000000e+00,	 4.7503469999999998e-01,	 2.4489833613340953e-02,	 6.5994082401811511e+02,	 9.8939683445451170e+00,	 5.9085288135736721e+02,	 4.1628918638858031e+03,	 4.6645487082594735e+02,	 1.4149600043513337e+00 
1.8648780000000000e+00,	 4.7503180000000000e-01,	 2.4428834380594032e-02,	 6.6085236552610672e+02,	 1.0405904839675765e+01,	 5.9032727251941549e+02,	 4.1488289536277634e+03,	 4.6624735101889752e+02,	 1.4175614846179407e+00 
1.8723460000000001e+00,	 4.7502889999999998e-01,	 2.4366600677675619e-02,	 6.6175917665351994e+02,	 1.0927090441801008e+01,	 5.8978884710822729e+02,	 4.1344851782292353e+03,	 4.6603467518510621e+02,	 1.4201719760780460e+00 
1.8798140000000001e+00,	 4.7502600000000000e-01,	 2.4302372598644335e-02,	 6.6264813529323885e+02,	 1.1459397800878010e+01,	 5.8922998906415387e+02,	 4.1196797319818843e+03,	 4.6581382584668449e+02,	 1.4227727403711972e+00 
1.8872819999999999e+00,	 4.7502309999999998e-01,	 2.4236039977991716e-02,	 6.6351681047058082e+02,	 1.2002398294080525e+01,	 5.8864933925354762e+02,	 4.1043865762557161e+03,	 4.6558425387846768e+02,	 1.4253603985555854e+00 
1.8947499999999999e+00,	 4.7502020000000000e-01,	 2.4168069331384455e-02,	 6.6437212350485925e+02,	 1.2552744120947054e+01,	 5.8805119455347335e+02,	 4.0887168133129694e+03,	 4.6534764651647384e+02,	 1.4279446873528880e+00 
1.9022180000000000e+00,	 4.7501729999999998e-01,	 2.4113333628612316e-02,	 6.6497227400222312e+02,	 1.3050730229921733e+01,	 5.8757387427770527e+02,	 4.0761454223533274e+03,	 4.6515874718176082e+02,	 1.4298351527613746e+00 
1.5288040000000001e+00,	 4.8090010000000000e-01,	 2.5703098040457388e-02,	 6.4272311232530569e+02,	 -3.0201953699459899e+01,	 6.0063816120358274e+02,	 4.4414863490611497e+03,	 4.7030155452323186e+02,	 1.3681271495300338e+00 
1.5362720000000001e+00,	 4.8089810000000000e-01,	 2.5744353601379673e-02,	 6.4239162323241521e+02,	 -2.8605847794175929e+01,	 6.0093589104719945e+02,	 4.4508204260676248e+03,	 4.7041810178052856e+02,	 1.3669291591577684e+00 
1.5437410000000000e+00,	 4.8089609999999999e-01,	 2.5791962573565128e-02,	 6.4195588195673747e+02,	 -2.6879247549285566e+01,	 6.0128560799200864e+02,	 4.4616462797508630e+03,	 4.7055496268031925e+02,	 1.3654480669697890e+00 
1.5512100000000000e+00,	 4.8089389999999999e-01,	 2.5833761920820361e-02,	 6.4159505237534256e+02,	 -2.5210774579152236e+01,	 6.0159082285856709e+02,	 4.4711453971261071e+03,	 4.7067437527501352e+02,	 1.3641919125858391e+00 
1.5586789999999999e+00,	 4.8089179999999998e-01,	 2.5869280767048114e-02,	 6.4130125243305042e+02,	 -2.3606462887783579e+01,	 6.0185049467810529e+02,	 4.4792253634006811e+03,	 4.7077594571186762e+02,	 1.3631443814460702e+00 
1.5661470000000000e+00,	 4.8088959999999997e-01,	 2.5898440801133144e-02,	 6.4107254494376798e+02,	 -2.2071913551141652e+01,	 6.0206312265279723e+02,	 4.4858586284213516e+03,	 4.7085909866863494e+02,	 1.3623022227380510e+00 
1.5736159999999999e+00,	 4.8088730000000002e-01,	 2.5921563066263219e-02,	 6.4090652956377164e+02,	 -2.0608351129212249e+01,	 6.0222895779270743e+02,	 4.4911003362318697e+03,	 4.7092394204243004e+02,	 1.3616588954358224e+00 
1.5810839999999999e+00,	 4.8088500000000001e-01,	 2.5939555410806982e-02,	 6.4079307447085660e+02,	 -1.9213772893343759e+01,	 6.0235465764409958e+02,	 4.4951556941647277e+03,	 4.7097308612644076e+02,	 1.3611840782857632e+00 
1.5885530000000001e+00,	 4.8088259999999999e-01,	 2.5953995514392349e-02,	 6.4071791240153493e+02,	 -1.7886966936177913e+01,	 6.0245379765248970e+02,	 4.4983983279004460e+03,	 4.7101184265802493e+02,	 1.3608310483492594e+00 
1.5960209999999999e+00,	 4.8088029999999998e-01,	 2.5965841292056438e-02,	 6.4068463247323587e+02,	 -1.6629606519717314e+01,	 6.0253259684836553e+02,	 4.5010401076362587e+03,	 4.7104264513701042e+02,	 1.3605995587365514e+00 
1.6034889999999999e+00,	 4.8087790000000002e-01,	 2.5975143700737207e-02,	 6.4068715392282365e+02,	 -1.5433239389776261e+01,	 6.0258511990869727e+02,	 4.5030451289955290e+03,	 4.7106317519817196e+02,	 1.3604820819505303e+00 
1.6109579999999999e+00,	 4.8087540000000001e-01,	 2.5977073005688613e-02,	 6.4078900802527448e+02,	 -1.4273890042633340e+01,	 6.0257382835042404e+02,	 4.5032952061667966e+03,	 4.7105876166219559e+02,	 1.3606539553680177e+00 
1.6184259999999999e+00,	 4.8087299999999999e-01,	 2.5972116029943412e-02,	 6.4097191459875921e+02,	 -1.3123966009106109e+01,	 6.0249578042439941e+02,	 4.5018527074059721e+03,	 4.7102825390677566e+02,	 1.3610781359311788e+00 
1.6258940000000000e+00,	 4.8087049999999998e-01,	 2.5960475380383034e-02,	 6.4123378019242261e+02,	 -1.1979447373290293e+01,	 6.0235671437961037e+02,	 4.4987963494414107e+03,	 4.7097389019280905e+02,	 1.3617435765259951e+00 
1.6333629999999999e+00,	 4.8086800000000002e-01,	 2.5944285177323403e-02,	 6.4155261336261992e+02,	 -1.0862362314792289e+01,	 6.0217664441818408e+02,	 4.4946466410721214e+03,	 4.7090348789848900e+02,	 1.3625818890287491e+00 
1.6408309999999999e+00,	 4.8086550000000000e-01,	 2.5925388919582456e-02,	 6.4189971084171975e+02,	 -9.7966362982385817e+00,	 6.0197388836768653e+02,	 4.4898607416757477e+03,	 4.7082420338069721e+02,	 1.3635120279031894e+00 
1.6482990000000000e+00,	 4.8086299999999998e-01,	 2.5903813299135631e-02,	 6.4226303557934489e+02,	 -8.7838596241974241e+00,	 6.0175989403713186e+02,	 4.4845294288319719e+03,	 4.7074050982859524e+02,	 1.3644950567045064e+00 
1.6557670000000000e+00,	 4.8086040000000002e-01,	 2.5879916942062067e-02,	 6.4264403999344609e+02,	 -7.8103010103280797e+00,	 6.0153579986342595e+02,	 4.4787239458456170e+03,	 4.7065285025744441e+02,	 1.3655319386476514e+00 
1.6632350000000000e+00,	 4.8085790000000000e-01,	 2.5854159445243045e-02,	 6.4305809268052246e+02,	 -6.8668343129362057e+00,	 6.0129319696248638e+02,	 4.4724619098974790e+03,	 4.7055793216470806e+02,	 1.3666643596752717e+00 
1.6707040000000000e+00,	 4.8085529999999999e-01,	 2.5825764864738504e-02,	 6.4352309549980725e+02,	 -5.9551003081267044e+00,	 6.0102765590525667e+02,	 4.4655770411415269e+03,	 4.7045401759379473e+02,	 1.3679352812455381e+00 
1.6781720000000000e+00,	 4.8085270000000002e-01,	 2.5794178800039341e-02,	 6.4403533293259022e+02,	 -5.0716297369420840e+00,	 6.0073661345735218e+02,	 4.4579556684784511e+03,	 4.7034009715485104e+02,	 1.3693395597703550e+00 
1.6856400000000000e+00,	 4.8085010000000000e-01,	 2.5759301994596875e-02,	 6.4458325933642925e+02,	 -4.2144103847618872e+00,	 6.0041700183612249e+02,	 4.4495594088509215e+03,	 4.7021496231410032e+02,	 1.3708560725783709e+00 
1.6931080000000001e+00,	 4.8084749999999998e-01,	 2.5721363295071825e-02,	 6.4515930351273505e+02,	 -3.3823118773402827e+00,	 6.0006958922837453e+02,	 4.4404352216050193e+03,	 4.7007890500460366e+02,	 1.3724678189906609e+00 
1.7005760000000001e+00,	 4.8084480000000002e-01,	 2.5680747813067482e-02,	 6.4576198297825226e+02,	 -2.5735573961192220e+00,	 5.9969797977603673e+02,	 4.4306780057958777e+03,	 4.6993332787431052e+02,	 1.3741675102772635e+00 
1.7080439999999999e+00,	 4.8084220000000000e-01,	 2.5637840716965656e-02,	 6.4639163247024726e+02,	 -1.7861171767132051e+00,	 5.9930598671525411e+02,	 4.4203840028842642e+03,	 4.6977971662167624e+02,	 1.3759514881234953e+00 
1.7155119999999999e+00,	 4.8083949999999998e-01,	 2.5592872640748110e-02,	 6.4704665126118152e+02,	 -1.0188961471282876e+00,	 5.9889585328353837e+02,	 4.4096109974769906e+03,	 4.6961894287121510e+02,	 1.3778137856324495e+00 
1.7229800000000000e+00,	 4.8083690000000001e-01,	 2.5545879189162422e-02,	 6.4772314772349773e+02,	 -2.7102518905528850e-01,	 5.9846742599145091e+02,	 4.3983654253645209e+03,	 4.6945093906383300e+02,	 1.3797463175116165e+00 
1.7304480000000000e+00,	 4.8083419999999999e-01,	 2.5496800447686128e-02,	 6.4841671476006877e+02,	 4.5820453238278702e-01,	 5.9801842347376635e+02,	 4.3866217349443032e+03,	 4.6927480232292396e+02,	 1.3817423681088066e+00 
1.7379160000000000e+00,	 4.8083150000000002e-01,	 2.5445559752537782e-02,	 6.4912095733965043e+02,	 1.1686313886987025e+00,	 5.9754853370344335e+02,	 4.3743661423245749e+03,	 4.6909040101262724e+02,	 1.3837887279256189e+00 
1.7453840000000000e+00,	 4.8082880000000000e-01,	 2.5392275633519767e-02,	 6.4983374475127141e+02,	 1.8600004035775677e+00,	 5.9706032418022312e+02,	 4.3616395639176199e+03,	 4.6889873357090374e+02,	 1.3858779308482316e+00 
1.7528520000000001e+00,	 4.8082609999999998e-01,	 2.5337311560557449e-02,	 6.5055800057603039e+02,	 2.5333392678749886e+00,	 5.9655898935585560e+02,	 4.3485439479505567e+03,	 4.6870183166503671e+02,	 1.3880102213108674e+00 