TITLE = "Final State"
VARIABLES = "X", "Y", "rho", "u", "v", "T", "p", "c", "M"
ZONE I=77, J=21, DATAPACKING=POINT
-1.5815199999999999e-01,	 3.0203999999999998e-01,	 1.1586407740522199e-02,	 1.7360000000000000e+03,	 1.7945256714303330e-14,	 3.0000000000000000e+02,	 1.0000000000000000e+03,	 3.3237670711487283e+02,	 5.2229893456403387e+00 
-1.5365400000000001e-01,	 3.0203999999999998e-01,	 1.1586407740522199e-02,	 1.7360000000000000e+03,	 7.9476441833377414e-15,	 3.0000000000000000e+02,	 1.0000000000000000e+03,	 3.3237670711487283e+02,	 5.2229893456403387e+00 
-1.4915600000000001e-01,	 3.0203999999999998e-01,	 1.1586407740522199e-02,	 1.7360000000000000e+03,	 -3.9354763283105215e-15,	 3.0000000000000000e+02,	 1.0000000000000000e+03,	 3.3237670711487283e+02,	 5.2229893456403387e+00 
-1.4465800000000001e-01,	 3.0203999999999998e-01,	 1.1586407740522199e-02,	 1.7360000000000000e+03,	 -2.6516299248371334e-15,	 3.0000000000000000e+02,	 1.0000000000000000e+03,	 3.3237670711487283e+02,	 5.2229893456403387e+00 
-1.4016000000000001e-01,	 3.0203999999999998e-01,	 1.1586407740522199e-02,	 1.7360000000000000e+03,	 -4.7937754313100641e-15,	 3.0000000000000000e+02,	 1.0000000000000000e+03,	 3.3237670711487283e+02,	 5.2229893456403387e+00 
-1.3566200000000000e-01,	 3.0203999999999998e-01,	 1.1586407740522199e-02,	 1.7360000000000000e+03,	 -7.2091585679093766e-15,	 3.0000000000000000e+02,	 1.0000000000000000e+03,	 3.3237670711487283e+02,	 5.2229893456403387e+00 
-1.3116400000000000e-01,	 3.0203999999999998e-01,	 1.1586407740522199e-02,	 1.7360000000000000e+03,	 3.4398705769502562e-15,	 3.0000000000000000e+02,	 1.0000000000000000e+03,	 3.3237670711487283e+02,	 5.2229893456403387e+00 
-1.2666600000000000e-01,	 3.0203999999999998e-01,	 1.1586407740522199e-02,	 1.7360000000000000e+03,	 2.6032306258753506e-15,	 3.0000000000000000e+02,	 1.0000000000000000e+03,	 3.3237670711487283e+02,	 5.2229893456403387e+00 
-1.2216800000000000e-01,	 3.0203999999999998e-01,	 1.1586407740522199e-02,	 1.7360000000000000e+03,	 -3.9069820268901587e-15,	 3.0000000000000000e+02,	 1.0000000000000000e+03,	 3.3237670711487283e+02,	 5.2229893456403387e+00 
-1.1767000000000000e-01,	 3.0203999999999998e-01,	 1.1586407740522199e-02,	 1.7360000000000000e+03,	 -5.6899126669918980e-15,	 3.0000000000000000e+02,	 1.0000000000000000e+03,	 3.3237670711487283e+02,	 5.2229893456403387e+00 
-1.1317199999999999e-01,	 3.0203999999999998e-01,	 1.1586407740522199e-02,	 1.7360000000000000e+03,	 1.8614758530310990e-15,	 3.0000000000000000e+02,	 1.0000000000000000e+03,	 3.3237670711487283e+02,	 5.2229893456403387e+00 
-1.0867400000000001e-01,	 3.0203999999999998e-01,	 1.1586407740522199e-02,	 1.7360000000000000e+03,	 9.5846562636479008e-15,	 3.0000000000000000e+02,	 1.0000000000000000e+03,	 3.3237670711487283e+02,	 5.2229893456403387e+00 
-1.0417600000000000e-01,	 3.0203999999999998e-01,	 1.1586407740522199e-02,	 1.7360000000000000e+03,	 7.3628539650437907e-16,	 3.0000000000000000e+02,	 1.0000000000000000e+03,	 3.3237670711487283e+02,	 5.2229893456403387e+00 
-9.9678000000000003e-02,	 3.0203999999999998e-01,	 1.1586407740522199e-02,	 1.7360000000000000e+03,	 -7.3946450951238690e-16,	 3.0000000000000000e+02,	 1.0000000000000000e+03,	 3.3237670711487283e+02,	 5.2229893456403387e+00 
-9.5180000000000001e-02,	 3.0203999999999998e-01,	 1.1586407740522199e-02,	 1.7360000000000000e+03,	 -4.5014623756514405e-15,	 3.0000000000000000e+02,	 1.0000000000000000e+03,	 3.3237670711487283e+02,	 5.2229893456403387e+00 
-9.0681999999999999e-02,	 3.0203999999999998e-01,	 1.1586407740522199e-02,	 1.7360000000000000e+03,	 -4.4870488480750244e-16,	 3.0000000000000000e+02,	 1.0000000000000000e+03,	 3.3237670711487283e+02,	 5.2229893456403387e+00 
-8.6183999999999997e-02,	 3.0203999999999998e-01,	 1.1586407740522199e-02,	 1.7360000000000000e+03,	 2.7615338884466270e-15,	 3.0000000000000000e+02,	 1.0000000000000000e+03,	 3.3237670711487283e+02,	 5.2229893456403387e+00 
-8.1685999999999995e-02,	 3.0203999999999998e-01,	 1.1586407740522199e-02,	 1.7360000000000000e+03,	 1.2335224236787676e-15,	 3.0000000000000000e+02,	 1.0000000000000000e+03,	 3.3237670711487283e+02,	 5.2229893456403387e+00 
-7.7188000000000007e-02,	 3.0203999999999998e-01,	 1.1586407740522199e-02,	 1.7360000000000000e+03,	 1.4696260612075161e-14,	 3.0000000000000000e+02,	 1.0000000000000000e+03,	 3.3237670711487283e+02,	 5.2229893456403387e+00 
-7.2690000000000005e-02,	 3.0203999999999998e-01,	 1.1586407740522199e-02,	 1.7360000000000000e+03,	 4.3410524893785513e-15,	 3.0000000000000000e+02,	 1.0000000000000000e+03,	 3.3237670711487283e+02,	 5.2229893456403387e+00 
-6.8192000000000003e-02,	 3.0203999999999998e-01,	 1.1586407740522199e-02,	 1.7360000000000000e+03,	 1.6895665267967918e-15,	 3.0000000000000000e+02,	 1.0000000000000000e+03,	 3.3237670711487283e+02,	 5.2229893456403387e+00 
-6.3694000000000001e-02,	 3.0203999999999998e-01,	 1.1586407740522199e-02,	 1.7360000000000000e+03,	 2.9809585452726040e-15,	 3.0000000000000000e+02,	 1.0000000000000000e+03,	 3.3237670711487283e+02,	 5.2229893456403387e+00 
-5.9195999999999999e-02,	 3.0203999999999998e-01,	 1.1586407740522199e-02,	 1.7360000000000000e+03,	 7.5366201098865229e-16,	 3.0000000000000000e+02,	 1.0000000000000000e+03,	 3.3237670711487283e+02,	 5.2229893456403387e+00 
-5.4697999999999997e-02,	 3.0203999999999998e-01,	 1.1586407740522199e-02,	 1.7360000000000000e+03,	 -2.1754912065238595e-15,	 3.0000000000000000e+02,	 1.0000000000000000e+03,	 3.3237670711487283e+02,	 5.2229893456403387e+00 
-5.0200000000000002e-02,	 3.0203999999999998e-01,	 1.1586407740522199e-02,	 1.7360000000000000e+03,	 -7.6937759720842353e-15,	 3.0000000000000000e+02,	 1.0000000000000000e+03,	 3.3237670711487283e+02,	 5.2229893456403387e+00 
-4.5702000000000000e-02,	 3.0203999999999998e-01,	 1.1586407740522199e-02,	 1.7360000000000000e+03,	 -2.7789001312955362e-15,	 3.0000000000000000e+02,	 1.0000000000000000e+03,	 3.3237670711487283e+02,	 5.2229893456403387e+00 
-4.1203999999999998e-02,	 3.0203999999999998e-01,	 1.1586407740522199e-02,	 1.7360000000000000e+03,	 -5.4855617581626747e-15,	 3.0000000000000000e+02,	 1.0000000000000000e+03,	 3.3237670711487283e+02,	 5.2229893456403387e+00 
-3.6706000000000003e-02,	 3.0203999999999998e-01,	 1.1586407740522199e-02,	 1.7360000000000000e+03,	 -5.9108759422264261e-15,	 3.0000000000000000e+02,	 1.0000000000000000e+03,	 3.3237670711487283e+02,	 5.2229893456403387e+00 
-3.2208000000000001e-02,	 3.0203999999999998e-01,	 1.1586407740522199e-02,	 1.7360000000000000e+03,	 -2.1319058241094067e-16,	 3.0000000000000000e+02,	 1.0000000000000000e+03,	 3.3237670711487283e+02,	 5.2229893456403387e+00 
-2.7709999999999999e-02,	 3.0203999999999998e-01,	 1.1586407740522199e-02,	 1.7360000000000000e+03,	 6.9150559061838419e-16,	 3.0000000000000000e+02,	 1.0000000000000000e+03,	 3.3237670711487283e+02,	 5.2229893456403387e+00 
-2.3212000000000000e-02,	 3.0203999999999998e-01,	 1.1586407740522199e-02,	 1.7360000000000000e+03,	 3.2620632601649668e-17,	 3.0000000000000000e+02,	 1.0000000000000000e+03,	 3.3237670711487283e+02,	 5.2229893456403387e+00 
-1.8714000000000001e-02,	 3.0203999999999998e-01,	 1.1586407740522199e-02,	 1.7360000000000000e+03,	 -1.2709149811876396e-15,	 3.0000000000000000e+02,	 1.0000000000000000e+03,	 3.3237670711487283e+02,	 5.2229893456403387e+00 
-1.4215999999999999e-02,	 3.0203999999999998e-01,	 1.1586407740522199e-02,	 1.7360000000000000e+03,	 -1.0253549115576029e-14,	 3.0000000000000000e+02,	 1.0000000000000000e+03,	 3.3237670711487283e+02,	 5.2229893456403387e+00 
-9.7179999999999992e-03,	 3.0203999999999998e-01,	 1.1586407740522199e-02,	 1.7360000000000000e+03,	 -9.9222110413296406e-15,	 3.0000000000000000e+02,	 1.0000000000000000e+03,	 3.3237670711487283e+02,	 5.2229893456403387e+00 
-5.2199999999999998e-03,	 3.0203999999999998e-01,	 1.1586407740522199e-02,	 1.7360000000000000e+03,	 -6.6836075988507206e-15,	 3.0000000000000000e+02,	 1.0000000000000000e+03,	 3.3237670711487283e+02,	 5.2229893456403387e+00 
-7.2199999999999999e-04,	 3.0203999999999998e-01,	 1.1586407740522199e-02,	 1.7360000000000000e+03,	 -2.9734055552956796e-14,	 3.0000000000000000e+02,	 1.0000000000000000e+03,	 3.3237670711487283e+02,	 5.2229893456403387e+00 
3.7759999999999998e-03,	 3.0203999999999998e-01,	 1.1586407740522199e-02,	 1.7360000000000000e+03,	 -3.7786200725060358e-14,	 3.0000000000000000e+02,	 1.0000000000000000e+03,	 3.3237670711487283e+02,	 5.2229893456403387e+00 
8.2740000000000001e-03,	 3.0203999999999998e-01,	 1.1586407740522199e-02,	 1.7360000000000000e+03,	 -1.7598585815545635e-14,	 3.0000000000000000e+02,	 1.0000000000000000e+03,	 3.3237670711487283e+02,	 5.2229893456403387e+00 
1.2772000000000000e-02,	 3.0203999999999998e-01,	 1.1586407740522199e-02,	 1.7360000000000000e+03,	 -1.1046378183889579e-14,	 3.0000000000000000e+02,	 1.0000000000000000e+03,	 3.3237670711487283e+02,	 5.2229893456403387e+00 
1.7270000000000001e-02,	 3.0203999999999998e-01,	 1.1586407740522199e-02,	 1.7360000000000000e+03,	 -3.2922885104976158e-15,	 3.0000000000000000e+02,	 1.0000000000000000e+03,	 3.3237670711487283e+02,	 5.2229893456403387e+00 
2.1767999999999999e-02,	 3.0203999999999998e-01,	 1.1586407740522199e-02,	 1.7360000000000000e+03,	 3.1228958736167216e-15,	 3.0000000000000000e+02,	 1.0000000000000000e+03,	 3.3237670711487283e+02,	 5.2229893456403387e+00 
2.6266000000000001e-02,	 3.0203999999999998e-01,	 1.1586407740522199e-02,	 1.7360000000000000e+03,	 1.0820566752222111e-14,	 3.0000000000000000e+02,	 1.0000000000000000e+03,	 3.3237670711487283e+02,	 5.2229893456403387e+00 
3.0764000000000000e-02,	 3.0203999999999998e-01,	 1.1586407740522199e-02,	 1.7360000000000000e+03,	 1.9492481504750674e-14,	 3.0000000000000000e+02,	 1.0000000000000000e+03,	 3.3237670711487283e+02,	 5.2229893456403387e+00 
3.5262000000000002e-02,	 3.0203999999999998e-01,	 1.1586407740522199e-02,	 1.7360000000000000e+03,	 8.3409592610508573e-15,	 3.0000000000000000e+02,	 1.0000000000000000e+03,	 3.3237670711487283e+02,	 5.2229893456403387e+00 
3.9759999999999997e-02,	 3.0203999999999998e-01,	 1.1586407740522199e-02,	 1.7360000000000000e+03,	 -3.2361833124244787e-15,	 3.0000000000000000e+02,	 1.0000000000000000e+03,	 3.3237670711487283e+02,	 5.2229893456403387e+00 
4.4257999999999999e-02,	 3.0203999999999998e-01,	 1.1586407740522199e-02,	 1.7360000000000000e+03,	 -9.4542323890202385e-16,	 3.0000000000000000e+02,	 1.0000000000000000e+03,	 3.3237670711487283e+02,	 5.2229893456403387e+00 
4.8756000000000001e-02,	 3.0203999999999998e-01,	 1.1586407740522199e-02,	 1.7360000000000000e+03,	 2.0922101727192904e-15,	 3.0000000000000000e+02,	 1.0000000000000000e+03,	 3.3237670711487283e+02,	 5.2229893456403387e+00 
5.3254000000000003e-02,	 3.0203999999999998e-01,	 1.1586407740522199e-02,	 1.7360000000000000e+03,	 2.0270036708049065e-15,	 3.0000000000000000e+02,	 1.0000000000000000e+03,	 3.3237670711487283e+02,	 5.2229893456403387e+00 
5.7751999999999998e-02,	 3.0203999999999998e-01,	 1.1586407740522199e-02,	 1.7360000000000000e+03,	 6.9545781478211171e-15,	 3.0000000000000000e+02,	 1.0000000000000000e+03,	 3.3237670711487283e+02,	 5.2229893456403387e+00 
6.2250000000000000e-02,	 3.0203999999999998e-01,	 1.1586407740522199e-02,	 1.7360000000000000e+03,	 1.0901814342364058e-14,	 3.0000000000000000e+02,	 1.0000000000000000e+03,	 3.3237670711487283e+02,	 5.2229893456403387e+00 
6.6748000000000002e-02,	 3.0203999999999998e-01,	 1.1586407740522199e-02,	 1.7360000000000000e+03,	 1.9362934822844172e-16,	 3.0000000000000000e+02,	 1.0000000000000000e+03,	 3.3237670711487283e+02,	 5.2229893456403387e+00 
7.1246000000000004e-02,	 3.0203999999999998e-01,	 1.1586407740522199e-02,	 1.7360000000000000e+03,	 1.0774797883894091e-16,	 3.0000000000000000e+02,	 1.0000000000000000e+03,	 3.3237670711487283e+02,	 5.2229893456403387e+00 
7.5744000000000006e-02,	 3.0203999999999998e-01,	 1.1586407740522199e-02,	 1.7360000000000000e+03,	 -1.0217014445934205e-15,	 3.0000000000000000e+02,	 1.0000000000000000e+03,	 3.3237670711487283e+02,	 5.2229893456403387e+00 
8.0241999999999994e-02,	 3.0203999999999998e-01,	 1.1586407740522199e-02,	 1.7360000000000000e+03,	 1.3705977486793694e-15,	 3.0000000000000000e+02,	 1.0000000000000000e+03,	 3.3237670711487283e+02,	 5.2229893456403387e+00 
8.4739999999999996e-02,	 3.0203999999999998e-01,	 1.1586407740522199e-02,	 1.7360000000000000e+03,	 1.3913691302558474e-15,	 3.0000000000000000e+02,	 1.0000000000000000e+03,	 3.3237670711487283e+02,	 5.2229893456403387e+00 
8.9237999999999998e-02,	 3.0203999999999998e-01,	 1.1586407740522199e-02,	 1.7360000000000000e+03,	 2.2744996839529783e-15,	 3.0000000000000000e+02,	 1.0000000000000000e+03,	 3.3237670711487283e+02,	 5.2229893456403387e+00 
9.3736000000000000e-02,	 3.0203999999999998e-01,	 1.1586407740522199e-02,	 1.7360000000000000e+03,	 2.9490282441763082e-15,	 3.0000000000000000e+02,	 1.0000000000000000e+03,	 3.3237670711487283e+02,	 5.2229893456403387e+00 
9.8234000000000002e-02,	 3.0203999999999998e-01,	 1.1586407740522199e-02,	 1.7360000000000000e+03,	 1.2605785306371354e-14,	 3.0000000000000000e+02,	 1.0000000000000000e+03,	 3.3237670711487283e+02,	 5.2229893456403387e+00 
1.0273200000000000e-01,	 3.0203999999999998e-01,	 1.1586407740522199e-02,	 1.7360000000000000e+03,	 3.2531058443428270e-14,	 3.0000000000000000e+02,	 1.0000000000000000e+03,	 3.3237670711487283e+02,	 5.2229893456403387e+00 
1.0723000000000001e-01,	 3.0203999999999998e-01,	 1.1586407740522199e-02,	 1.7360000000000000e+03,	 3.1563475671220438e-14,	 3.0000000000000000e+02,	 1.0000000000000000e+03,	 3.3237670711487283e+02,	 5.2229893456403387e+00 
1.1172799999999999e-01,	 3.0203999999999998e-01,	 1.1586407740522199e-02,	 1.7360000000000000e+03,	 9.0291078581166073e-15,	 3.0000000000000000e+02,	 1.0000000000000000e+03,	 3.3237670711487283e+02,	 5.2229893456403387e+00 
1.1622600000000000e-01,	 3.0203999999999998e-01,	 1.1586407740522199e-02,	 1.7360000000000000e+03,	 -1.0431555714158048e-14,	 3.0000000000000000e+02,	 1.0000000000000000e+03,	 3.3237670711487283e+02,	 5.2229893456403387e+00 
1.2072400000000000e-01,	 3.0203999999999998e-01,	 1.1586407740522199e-02,	 1.7360000000000000e+03,	 -6.3384722156933088e-15,	 3.0000000000000000e+02,	 1.0000000000000000e+03,	 3.3237670711487283e+02,	 5.2229893456403387e+00 
1.2522200000000000e-01,	 3.0203999999999998e-01,	 1.1586407740522199e-02,	 1.7360000000000000e+03,	 -3.3274598072732939e-15,	 3.0000000000000000e+02,	 1.0000000000000000e+03,	 3.3237670711487283e+02,	 5.2229893456403387e+00 
1.2972000000000000e-01,	 3.0203999999999998e-01,	 1.1586407740522199e-02,	 1.7360000000000000e+03,	 -1.6664026638539191e-15,	 3.0000000000000000e+02,	 1.0000000000000000e+03,	 3.3237670711487283e+02,	 5.2229893456403387e+00 
1.3421800000000000e-01,	 3.0203999999999998e-01,	 1.1586407740522199e-02,	 1.7360000000000000e+03,	 -1.9145939757132055e-15,	 3.0000000000000000e+02,	 1.0000000000000000e+03,	 3.3237670711487283e+02,	 5.2229893456403387e+00 
1.3871600000000001e-01,	 3.0203999999999998e-01,	 1.1586407740522199e-02,	 1.7360000000000000e+03,	 9.3908381513442731e-15,	 3.0000000000000000e+02,	 1.0000000000000000e+03,	 3.3237670711487283e+02,	 5.2229893456403387e+00 
1.4321400000000001e-01,	 3.0203999999999998e-01,	 1.1586407740522199e-02,	 1.7360000000000000e+03,	 1.9431961742060444e-14,	 3.0000000000000000e+02,	 1.0000000000000000e+03,	 3.3237670711487283e+02,	 5.2229893456403387e+00 
1.4771200000000001e-01,	 3.0203999999999998e-01,	 1.1586407740522199e-02,	 1.7360000000000000e+03,	 7.3641027653509092e-15,	 3.0000000000000000e+02,	 1.0000000000000000e+03,	 3.3237670711487283e+02,	 5.2229893456403387e+00 
1.5221000000000001e-01,	 3.0203999999999998e-01,	 1.1586407740522199e-02,	 1.7360000000000000e+03,	 -7.9599462514638594e-15,	 3.0000000000000000e+02,	 1.0000000000000000e+03,	 3.3237670711487283e+02,	 5.2229893456403387e+00 
1.5670799999999999e-01,	 3.0203999999999998e-01,	 1.1586407740522199e-02,	 1.7360000000000000e+03,	 -4.5219221517293554e-15,	 3.0000000000000000e+02,	 1.0000000000000000e+03,	 3.3237670711487283e+02,	 5.2229893456403387e+00 
1.6120599999999999e-01,	 3.0203999999999998e-01,	 1.1586407740522199e-02,	 1.7360000000000000e+03,	 -6.0493474101124561e-15,	 3.0000000000000000e+02,	 1.0000000000000000e+03,	 3.3237670711487283e+02,	 5.2229893456403387e+00 
1.6570399999999999e-01,	 3.0203999999999998e-01,	 1.1586407740522199e-02,	 1.7360000000000000e+03,	 -3.2183493623364846e-15,	 3.0000000000000000e+02,	 1.0000000000000000e+03,	 3.3237670711487283e+02,	 5.2229893456403387e+00 
1.7020199999999999e-01,	 3.0203999999999998e-01,	 1.1586407740522199e-02,	 1.7360000000000000e+03,	 -1.5886420206549259e-15,	 3.0000000000000000e+02,	 1.0000000000000000e+03,	 3.3237670711487283e+02,	 5.2229893456403387e+00 
1.7469999999999999e-01,	 3.0203999999999998e-01,	 1.1586407740522199e-02,	 1.7360000000000000e+03,	 -1.7513528172379556e-16,	 3.0000000000000000e+02,	 1.0000000000000000e+03,	 3.3237670711487283e+02,	 5.2229893456403387e+00 
1.7919800000000000e-01,	 3.0203999999999998e-01,	 1.1586407740522199e-02,	 1.7360000000000000e+03,	 5.7659393145176976e-16,	 3.0000000000000000e+02,	 1.0000000000000000e+03,	 3.3237670711487283e+02,	 5.2229893456403387e+00 
1.8369600000000000e-01,	 3.0203999999999998e-01,	 1.1586407740522199e-02,	 1.7360000000000000e+03,	 2.0344877759875790e-16,	 3.0000000000000000e+02,	 1.0000000000000000e+03,	 3.3237670711487283e+02,	 5.2229893456403387e+00 
-1.5815199999999999e-01,	 3.0687470000000000e-01,	 1.1586407740522199e-02,	 1.7360000000000000e+03,	 -8.3530394551915653e-15,	 3.0000000000000000e+02,	 1.0000000000000000e+03,	 3.3237670711487283e+02,	 5.2229893456403387e+00 
-1.5365400000000001e-01,	 3.0685930000000000e-01,	 1.1586407740522199e-02,	 1.7360000000000000e+03,	 -2.7697147769941478e-15,	 3.0000000000000000e+02,	 1.0000000000000000e+03,	 3.3237670711487283e+02,	 5.2229893456403387e+00 
-1.4915600000000001e-01,	 3.0684400000000001e-01,	 1.1586407740522199e-02,	 1.7360000000000000e+03,	 -3.4057163858800535e-15,	 3.0000000000000000e+02,	 1.0000000000000000e+03,	 3.3237670711487283e+02,	 5.2229893456403387e+00 
-1.4465800000000001e-01,	 3.0682870000000001e-01,	 1.1586407740522199e-02,	 1.7360000000000000e+03,	 -2.4523608400848713e-15,	 3.0000000000000000e+02,	 1.0000000000000000e+03,	 3.3237670711487283e+02,	 5.2229893456403387e+00 
-1.4016000000000001e-01,	 3.0681330000000001e-01,	 1.1586407740522199e-02,	 1.7360000000000000e+03,	 2.5964111384072572e-16,	 3.0000000000000000e+02,	 1.0000000000000000e+03,	 3.3237670711487283e+02,	 5.2229893456403387e+00 
-1.3566200000000000e-01,	 3.0679800000000002e-01,	 1.1586407740522199e-02,	 1.7360000000000000e+03,	 2.9785650611766761e-16,	 3.0000000000000000e+02,	 1.0000000000000000e+03,	 3.3237670711487283e+02,	 5.2229893456403387e+00 
-1.3116400000000000e-01,	 3.0678269999999996e-01,	 1.1586407740522199e-02,	 1.7360000000000000e+03,	 -3.1498736011933834e-15,	 3.0000000000000000e+02,	 1.0000000000000000e+03,	 3.3237670711487283e+02,	 5.2229893456403387e+00 
-1.2666600000000000e-01,	 3.0676729999999997e-01,	 1.1586407740522199e-02,	 1.7360000000000000e+03,	 -3.5046208988727805e-15,	 3.0000000000000000e+02,	 1.0000000000000000e+03,	 3.3237670711487283e+02,	 5.2229893456403387e+00 
-1.2216800000000000e-01,	 3.0675199999999997e-01,	 1.1586407740522199e-02,	 1.7360000000000000e+03,	 1.1881132996707114e-15,	 3.0000000000000000e+02,	 1.0000000000000000e+03,	 3.3237670711487283e+02,	 5.2229893456403387e+00 
-1.1767000000000000e-01,	 3.0673669999999997e-01,	 1.1586407740522199e-02,	 1.7360000000000000e+03,	 2.1662213033171066e-16,	 3.0000000000000000e+02,	 1.0000000000000000e+03,	 3.3237670711487283e+02,	 5.2229893456403387e+00 
-1.1317199999999999e-01,	 3.0672129999999997e-01,	 1.1586407740522199e-02,	 1.7360000000000000e+03,	 -4.8200134654690427e-15,	 3.0000000000000000e+02,	 1.0000000000000000e+03,	 3.3237670711487283e+02,	 5.2229893456403387e+00 
-1.0867400000000001e-01,	 3.0670599999999998e-01,	 1.1586407740522199e-02,	 1.7360000000000000e+03,	 -8.1474064568493056e-15,	 3.0000000000000000e+02,	 1.0000000000000000e+03,	 3.3237670711487283e+02,	 5.2229893456403387e+00 
-1.0417600000000000e-01,	 3.0669069999999998e-01,	 1.1586407740522199e-02,	 1.7360000000000000e+03,	 -2.2846409957987617e-15,	 3.0000000000000000e+02,	 1.0000000000000000e+03,	 3.3237670711487283e+02,	 5.2229893456403387e+00 
-9.9678000000000003e-02,	 3.0667529999999998e-01,	 1.1586407740522199e-02,	 1.7360000000000000e+03,	 -5.3672159448466742e-16,	 3.0000000000000000e+02,	 1.0000000000000000e+03,	 3.3237670711487283e+02,	 5.2229893456403387e+00 
-9.5180000000000001e-02,	 3.0665999999999999e-01,	 1.1586407740522199e-02,	 1.7360000000000000e+03,	 -2.5631812015377216e-15,	 3.0000000000000000e+02,	 1.0000000000000000e+03,	 3.3237670711487283e+02,	 5.2229893456403387e+00 
-9.0681999999999999e-02,	 3.0664469999999999e-01,	 1.1586407740522199e-02,	 1.7360000000000000e+03,	 -5.8664673263483121e-15,	 3.0000000000000000e+02,	 1.0000000000000000e+03,	 3.3237670711487283e+02,	 5.2229893456403387e+00 
-8.6183999999999997e-02,	 3.0662929999999999e-01,	 1.1586407740522199e-02,	 1.7360000000000000e+03,	 -5.1631233489636619e-15,	 3.0000000000000000e+02,	 1.0000000000000000e+03,	 3.3237670711487283e+02,	 5.2229893456403387e+00 
-8.1685999999999995e-02,	 3.0661400000000000e-01,	 1.1586407740522199e-02,	 1.7360000000000000e+03,	 -3.0547615243156684e-15,	 3.0000000000000000e+02,	 1.0000000000000000e+03,	 3.3237670711487283e+02,	 5.2229893456403387e+00 
-7.7188000000000007e-02,	 3.0659870000000000e-01,	 1.1586407740522199e-02,	 1.7360000000000000e+03,	 -8.4244314925809028e-15,	 3.0000000000000000e+02,	 1.0000000000000000e+03,	 3.3237670711487283e+02,	 5.2229893456403387e+00 
-7.2690000000000005e-02,	 3.0658330000000000e-01,	 1.1586407740522199e-02,	 1.7360000000000000e+03,	 -3.6108068837635589e-15,	 3.0000000000000000e+02,	 1.0000000000000000e+03,	 3.3237670711487283e+02,	 5.2229893456403387e+00 
-6.8192000000000003e-02,	 3.0656800000000001e-01,	 1.1586407740522199e-02,	 1.7360000000000000e+03,	 -2.0860878405955595e-15,	 3.0000000000000000e+02,	 1.0000000000000000e+03,	 3.3237670711487283e+02,	 5.2229893456403387e+00 
-6.3694000000000001e-02,	 3.0655270000000001e-01,	 1.1586407740522199e-02,	 1.7360000000000000e+03,	 -3.0817276155593179e-15,	 3.0000000000000000e+02,	 1.0000000000000000e+03,	 3.3237670711487283e+02,	 5.2229893456403387e+00 
-5.9195999999999999e-02,	 3.0653730000000001e-01,	 1.1586407740522199e-02,	 1.7360000000000000e+03,	 -1.0807341663905785e-15,	 3.0000000000000000e+02,	 1.0000000000000000e+03,	 3.3237670711487283e+02,	 5.2229893456403387e+00 
-5.4697999999999997e-02,	 3.0652200000000002e-01,	 1.1586407740522199e-02,	 1.7360000000000000e+03,	 -2.2172600222338774e-15,	 3.0000000000000000e+02,	 1.0000000000000000e+03,	 3.3237670711487283e+02,	 5.2229893456403387e+00 
-5.0200000000000002e-02,	 3.0650669999999997e-01,	 1.1586407740522199e-02,	 1.7360000000000000e+03,	 1.3897158915576883e-15,	 3.0000000000000000e+02,	 1.0000000000000000e+03,	 3.3237670711487283e+02,	 5.2229893456403387e+00 
-4.5702000000000000e-02,	 3.0649129999999997e-01,	 1.1586407740522199e-02,	 1.7360000000000000e+03,	 2.1267845418870813e-15,	 3.0000000000000000e+02,	 1.0000000000000000e+03,	 3.3237670711487283e+02,	 5.2229893456403387e+00 
-4.1203999999999998e-02,	 3.0647599999999997e-01,	 1.1586407740522199e-02,	 1.7360000000000000e+03,	 4.0711733465771057e-16,	 3.0000000000000000e+02,	 1.0000000000000000e+03,	 3.3237670711487283e+02,	 5.2229893456403387e+00 
-3.6706000000000003e-02,	 3.0646069999999997e-01,	 1.1586407740522199e-02,	 1.7360000000000000e+03,	 2.1875201888834617e-15,	 3.0000000000000000e+02,	 1.0000000000000000e+03,	 3.3237670711487283e+02,	 5.2229893456403387e+00 
-3.2208000000000001e-02,	 3.0644529999999998e-01,	 1.1586407740522199e-02,	 1.7360000000000000e+03,	 2.2064039814284928e-15,	 3.0000000000000000e+02,	 1.0000000000000000e+03,	 3.3237670711487283e+02,	 5.2229893456403387e+00 
-2.7709999999999999e-02,	 3.0642999999999998e-01,	 1.1586407740522199e-02,	 1.7360000000000000e+03,	 -2.3446405174158483e-15,	 3.0000000000000000e+02,	 1.0000000000000000e+03,	 3.3237670711487283e+02,	 5.2229893456403387e+00 
-2.3212000000000000e-02,	 3.0641469999999998e-01,	 1.1586407740522199e-02,	 1.7360000000000000e+03,	 -5.7582822326835551e-16,	 3.0000000000000000e+02,	 1.0000000000000000e+03,	 3.3237670711487283e+02,	 5.2229893456403387e+00 
-1.8714000000000001e-02,	 3.0639929999999999e-01,	 1.1586407740522199e-02,	 1.7360000000000000e+03,	 1.2370460744088479e-15,	 3.0000000000000000e+02,	 1.0000000000000000e+03,	 3.3237670711487283e+02,	 5.2229893456403387e+00 
-1.4215999999999999e-02,	 3.0638399999999999e-01,	 1.1586407740522199e-02,	 1.7360000000000000e+03,	 2.0861011380251012e-15,	 3.0000000000000000e+02,	 1.0000000000000000e+03,	 3.3237670711487283e+02,	 5.2229893456403387e+00 
-9.7179999999999992e-03,	 3.0636869999999999e-01,	 1.1586407740522199e-02,	 1.7360000000000000e+03,	 3.5416574636313809e-15,	 3.0000000000000000e+02,	 1.0000000000000000e+03,	 3.3237670711487283e+02,	 5.2229893456403387e+00 
-5.2199999999999998e-03,	 3.0635330000000000e-01,	 1.1586407740522199e-02,	 1.7360000000000000e+03,	 -1.9446855404270771e-15,	 3.0000000000000000e+02,	 1.0000000000000000e+03,	 3.3237670711487283e+02,	 5.2229893456403387e+00 
-7.2199999999999999e-04,	 3.0633800000000000e-01,	 1.1586407740522199e-02,	 1.7360000000000000e+03,	 2.1119841018795018e-15,	 3.0000000000000000e+02,	 1.0000000000000000e+03,	 3.3237670711487283e+02,	 5.2229893456403387e+00 
3.7759999999999998e-03,	 3.0632270000000000e-01,	 1.1586407740522199e-02,	 1.7360000000000000e+03,	 3.1026263099618376e-16,	 3.0000000000000000e+02,	 1.0000000000000000e+03,	 3.3237670711487283e+02,	 5.2229893456403387e+00 
8.2740000000000001e-03,	 3.0630730000000000e-01,	 1.1586407740522199e-02,	 1.7360000000000000e+03,	 -1.4217995340605674e-14,	 3.0000000000000000e+02,	 1.0000000000000000e+03,	 3.3237670711487283e+02,	 5.2229893456403387e+00 
1.2772000000000000e-02,	 3.0629200000000001e-01,	 1.1586407740522199e-02,	 1.7360000000000000e+03,	 -5.9547879538641825e-15,	 3.0000000000000000e+02,	 1.0000000000000000e+03,	 3.3237670711487283e+02,	 5.2229893456403387e+00 
1.7270000000000001e-02,	 3.0627670000000001e-01,	 1.1586407740522199e-02,	 1.7360000000000000e+03,	 -2.4099626513455089e-15,	 3.0000000000000000e+02,	 1.0000000000000000e+03,	 3.3237670711487283e+02,	 5.2229893456403387e+00 
2.1767999999999999e-02,	 3.0626130000000001e-01,	 1.1586407740522199e-02,	 1.7360000000000000e+03,	 8.8031911261428464e-15,	 3.0000000000000000e+02,	 1.0000000000000000e+03,	 3.3237670711487283e+02,	 5.2229893456403387e+00 
2.6266000000000001e-02,	 3.0624599999999996e-01,	 1.1586407740522199e-02,	 1.7360000000000000e+03,	 1.0284299825753051e-14,	 3.0000000000000000e+02,	 1.0000000000000000e+03,	 3.3237670711487283e+02,	 5.2229893456403387e+00 
3.0764000000000000e-02,	 3.0623069999999997e-01,	 1.1586407740522199e-02,	 1.7360000000000000e+03,	 -7.2862151240629993e-15,	 3.0000000000000000e+02,	 1.0000000000000000e+03,	 3.3237670711487283e+02,	 5.2229893456403387e+00 
3.5262000000000002e-02,	 3.0621529999999997e-01,	 1.1586407740522199e-02,	 1.7360000000000000e+03,	 -3.8836559952817989e-15,	 3.0000000000000000e+02,	 1.0000000000000000e+03,	 3.3237670711487283e+02,	 5.2229893456403387e+00 
3.9759999999999997e-02,	 3.0619999999999997e-01,	 1.1586407740522199e-02,	 1.7360000000000000e+03,	 -8.4237515712680684e-16,	 3.0000000000000000e+02,	 1.0000000000000000e+03,	 3.3237670711487283e+02,	 5.2229893456403387e+00 
4.4257999999999999e-02,	 3.0618469999999998e-01,	 1.1586407740522199e-02,	 1.7360000000000000e+03,	 1.0081999826944287e-15,	 3.0000000000000000e+02,	 1.0000000000000000e+03,	 3.3237670711487283e+02,	 5.2229893456403387e+00 
4.8756000000000001e-02,	 3.0616929999999998e-01,	 1.1586407740522199e-02,	 1.7360000000000000e+03,	 -2.4378989738153595e-16,	 3.0000000000000000e+02,	 1.0000000000000000e+03,	 3.3237670711487283e+02,	 5.2229893456403387e+00 
5.3254000000000003e-02,	 3.0615399999999998e-01,	 1.1586407740522199e-02,	 1.7360000000000000e+03,	 1.5725272076663124e-15,	 3.0000000000000000e+02,	 1.0000000000000000e+03,	 3.3237670711487283e+02,	 5.2229893456403387e+00 
5.7751999999999998e-02,	 3.0613869999999999e-01,	 1.1586407740522199e-02,	 1.7360000000000000e+03,	 3.1531374109518469e-15,	 3.0000000000000000e+02,	 1.0000000000000000e+03,	 3.3237670711487283e+02,	 5.2229893456403387e+00 
6.2250000000000000e-02,	 3.0612329999999999e-01,	 1.1586407740522199e-02,	 1.7360000000000000e+03,	 5.9544859242595359e-15,	 3.0000000000000000e+02,	 1.0000000000000000e+03,	 3.3237670711487283e+02,	 5.2229893456403387e+00 
6.6748000000000002e-02,	 3.0610799999999999e-01,	 1.1586407740522199e-02,	 1.7360000000000000e+03,	 1.1968188612362408e-14,	 3.0000000000000000e+02,	 1.0000000000000000e+03,	 3.3237670711487283e+02,	 5.2229893456403387e+00 
7.1246000000000004e-02,	 3.0609270000000000e-01,	 1.1586407740522199e-02,	 1.7360000000000000e+03,	 7.7299362531691724e-15,	 3.0000000000000000e+02,	 1.0000000000000000e+03,	 3.3237670711487283e+02,	 5.2229893456403387e+00 
7.5744000000000006e-02,	 3.0607730000000000e-01,	 1.1586407740522199e-02,	 1.7360000000000000e+03,	 3.1656854817910160e-15,	 3.0000000000000000e+02,	 1.0000000000000000e+03,	 3.3237670711487283e+02,	 5.2229893456403387e+00 
8.0241999999999994e-02,	 3.0606200000000000e-01,	 1.1586407740522199e-02,	 1.7360000000000000e+03,	 1.3077461968948588e-15,	 3.0000000000000000e+02,	 1.0000000000000000e+03,	 3.3237670711487283e+02,	 5.2229893456403387e+00 
8.4739999999999996e-02,	 3.0604670000000000e-01,	 1.1586407740522199e-02,	 1.7360000000000000e+03,	 1.8813853333019888e-15,	 3.0000000000000000e+02,	 1.0000000000000000e+03,	 3.3237670711487283e+02,	 5.2229893456403387e+00 