TITLE = "Final State"
VARIABLES = "X", "Y", "rho", "u", "v", "T", "p", "c", "M"
ZONE I=79, J=24, DATAPACKING=POINT
9.5418907499999994e-01,	 2.8037164999999997e-01,	 4.6645579515399993e-02,	 1.5531448892818100e+03,	 1.2608851913425573e+02,	 5.9075526044961214e+02,	 7.9277149836725448e+03,	 4.8778987935640441e+02,	 3.1945201288151805e+00 
9.5496167499999995e-01,	 2.8046837499999999e-01,	 4.7760433017145588e-02,	 1.5500855816674937e+03,	 1.1525174176873414e+02,	 5.9676815284912641e+02,	 8.1998107981976427e+03,	 4.9026603376089076e+02,	 3.1704506532085612e+00 
9.5572645000000001e-01,	 2.8056409999999998e-01,	 4.8800241313756494e-02,	 1.5472063050663469e+03,	 1.0544677261732292e+02,	 6.0227098587275032e+02,	 8.4555886820360301e+03,	 4.9252123233011707e+02,	 3.1486874028644762e+00 
9.5648369999999994e-01,	 2.8065885000000002e-01,	 4.9744487914202405e-02,	 1.5445722213427971e+03,	 9.6790445393685673e+01,	 6.0718426912523103e+02,	 8.6895125200765578e+03,	 4.9452612802743215e+02,	 3.1294644376253471e+00 
9.5723339999999990e-01,	 2.8075262499999998e-01,	 5.0613042356237987e-02,	 1.5421333389545009e+03,	 8.9029373426799637e+01,	 6.1163855077031519e+02,	 8.9060931193763190e+03,	 4.9633672629065524e+02,	 3.1122038939375329e+00 
9.5797580000000004e-01,	 2.8084547500000001e-01,	 5.1393474995320557e-02,	 1.5399313871259778e+03,	 8.2216666891766536e+01,	 6.1558779791493737e+02,	 9.1018133224381909e+03,	 4.9793652936932006e+02,	 3.0970304468160554e+00 
9.5871090000000003e-01,	 2.8093740000000000e-01,	 5.2104713422021873e-02,	 1.5379161737066088e+03,	 7.6140047813887534e+01,	 6.1914554997388291e+02,	 9.2811054039588271e+03,	 4.9937335322239034e+02,	 3.0834641117734884e+00 
9.5943899999999993e-01,	 2.8102839999999996e-01,	 5.2738599297795709e-02,	 1.5361134939255164e+03,	 7.0833702116123291e+01,	 6.2228449883468022e+02,	 9.4416416109406655e+03,	 5.0063761628483627e+02,	 3.0715745852314451e+00 
9.6016004999999993e-01,	 2.8111849999999999e-01,	 5.3312952513395850e-02,	 1.5344760194283517e+03,	 6.6112754143111090e+01,	 6.2510224489420887e+02,	 9.5876844213781878e+03,	 5.0176979648266610e+02,	 3.0609646111294895e+00 
9.6087427499999989e-01,	 2.8120772500000002e-01,	 5.3822800017374307e-02,	 1.5330196246516934e+03,	 6.1994845112010537e+01,	 6.2758257371887987e+02,	 9.7177808446255494e+03,	 5.0276429137015390e+02,	 3.0516738463854978e+00 
9.6158172499999994e-01,	 2.8129609999999999e-01,	 5.4282986794746274e-02,	 1.5317026799579328e+03,	 5.8340177336252815e+01,	 6.2980510541774402e+02,	 9.8355771654422915e+03,	 5.0365375362254707e+02,	 3.0433870683267719e+00 
9.6228262500000006e-01,	 2.8138364999999999e-01,	 5.4690852275409513e-02,	 1.5305345554281273e+03,	 5.5151782803907345e+01,	 6.3176102258776768e+02,	 9.9402534226574753e+03,	 5.0443521868844971e+02,	 3.0361240750477609e+00 
9.6297699999999997e-01,	 2.8147032499999997e-01,	 5.5058540517610097e-02,	 1.5294806343820671e+03,	 5.2322325535166911e+01,	 6.3351343753106903e+02,	 1.0034840262803424e+04,	 5.0513434986608570e+02,	 3.0296401855077790e+00 
9.6366507499999998e-01,	 2.8155619999999998e-01,	 5.5384518861440669e-02,	 1.5285461075282146e+03,	 4.9851666334757297e+01,	 6.3505786193086840e+02,	 1.0118860800776880e+04,	 5.0574970139315644e+02,	 3.0239440832064779e+00 
9.6434682500000002e-01,	 2.8164127499999997e-01,	 5.5678678253652365e-02,	 1.5277027655304257e+03,	 4.7656237120554493e+01,	 6.3644402734255391e+02,	 1.0194808439469976e+04,	 5.0630136026412976e+02,	 3.0188461178925623e+00 
9.6502247500000005e-01,	 2.8172557499999995e-01,	 5.5940117109067308e-02,	 1.5269537312815787e+03,	 4.5733961179083302e+01,	 6.3766932177371609e+02,	 1.0262397496486259e+04,	 5.0678849653331235e+02,	 3.0143511142865158e+00 
9.6569207499999998e-01,	 2.8180909999999998e-01,	 5.6176708081908291e-02,	 1.5262762618267971e+03,	 4.4021515520926258e+01,	 6.3877276395871684e+02,	 1.0323634352484029e+04,	 5.0722678804014271e+02,	 3.0103121711722967e+00 
9.6635584999999991e-01,	 2.8189187500000001e-01,	 5.6387720815702376e-02,	 1.5256727087664829e+03,	 4.2517964586820469e+01,	 6.3975204531556153e+02,	 1.0378298586415478e+04,	 5.0761544542790961e+02,	 3.0067348424028406e+00 
9.6701377499999996e-01,	 2.8197389999999994e-01,	 5.6579564161709936e-02,	 1.5251247467883347e+03,	 4.1172924056886373e+01,	 6.4063805227747741e+02,	 1.0428029864826412e+04,	 5.0796682782062902e+02,	 3.0035040144242395e+00 
9.6766609999999997e-01,	 2.8205517499999999e-01,	 5.6751487899583848e-02,	 1.5246342972522839e+03,	 3.9987755369879416e+01,	 6.4142854752713299e+02,	 1.0472623113984851e+04,	 5.0828012607908471e+02,	 3.0006260792867154e+00 
9.6831277500000001e-01,	 2.8213575000000002e-01,	 5.6908713184246201e-02,	 1.5241865944401620e+03,	 3.8922227491044588e+01,	 6.4214808652472664e+02,	 1.0513417128140632e+04,	 5.0856513433548952e+02,	 2.9980102393053767e+00 
9.6895405000000001e-01,	 2.8221565000000004e-01,	 5.7050561800643607e-02,	 1.5237834034685595e+03,	 3.7977950450085977e+01,	 6.4279437422520743e+02,	 1.0550230060690188e+04,	 5.0882099177721017e+02,	 2.9956637511798361e+00 
9.6958995000000003e-01,	 2.8229484999999999e-01,	 5.7181116158744084e-02,	 1.5234130631324631e+03,	 3.7124673516309599e+01,	 6.4338656368511056e+02,	 1.0584115070277858e+04,	 5.0905531948227554e+02,	 2.9935162070180330e+00 
9.7022067499999998e-01,	 2.8237342499999996e-01,	 5.7299840239944860e-02,	 1.5230770279407486e+03,	 3.6363043365450203e+01,	 6.4392269905233911e+02,	 1.0614928747797891e+04,	 5.0926737374560173e+02,	 2.9915740207448165e+00 
9.7084622499999995e-01,	 2.8245132499999998e-01,	 5.7409892316185138e-02,	 1.5227662303804418e+03,	 3.5670778729181308e+01,	 6.4441752495912590e+02,	 1.0643488917672816e+04,	 5.0946301081238960e+02,	 2.9897832315880368e+00 
9.7146682500000003e-01,	 2.8252854999999999e-01,	 5.7510776174843542e-02,	 1.5224820070183089e+03,	 3.5048570667797179e+01,	 6.4486916288880184e+02,	 1.0669664811711260e+04,	 5.0964150729154272e+02,	 2.9881502051066970e+00 
9.7208245000000004e-01,	 2.8260517499999999e-01,	 5.7605048386719017e-02,	 1.5222169817980582e+03,	 3.4478757291391581e+01,	 6.4528952088413394e+02,	 1.0694121050124530e+04,	 5.0980758515219884e+02,	 2.9866315334357538e+00 
9.7269332500000005e-01,	 2.8268119999999997e-01,	 5.7692207599036115e-02,	 1.5219725545486460e+03,	 3.3962488484789731e+01,	 6.4567654842603770e+02,	 1.0716725525244688e+04,	 5.0996044676992750e+02,	 2.9852343447894065e+00 
9.7329947500000003e-01,	 2.8275657499999995e-01,	 5.7774319425500702e-02,	 1.5217427734746166e+03,	 3.3486057237987367e+01,	 6.4603979361629763e+02,	 1.0738015967748750e+04,	 5.1010387356317233e+02,	 2.9839239403928204e+00 
9.7390107500000000e-01,	 2.8283137500000000e-01,	 5.7850905800606242e-02,	 1.5215290176821570e+03,	 3.3050517263345505e+01,	 6.4637720453007978e+02,	 1.0757866058332336e+04,	 5.1023706361496772e+02,	 2.9827075374669016e+00 
9.7449812499999999e-01,	 2.8290562499999994e-01,	 5.7923644173837892e-02,	 1.5213264498467197e+03,	 3.2645167781621971e+01,	 6.4669649995274642e+02,	 1.0776713194352271e+04,	 5.1036307072311041e+02,	 2.9815571554399742e+00 
9.7509082500000011e-01,	 2.8297929999999993e-01,	 5.7991989345544191e-02,	 1.5211364591154129e+03,	 3.2271886726675952e+01,	 6.4699556436647549e+02,	 1.0794418401178515e+04,	 5.1048106563304583e+02,	 2.9804802909103589e+00 
9.7567920000000008e-01,	 2.8305242500000000e-01,	 5.8057428080376894e-02,	 1.5209549635183732e+03,	 3.1921314391526636e+01,	 6.4728090310768494e+02,	 1.0811364868665820e+04,	 5.1059361970331469e+02,	 2.9794534147738907e+00 
9.7626345000000003e-01,	 2.8312502499999997e-01,	 5.8119404883303305e-02,	 1.5207833729135023e+03,	 3.1595510665239171e+01,	 6.4755035051791742e+02,	 1.0827411407952517e+04,	 5.1069988254315433e+02,	 2.9784842344921643e+00 
9.7684355000000000e-01,	 2.8319709999999998e-01,	 5.8179150771464704e-02,	 1.5206182968351181e+03,	 3.1287115876002620e+01,	 6.4780928455194714e+02,	 1.0842875802160626e+04,	 5.1080197836005863e+02,	 2.9775533327460928e+00 
9.7741972499999996e-01,	 2.8326867499999997e-01,	 5.8236119718890068e-02,	 1.5204610878506205e+03,	 3.0998230870152881e+01,	 6.4805561735944752e+02,	 1.0857620228298949e+04,	 5.1089908666728911e+02,	 2.9766681546266289e+00 
9.7799197499999990e-01,	 2.8333972499999999e-01,	 5.8291388300406116e-02,	 1.5203088703222420e+03,	 3.0722597527221222e+01,	 6.4829390216589650e+02,	 1.0871920624650420e+04,	 5.1099300476484223e+02,	 2.9758122862000835e+00 
9.7856049999999994e-01,	 2.8341032499999996e-01,	 5.8344413574700014e-02,	 1.5201629421394505e+03,	 3.0462272138929080e+01,	 6.4852213048141107e+02,	 1.0885641244616880e+04,	 5.1108294299348012e+02,	 2.9749928976299391e+00 
9.7912529999999998e-01,	 2.8348044999999999e-01,	 5.8396119247241078e-02,	 1.5200208485261332e+03,	 3.0212320949738402e+01,	 6.4874417060510893e+02,	 1.0899018573033871e+04,	 5.1117042744686313e+02,	 2.9741960628627471e+00 
9.7968654999999993e-01,	 2.8355010000000003e-01,	 5.8446037934666253e-02,	 1.5198838602351634e+03,	 2.9974333573927375e+01,	 6.4895806645812127e+02,	 1.0911931929101827e+04,	 5.1125468887742738e+02,	 2.9734287693226209e+00 
9.8024424999999993e-01,	 2.8361929999999996e-01,	 5.8494895652612386e-02,	 1.5197498356099516e+03,	 2.9744549219324700e+01,	 6.4916717210140439e+02,	 1.0924572666978511e+04,	 5.1133704984629901e+02,	 2.9726789568808272e+00 
9.8079859999999996e-01,	 2.8368807499999998e-01,	 5.8542280799904665e-02,	 1.5196199704559979e+03,	 2.9524366728473687e+01,	 6.4936964865111145e+02,	 1.0936832526994383e+04,	 5.1141678715758098e+02,	 2.9719531951627980e+00 
9.8134960000000004e-01,	 2.8375642499999998e-01,	 5.8588860067600196e-02,	 1.5194923978978472e+03,	 2.9310460922807355e+01,	 6.4956841800314635e+02,	 1.0948884819470235e+04,	 5.1149505244595645e+02,	 2.9712409894367426e+00 
9.8189745000000006e-01,	 2.8382437500000002e-01,	 5.8634201606185189e-02,	 1.5193682650737642e+03,	 2.9104410587214346e+01,	 6.4976170846212688e+02,	 1.0960618644178836e+04,	 5.1157114894087323e+02,	 2.9705486692817265e+00 
9.8244212500000005e-01,	 2.8389192499999993e-01,	 5.8678908940264077e-02,	 1.5192459197275434e+03,	 2.8903276116722147e+01,	 6.4995210342311930e+02,	 1.0972190042680541e+04,	 5.1164609444287703e+02,	 2.9698669650391571e+00 
9.8298382500000003e-01,	 2.8395910000000002e-01,	 5.8722588155955553e-02,	 1.5191264468668583e+03,	 2.8708572060735154e+01,	 6.5013792637892163e+02,	 1.0983496797945905e+04,	 5.1171922967428605e+02,	 2.9692018649640626e+00 
9.8352257499999984e-01,	 2.8402587499999998e-01,	 5.8765752827756493e-02,	 1.5190083700775094e+03,	 2.8517851049591016e+01,	 6.5032147865723039e+02,	 1.0994673566134285e+04,	 5.1179146096399342e+02,	 2.9685451191116323e+00 
9.8405852500000002e-01,	 2.8409229999999996e-01,	 5.8808041239445379e-02,	 1.5188927316438765e+03,	 2.8332396482852804e+01,	 6.5050115467480202e+02,	 1.1005625323263037e+04,	 5.1186215699956847e+02,	 2.9679024607643476e+00 
9.8459167500000000e-01,	 2.8415839999999998e-01,	 5.8849931271784596e-02,	 1.5187781871964319e+03,	 2.8150022594674013e+01,	 6.5067904704385649e+02,	 1.1016476678558933e+04,	 5.1193214161577134e+02,	 2.9672663947481075e+00 
9.8512224999999998e-01,	 2.8422414999999995e-01,	 5.8891056399967931e-02,	 1.5186657155908147e+03,	 2.7972227248054580e+01,	 6.5085363987491917e+02,	 1.1027133192728112e+04,	 5.1200081885952739e+02,	 2.9666423320388158e+00 
9.8565022499999999e-01,	 2.8428955000000000e-01,	 5.8931857062728417e-02,	 1.5185541259639506e+03,	 2.7796934837239800e+01,	 6.5102678953884163e+02,	 1.1037708599110871e+04,	 5.1206891932704275e+02,	 2.9660236287769282e+00 
9.8617572500000006e-01,	 2.8435462499999997e-01,	 5.8971997089509606e-02,	 1.5184443433856386e+03,	 2.7625528239344000e+01,	 6.5119706469367952e+02,	 1.1048115534407525e+04,	 5.1213588040713626e+02,	 2.9654153918735213e+00 
9.8669882500000006e-01,	 2.8441939999999999e-01,	 5.9011871117875953e-02,	 1.5183352420601441e+03,	 2.7456095115558153e+01,	 6.5136621763774849e+02,	 1.1058457503713093e+04,	 5.1220239150778593e+02,	 2.9648113550103217e+00 
9.8721970000000003e-01,	 2.8448392499999997e-01,	 5.9051170536270396e-02,	 1.5182277083957556e+03,	 2.7289886131689002e+01,	 6.5153287918251897e+02,	 1.1068653322126849e+04,	 5.1226791454210718e+02,	 2.9642164012707308e+00 
9.8773832500000003e-01,	 2.8454815000000000e-01,	 5.9090240498486178e-02,	 1.5181207339937062e+03,	 2.7125521766432460e+01,	 6.5169860893078226e+02,	 1.1078794048065962e+04,	 5.1233306293067142e+02,	 2.9636249572930593e+00 
9.8825490000000005e-01,	 2.8461209999999998e-01,	 5.9128820071501810e-02,	 1.5180151200123651e+03,	 2.6963866719493438e+01,	 6.5186217700546081e+02,	 1.1088809761335107e+04,	 5.1239735344314261e+02,	 2.9630414069454951e+00 
9.8876937499999995e-01,	 2.8467579999999998e-01,	 5.9167187792163047e-02,	 1.5179099863352515e+03,	 2.6803765695919338e+01,	 6.5202494264102063e+02,	 1.1098775706379804e+04,	 5.1246132055025180e+02,	 2.9624608960149397e+00 
9.8928197500000004e-01,	 2.8473925000000000e-01,	 5.9205131022329292e-02,	 1.5178060241395813e+03,	 2.6646069289501426e+01,	 6.5218584236469542e+02,	 1.1108633815542935e+04,	 5.1252454650471543e+02,	 2.9618872129903782e+00 
9.8979272500000004e-01,	 2.8480244999999998e-01,	 5.9242894677893676e-02,	 1.5177024510810313e+03,	 2.6489659844468086e+01,	 6.5234608627029263e+02,	 1.1118450558028690e+04,	 5.1258750700270809e+02,	 2.9613160391553968e+00 
9.9030174999999987e-01,	 2.8486545000000002e-01,	 5.9280281154156081e-02,	 1.5175999210096134e+03,	 2.6335260420318868e+01,	 6.5250467071064838e+02,	 1.1128171676209264e+04,	 5.1264980787717309e+02,	 2.9607509481181316e+00 
9.9080902499999990e-01,	 2.8492822500000003e-01,	 5.9317509736033169e-02,	 1.5174977356097581e+03,	 2.6182111039755601e+01,	 6.5266266909276919e+02,	 1.1137856557230303e+04,	 5.1271187098663108e+02,	 2.9601881113015245e+00 
9.9131477499999998e-01,	 2.8499077499999997e-01,	 5.9354390762489627e-02,	 1.5173964476519093e+03,	 2.6030857074089656e+01,	 6.5281923240661729e+02,	 1.1147455042519370e+04,	 5.1277336297932936e+02,	 2.9596305498560818e+00 
9.9181899999999990e-01,	 2.8505314999999998e-01,	 5.9391159204902275e-02,	 1.5172954469827619e+03,	 2.5880398449239475e+01,	 6.5297530946651057e+02,	 1.1157027392181179e+04,	 5.1283465665139852e+02,	 2.9590748817172066e+00 
9.9232187500000002e-01,	 2.8511534999999999e-01,	 5.9427611942133571e-02,	 1.5171952468365830e+03,	 2.5731759585367289e+01,	 6.5313010121747368e+02,	 1.1166521747469909e+04,	 5.1289543832976710e+02,	 2.9585239488524482e+00 
9.9282340000000002e-01,	 2.8517737500000001e-01,	 5.9463944244511367e-02,	 1.5170952953421038e+03,	 2.5583898603597621e+01,	 6.5328446665865317e+02,	 1.1175989421159646e+04,	 5.1295604543769559e+02,	 2.9579746911898015e+00 
9.9332367500000007e-01,	 2.8523925000000000e-01,	 5.9500002018005670e-02,	 1.5169960590697985e+03,	 2.5437614707925594e+01,	 6.5343768310073585e+02,	 1.1185389044888569e+04,	 5.1301619434418808e+02,	 2.9574296776720814e+00 
9.9382277499999994e-01,	 2.8530097499999996e-01,	 5.9535958416397229e-02,	 1.5168970171451238e+03,	 2.5292028479081594e+01,	 6.5359055820992546e+02,	 1.1194766939093357e+04,	 5.1307620222417972e+02,	 2.9568860329484759e+00 
9.9432089999999995e-01,	 2.8536257500000001e-01,	 5.9571690582053256e-02,	 1.5167985806854906e+03,	 2.5147706040620875e+01,	 6.5374245891518422e+02,	 1.1204089123223735e+04,	 5.1313582067200718e+02,	 2.9563460062223657e+00 
9.9481797499999991e-01,	 2.8542404999999998e-01,	 5.9607312173582505e-02,	 1.5167003568023558e+03,	 2.5004124498283360e+01,	 6.5389399071711750e+02,	 1.1213387302890424e+04,	 5.1319528743081344e+02,	 2.9558074427450043e+00 
9.9531419999999993e-01,	 2.8548542499999996e-01,	 5.9642717782880009e-02,	 1.5166026303251788e+03,	 2.4861745517253656e+01,	 6.5404471359476008e+02,	 1.1222634067988454e+04,	 5.1325442990253453e+02,	 2.9552719045520273e+00 
9.9580957500000000e-01,	 2.8554667499999997e-01,	 5.9678052813869238e-02,	 1.5165050869981155e+03,	 2.4719974341761997e+01,	 6.5419511609658866e+02,	 1.1231865119691234e+04,	 5.1331343986879472e+02,	 2.9547376539913466e+00 
9.9630427499999996e-01,	 2.8560782499999998e-01,	 5.9713187458617430e-02,	 1.5164079706473440e+03,	 2.4579329291915730e+01,	 6.5434481868401087e+02,	 1.1241049482489660e+04,	 5.1337216849008405e+02,	 2.9542060376325341e+00 
9.9679832499999999e-01,	 2.8566890000000000e-01,	 5.9748256193328755e-02,	 1.5163110004118510e+03,	 2.4439154587223186e+01,	 6.5449426081209560e+02,	 1.1250219984145539e+04,	 5.1343078823252620e+02,	 2.9536754933951834e+00 
9.9729184999999987e-01,	 2.8572992500000000e-01,	 5.9783174706927920e-02,	 1.5162143963607546e+03,	 2.4299862279265955e+01,	 6.5464310139915779e+02,	 1.1259354863070816e+04,	 5.1348916536454647e+02,	 2.9531472308179687e+00 
9.9778485000000006e-01,	 2.8579087500000000e-01,	 5.9817993936763035e-02,	 1.5161179412474683e+03,	 2.4161234015920577e+01,	 6.5479167326178890e+02,	 1.1268469404895781e+04,	 5.1354743048148055e+02,	 2.9526200673085365e+00 
9.9827752500000011e-01,	 2.8585177499999997e-01,	 5.9852709904219252e-02,	 1.5160217538054908e+03,	 2.4023320220479196e+01,	 6.5493979674979539e+02,	 1.1277559745717208e+04,	 5.1360551318037778e+02,	 2.9520946391672820e+00 
9.9876987500000003e-01,	 2.8591264999999999e-01,	 5.9887336853005735e-02,	 1.5159257116873055e+03,	 2.3885955272908138e+01,	 6.5508766035609415e+02,	 1.1286631790911655e+04,	 5.1366348742310379e+02,	 2.9515702766474154e+00 
9.9926202499999994e-01,	 2.8597349999999999e-01,	 5.9921863542089088e-02,	 1.5158298708840166e+03,	 2.3749276009960354e+01,	 6.5523517683036346e+02,	 1.1295681898220531e+04,	 5.1372131904312403e+02,	 2.9510472881933012e+00 
9.9975400000000003e-01,	 2.8603429999999996e-01,	 5.9956318996535710e-02,	 1.5157341506142486e+03,	 2.3613104846061734e+01,	 6.5538247227459192e+02,	 1.1304717692325537e+04,	 5.1377905751665651e+02,	 2.9505252258283501e+00 
9.5416637500000001e-01,	 2.8129372499999999e-01,	 5.0212713208779958e-02,	 1.5434113033492986e+03,	 9.0605870188216855e+01,	 6.0953988293501050e+02,	 8.8053323677667486e+03,	 4.9548447377357752e+02,	 3.1203167887828238e+00 
9.5493912500000000e-01,	 2.8138632500000005e-01,	 5.1030804044161576e-02,	 1.5411077998004821e+03,	 8.3411366544690097e+01,	 6.1368972122039008e+02,	 9.0097179985549792e+03,	 4.9716827877442148e+02,	 3.1043079486051490e+00 
9.5570407500000010e-01,	 2.8147797499999999e-01,	 5.1776113748655817e-02,	 1.5389989344318501e+03,	 7.7003796030111261e+01,	 6.1742554415833717e+02,	 9.1969532811173649e+03,	 4.9867923337290080e+02,	 3.0900107106525456e+00 
9.5646149999999996e-01,	 2.8156869999999995e-01,	 5.2439899967158227e-02,	 1.5371138005131043e+03,	 7.1415586846751538e+01,	 6.2071688657007371e+02,	 9.3645163564715385e+03,	 5.0000663435595197e+02,	 3.0775030054940502e+00 
9.5721140000000005e-01,	 2.8165847500000002e-01,	 5.3040563231771053e-02,	 1.5354025942649907e+03,	 6.6456162523306148e+01,	 6.2366718675110371e+02,	 9.5168003737000035e+03,	 5.0119350469840475e+02,	 3.0663608037643901e+00 
9.5795400000000008e-01,	 2.8174734999999995e-01,	 5.3572734913961001e-02,	 1.5338824612521546e+03,	 6.2143420282301754e+01,	 6.2625939971463208e+02,	 9.6522377943911415e+03,	 5.0223400604717824e+02,	 3.0566245215446086e+00 
9.5868929999999997e-01,	 2.8183537500000000e-01,	 5.4052596904259578e-02,	 1.5325091251600418e+03,	 5.8321085056134550e+01,	 6.2857915179625707e+02,	 9.7747683536793265e+03,	 5.0316331863748042e+02,	 3.0479536144486965e+00 
9.5941759999999998e-01,	 2.8192249999999996e-01,	 5.4476800875842779e-02,	 1.5312936024520534e+03,	 5.4998314123135188e+01,	 6.3061537499626115e+02,	 9.8833935367120430e+03,	 5.0397763488181886e+02,	 3.0403748986304953e+00 
9.6013884999999999e-01,	 2.8200874999999997e-01,	 5.4858780073953013e-02,	 1.5301978088376291e+03,	 5.2054654087222154e+01,	 6.3243769693280012e+02,	 9.9814545064365047e+03,	 5.0470529471934663e+02,	 3.0336177825137849e+00 
9.6085330000000002e-01,	 2.8209419999999996e-01,	 5.5196510679650174e-02,	 1.5292283864327630e+03,	 4.9493477987651112e+01,	 6.3403958017846367e+02,	 1.0068341353764055e+04,	 5.0534406725265279e+02,	 3.0276977690603610e+00 
9.6156097500000004e-01,	 2.8217880000000001e-01,	 5.5500870839569033e-02,	 1.5283544841854471e+03,	 4.7221871423939071e+01,	 6.3547549747650646e+02,	 1.0146787021774209e+04,	 5.0591597312237326e+02,	 3.0224066903584634e+00 
9.6226210000000001e-01,	 2.8226262499999999e-01,	 5.5770662202038995e-02,	 1.5275799904285709e+03,	 4.5240128441535809e+01,	 6.3674174523710451e+02,	 1.0216427610362125e+04,	 5.0641976608208569e+02,	 3.0177529624688519e+00 
9.6295670000000000e-01,	 2.8234565000000000e-01,	 5.6014439469572914e-02,	 1.5268805261787136e+03,	 4.3478262699306505e+01,	 6.3788025669407250e+02,	 1.0279431389955955e+04,	 5.0687230999950981e+02,	 3.0135783652303876e+00 
9.6364499999999997e-01,	 2.8242787499999999e-01,	 5.6231275150520073e-02,	 1.5262586331034331e+03,	 4.1937277624764370e+01,	 6.3888844804991481e+02,	 1.0335533646359876e+04,	 5.0727271627695353e+02,	 3.0098892260314543e+00 
9.6432697499999998e-01,	 2.8250930000000002e-01,	 5.6428115040705634e-02,	 1.5256946771095120e+03,	 4.0561926677978768e+01,	 6.3979945388257318e+02,	 1.0386502873362926e+04,	 5.0763425339829104e+02,	 3.0065618283034290e+00 
9.6500287500000004e-01,	 2.8259000000000001e-01,	 5.6604227425660555e-02,	 1.5251906123152237e+03,	 3.9352918202157916e+01,	 6.4061106267221908e+02,	 1.0432135969135757e+04,	 5.0795612757536753e+02,	 3.0036023514100409e+00 
9.6567272499999990e-01,	 2.8266997500000002e-01,	 5.6765001605871938e-02,	 1.5247311246290901e+03,	 3.8269205448637393e+01,	 6.4134871375440605e+02,	 1.0473813103971874e+04,	 5.0824849419825483e+02,	 3.0009165311007999e+00 
9.6633672500000001e-01,	 2.8274922499999999e-01,	 5.6909803219971161e-02,	 1.5243178455412312e+03,	 3.7311306660080092e+01,	 6.4201038370265098e+02,	 1.0511363953330987e+04,	 5.0851060282597513e+02,	 2.9985105722466097e+00 
9.6699489999999999e-01,	 2.8282777500000000e-01,	 5.7042923873988884e-02,	 1.5239385164575433e+03,	 3.6447723833788608e+01,	 6.4261618200641954e+02,	 1.0545893306281274e+04,	 5.0875046049253723e+02,	 2.9963104289384481e+00 
9.6764747499999992e-01,	 2.8290559999999998e-01,	 5.7163745011903716e-02,	 1.5235948570659950e+03,	 3.5679481313893376e+01,	 6.4316375132478720e+02,	 1.0577235413827686e+04,	 5.0896716591692774e+02,	 2.9943239410506792e+00 
9.6829440000000000e-01,	 2.8298274999999995e-01,	 5.7275705837939679e-02,	 1.5232769709046870e+03,	 3.4982048794700546e+01,	 6.4366917031188154e+02,	 1.0606280186623932e+04,	 5.0916710811793217e+02,	 2.9924921994405032e+00 
9.6893592499999992e-01,	 2.8305924999999998e-01,	 5.7378162220722409e-02,	 1.5229865807824237e+03,	 3.4357206590744404e+01,	 6.4412994400646971e+02,	 1.0632859135786613e+04,	 5.0934932038518809e+02,	 2.9908237909642628e+00 
9.6957207499999998e-01,	 2.8313507500000001e-01,	 5.7473915751255128e-02,	 1.5227157545737884e+03,	 3.3785502123868390e+01,	 6.4455887952810110e+02,	 1.0657695801365453e+04,	 5.0951888373078759e+02,	 2.9892719734948967e+00 
9.7020307499999991e-01,	 2.8321029999999997e-01,	 5.7562313770184080e-02,	 1.5224661344912729e+03,	 3.3269054043233403e+01,	 6.4495353016287697e+02,	 1.0680623451731493e+04,	 5.0967484402167463e+02,	 2.9878453057083667e+00 
9.7082889999999999e-01,	 2.8328487499999999e-01,	 5.7645611875340820e-02,	 1.5222314112740901e+03,	 3.2792873709837657e+01,	 6.4532402305946346e+02,	 1.0702223674560792e+04,	 5.0982121410091634e+02,	 2.9865069373793358e+00 
9.7144975000000000e-01,	 2.8335882499999998e-01,	 5.7723206916178722e-02,	 1.5220131410649560e+03,	 3.2358770188786714e+01,	 6.4566801545427188e+02,	 1.0722342158699616e+04,	 5.0995707705448598e+02,	 2.9852651382291739e+00 
9.7206565000000000e-01,	 2.8343217499999995e-01,	 5.7796928608714174e-02,	 1.5218061315286941e+03,	 3.1955035189638959e+01,	 6.4599379148222999e+02,	 1.0741453228104758e+04,	 5.1008571192300985e+02,	 2.9840898430701808e+00 
9.7267679999999990e-01,	 2.8350494999999998e-01,	 5.7866191153020143e-02,	 1.5216119986173242e+03,	 3.1583663566877494e+01,	 6.4629889011307364e+02,	 1.0759404742411938e+04,	 5.1020615277195623e+02,	 2.9829898004374358e+00 
9.7328322500000009e-01,	 2.8357712499999999e-01,	 5.7932516442857324e-02,	 1.5214264319230617e+03,	 3.1235307952752859e+01,	 6.4659015746885927e+02,	 1.0776591493596139e+04,	 5.1032110706010877e+02,	 2.9819402173896137e+00 
9.7388512500000002e-01,	 2.8364874999999995e-01,	 5.7995289245592323e-02,	 1.5212510076242809e+03,	 3.0912114582886943e+01,	 6.4686517502071570e+02,	 1.0792857104168714e+04,	 5.1042962428653010e+02,	 2.9809497193847818e+00 
9.7448245000000000e-01,	 2.8371985000000000e-01,	 5.8055818451469579e-02,	 1.5210820916396510e+03,	 3.0606411569512552e+01,	 6.4712969523685251e+02,	 1.0808539610262409e+04,	 5.1053397768146590e+02,	 2.9799975124535143e+00 
9.7507542499999988e-01,	 2.8379040000000000e-01,	 5.8113550880476435e-02,	 1.5209212315346124e+03,	 3.0320166887733020e+01,	 6.4738134053406839e+02,	 1.0823495172025316e+04,	 5.1063323211860245e+02,	 2.9790920921208870e+00 
9.7566409999999992e-01,	 2.8386040000000001e-01,	 5.8169545478875359e-02,	 1.5207653142696911e+03,	 3.0047390463743799e+01,	 6.4762501177262288e+02,	 1.0838001855056098e+04,	 5.1072932302988863e+02,	 2.9782157709930481e+00 
9.7624865000000005e-01,	 2.8392990000000001e-01,	 5.8223289669291231e-02,	 1.5206158712110639e+03,	 2.9789921825983548e+01,	 6.4785835517434668e+02,	 1.0851923944774073e+04,	 5.1082132425162757e+02,	 2.9773769685194247e+00 
9.7682905000000009e-01,	 2.8399892500000001e-01,	 5.8275707133009044e-02,	 1.5204702091184904e+03,	 2.9542612368858297e+01,	 6.4808560325871395e+02,	 1.0865503688583902e+04,	 5.1091090632514579e+02,	 2.9765604305667539e+00 
9.7740552500000000e-01,	 2.8406745000000000e-01,	 5.8326275292982351e-02,	 1.5203298028429251e+03,	 2.9307678267691056e+01,	 6.4830447381690499e+02,	 1.0878604787133281e+04,	 5.1099717109871773e+02,	 2.9757743239495209e+00 
9.7797807500000000e-01,	 2.8413547499999997e-01,	 5.8375821136189443e-02,	 1.5201922929600833e+03,	 2.9080580808901157e+01,	 6.4851867090710005e+02,	 1.0891443026512470e+04,	 5.1108157979267685e+02,	 2.9750053156223499e+00 
9.7854690000000000e-01,	 2.8420307499999997e-01,	 5.8423858270274423e-02,	 1.5200590935126775e+03,	 2.8863211383525545e+01,	 6.4872601216310431e+02,	 1.0903890558561605e+04,	 5.1116327353016197e+02,	 2.9742612155453951e+00 
9.7911199999999998e-01,	 2.8427019999999997e-01,	 5.8471092870973990e-02,	 1.5199281342089005e+03,	 2.8652016158009193e+01,	 6.4892973177560532e+02,	 1.0916133071076594e+04,	 5.1124352760355612e+02,	 2.9735303946443921e+00 
9.7967355000000000e-01,	 2.8433690000000000e-01,	 5.8517045894449601e-02,	 1.5198007608909925e+03,	 2.8448809132901477e+01,	 6.4912775191403568e+02,	 1.0928045833471459e+04,	 5.1132152433207574e+02,	 2.9728202875698226e+00 
9.8023155000000006e-01,	 2.8440317500000001e-01,	 5.8562395308238556e-02,	 1.5196751180372878e+03,	 2.8250297468691947e+01,	 6.4932297155818935e+02,	 1.0939803890530384e+04,	 5.1139840634941208e+02,	 2.9721204812062263e+00 
9.8078620000000005e-01,	 2.8446902499999999e-01,	 5.8606653438683369e-02,	 1.5195525053988877e+03,	 2.8058448601419681e+01,	 6.4951337785909857e+02,	 1.0951281965460783e+04,	 5.1147338162808632e+02,	 2.9714381759113619e+00 
9.8133749999999997e-01,	 2.8453447499999995e-01,	 5.8650424098610182e-02,	 1.5194312468777559e+03,	 2.7870307313763416e+01,	 6.4970158673005255e+02,	 1.0962636695406609e+04,	 5.1154748083712599e+02,	 2.9707639840813638e+00 
9.8188567500000001e-01,	 2.8459952499999996e-01,	 5.8693265098768668e-02,	 1.5193125506925596e+03,	 2.7687729978775241e+01,	 6.4988572666212713e+02,	 1.0973753641082374e+04,	 5.1161996768871211e+02,	 2.9701045977294562e+00 
9.8243067500000003e-01,	 2.8466417499999996e-01,	 5.8735714537534255e-02,	 1.5191949351993326e+03,	 2.7508127937298127e+01,	 6.5006810773303698e+02,	 1.0984772174676305e+04,	 5.1169175204108649e+02,	 2.9694517336959869e+00 
9.8297267499999996e-01,	 2.8472850000000000e-01,	 5.8777368098029630e-02,	 1.5190795326772816e+03,	 2.7333043805449041e+01,	 6.5024698185148486e+02,	 1.0995586973647840e+04,	 5.1176214629251405e+02,	 2.9688116397900148e+00 
9.8351172499999995e-01,	 2.8479244999999997e-01,	 5.8818704108063259e-02,	 1.5189649796728177e+03,	 2.7160512451229366e+01,	 6.5042446193560500e+02,	 1.1006323049100740e+04,	 5.1183198236594080e+02,	 2.9681767460253119e+00 
9.8404799999999992e-01,	 2.8485602499999996e-01,	 5.8859324583998451e-02,	 1.5188523474156020e+03,	 2.6991914059383841e+01,	 6.5059889674478404e+02,	 1.1016877849483380e+04,	 5.1190061088024243e+02,	 2.9675529513020567e+00 
9.8458147500000004e-01,	 2.8491929999999999e-01,	 5.8899699139178689e-02,	 1.5187404014128217e+03,	 2.6825206676188337e+01,	 6.5077220527721579e+02,	 1.1027371599945754e+04,	 5.1196878716880786e+02,	 2.9669333856416058e+00 
9.8511237499999993e-01,	 2.8498224999999999e-01,	 5.8939451630897276e-02,	 1.5186301312524174e+03,	 2.6662012107486404e+01,	 6.5094285327999410e+02,	 1.1037707767752961e+04,	 5.1203590798594280e+02,	 2.9663235271944282e+00 
9.8564067499999997e-01,	 2.8504487499999998e-01,	 5.8978994111818228e-02,	 1.5185204381165977e+03,	 2.6500365824893567e+01,	 6.5111255181533954e+02,	 1.1047992388915382e+04,	 5.1210264662577583e+02,	 2.9657172546770507e+00 
9.8616649999999995e-01,	 2.8510720000000001e-01,	 5.9017965737443244e-02,	 1.5184122421714917e+03,	 2.6341823001611427e+01,	 6.5127987355507116e+02,	 1.1058133554351391e+04,	 5.1216844201043716e+02,	 2.9651196616639393e+00 
9.8668992499999997e-01,	 2.8516922499999997e-01,	 5.9056774807185901e-02,	 1.5183044874185214e+03,	 2.6184548547745283e+01,	 6.5144646046797232e+02,	 1.1068235521133554e+04,	 5.1223394004584031e+02,	 2.9645248784806326e+00 
9.8721112499999997e-01,	 2.8523100000000001e-01,	 5.9095073014709315e-02,	 1.5181980670580665e+03,	 2.6029955637566523e+01,	 6.5161093003326368e+02,	 1.1078209441575333e+04,	 5.1229859737519359e+02,	 2.9639378364330677e+00 