TITLE = "Final State"
VARIABLES = "X", "Y", "rho", "u", "v", "T", "p", "c", "M"
ZONE I=98, J=27, DATAPACKING=POINT
1.3750690000000001e+00,	 2.6012380000000002e-01,	 4.2520300243476514e-02,	 1.5309190035507406e+03,	 -3.2346917709512091e+01,	 7.1504317436349970e+02,	 8.7469878907191069e+03,	 5.1314025565070392e+02,	 2.9840977762766343e+00 
1.3782630000000000e+00,	 2.6005629999999996e-01,	 4.2443337265810087e-02,	 1.5315055596907355e+03,	 -3.2252302967519952e+01,	 7.1520998905674401e+02,	 8.7331925077592659e+03,	 5.1320010822013865e+02,	 2.9848885485046348e+00 
1.3814830000000000e+00,	 2.5998830000000001e-01,	 4.2317522911666954e-02,	 1.5324163007124616e+03,	 -3.2233836984674760e+01,	 7.1521003507383887e+02,	 8.7073053540254623e+03,	 5.1320012472995961e+02,	 2.9866619337432030e+00 
1.3847300000000000e+00,	 2.5991969999999998e-01,	 4.2150760770273944e-02,	 1.5334776277410447e+03,	 -3.2242532503271249e+01,	 7.1502226426038715e+02,	 8.6707151693652922e+03,	 5.1313275268131270e+02,	 2.9891222966117588e+00 
1.3880049999999999e+00,	 2.5985049999999998e-01,	 4.1949787577128084e-02,	 1.5346759302899563e+03,	 -3.2237986096688701e+01,	 7.1464139984079679e+02,	 8.6247770055293331e+03,	 5.1299607159476409e+02,	 2.9922538975188830e+00 
1.3913059999999999e+00,	 2.5978069999999998e-01,	 4.1719619608689716e-02,	 1.5360057830377168e+03,	 -3.2227431038794180e+01,	 7.1408607104201633e+02,	 8.5707897043143439e+03,	 5.1279671506626619e+02,	 2.9960095058022245e+00 
1.3946350000000001e+00,	 2.5971040000000001e-01,	 4.1460794692574771e-02,	 1.5374704629494177e+03,	 -3.2213997223590063e+01,	 7.1335136237824850e+02,	 8.5088536618627222e+03,	 5.1253284411031416e+02,	 3.0004085143446582e+00 
1.3979919999999999e+00,	 2.5963939999999996e-01,	 4.1172768953287392e-02,	 1.5390719476657482e+03,	 -3.2221613148654924e+01,	 7.1242801021899390e+02,	 8.4388059173880720e+03,	 5.1220102898106825e+02,	 3.0054785431926794e+00 
1.4013760000000000e+00,	 2.5956789999999996e-01,	 4.0860826376359294e-02,	 1.5407973399098069e+03,	 -3.2208217656726163e+01,	 7.1134603530563140e+02,	 8.3621508619043707e+03,	 5.1181193757144058e+02,	 3.0111332384559453e+00 
1.4047890000000001e+00,	 2.5949580000000000e-01,	 4.0524240508967593e-02,	 1.5426511189042440e+03,	 -3.2209409467636220e+01,	 7.1009440126099844e+02,	 8.2786764587183734e+03,	 5.1136146533217953e+02,	 3.0174102687520161e+00 
1.4082300000000001e+00,	 2.5942309999999996e-01,	 4.0164372626525960e-02,	 1.5446307373074410e+03,	 -3.2235748666411489e+01,	 7.0867740501064100e+02,	 8.1887858038169325e+03,	 5.1085099860903114e+02,	 3.0243007798425783e+00 
1.4116990000000000e+00,	 2.5934970000000002e-01,	 3.9785757647201159e-02,	 1.5467209749656513e+03,	 -3.2259258485788067e+01,	 7.0712178815188440e+02,	 8.0937873413151674e+03,	 5.1029000639711910e+02,	 3.0317218196777147e+00 
1.4151980000000000e+00,	 2.5927580000000000e-01,	 3.9392567584042804e-02,	 1.5489110472073307e+03,	 -3.2253721023687845e+01,	 7.0545196418173430e+02,	 7.9948749139717502e+03,	 5.0968714127861273e+02,	 3.0396035189572816e+00 
1.4187250000000000e+00,	 2.5920129999999997e-01,	 3.8982360663070398e-02,	 1.5512085647524464e+03,	 -3.2280814297697830e+01,	 7.0364732276031384e+02,	 7.8913828253870270e+03,	 5.0903479953726281e+02,	 3.0480124608104271e+00 
1.4222830000000000e+00,	 2.5912609999999997e-01,	 3.8558756200962413e-02,	 1.5536021536506287e+03,	 -3.2322416304672899e+01,	 7.0172968766767758e+02,	 7.7843580603859036e+03,	 5.0834069544804112e+02,	 3.0568836259796157e+00 
1.4258690000000001e+00,	 2.5905030000000001e-01,	 3.8125517227159372e-02,	 1.5560800103300642e+03,	 -3.2353562268593393e+01,	 6.9972152798307548e+02,	 7.6748680484841634e+03,	 5.0761280785151655e+02,	 3.0661486330427206e+00 
1.4294860000000000e+00,	 2.5897389999999998e-01,	 3.7683213566699687e-02,	 1.5586407650676833e+03,	 -3.2389255759572620e+01,	 6.9762318998207832e+02,	 7.5630814559935206e+03,	 5.0685111698998128e+02,	 3.0758090652937113e+00 
1.4331320000000001e+00,	 2.5889679999999998e-01,	 3.7233044833587609e-02,	 1.5612793584265778e+03,	 -3.2440960346808914e+01,	 6.9543860023359173e+02,	 7.4493311937532198e+03,	 5.0605689887144814e+02,	 3.0858513379140891e+00 
1.4368090000000000e+00,	 2.5881909999999997e-01,	 3.6778367189946065e-02,	 1.5639849713149079e+03,	 -3.2481907787472011e+01,	 6.9318915568056798e+02,	 7.3345612867120881e+03,	 5.0523779784538152e+02,	 3.0962098339453181e+00 
1.4405170000000000e+00,	 2.5874069999999999e-01,	 3.6319445082146476e-02,	 1.5667544238370695e+03,	 -3.2529160537958191e+01,	 6.9087395881848829e+02,	 7.2188491227343111e+03,	 5.0439336506233991e+02,	 3.1068847914077451e+00 
1.4442560000000000e+00,	 2.5866169999999999e-01,	 3.5858791086761183e-02,	 1.5695791638362562e+03,	 -3.2564124131723922e+01,	 6.8850987253154153e+02,	 7.1029008683262473e+03,	 5.0352963929995508e+02,	 3.1178242740463098e+00 
1.4480249999999999e+00,	 2.5858209999999998e-01,	 3.5395126596613959e-02,	 1.5724629803341245e+03,	 -3.2621781364018510e+01,	 6.8608533572583383e+02,	 6.9863693901620500e+03,	 5.0264228615452032e+02,	 3.1290668681074059e+00 
1.4518260000000001e+00,	 2.5850170000000000e-01,	 3.4930926426486930e-02,	 1.5753953202854352e+03,	 -3.2679559550231787e+01,	 6.8361646255482185e+02,	 6.8699338317266056e+03,	 5.0173709375359277e+02,	 3.1405575773964927e+00 
1.4556590000000000e+00,	 2.5842080000000001e-01,	 3.4468251269988398e-02,	 1.5783706616622353e+03,	 -3.2718438840856713e+01,	 6.8111745659795167e+02,	 6.7541577349827530e+03,	 5.0081918727255800e+02,	 3.1522549049586233e+00 
1.4595240000000000e+00,	 2.5833909999999999e-01,	 3.4003950386872463e-02,	 1.5813974709429408e+03,	 -3.2798669494269710e+01,	 6.7856008531305645e+02,	 6.6381585481406473e+03,	 4.9987809768113436e+02,	 3.1642465812224123e+00 
1.4634210000000001e+00,	 2.5825670000000001e-01,	 3.3543027692960511e-02,	 1.5844579006432793e+03,	 -3.2855698521215217e+01,	 6.7598058972098920e+02,	 6.5232860632070779e+03,	 4.9892706833723997e+02,	 3.1764131802475810e+00 
1.4673510000000001e+00,	 2.5817370000000001e-01,	 3.3085269176182604e-02,	 1.5875529310071965e+03,	 -3.2900139235292578e+01,	 6.7337589581064753e+02,	 6.4094708410587609e+03,	 4.9796490566909557e+02,	 3.1887664861298268e+00 
1.4713130000000001e+00,	 2.5808999999999999e-01,	 3.2628396023213053e-02,	 1.5906902329727745e+03,	 -3.2975709218976405e+01,	 6.7072561029818257e+02,	 6.2960845517807375e+03,	 4.9698398972109919e+02,	 3.2013747518106066e+00 
1.4753080000000001e+00,	 2.5800550000000000e-01,	 3.2175074462666313e-02,	 1.5938590912531383e+03,	 -3.3047996664162291e+01,	 6.6804982625616117e+02,	 6.1838415569732406e+03,	 4.9599166830527258e+02,	 3.2141702662590643e+00 
1.4793369999999999e+00,	 2.5792039999999999e-01,	 3.1726399490878396e-02,	 1.5970558135746533e+03,	 -3.3103169843352632e+01,	 6.6535798933980550e+02,	 6.0730394461590849e+03,	 4.9499138637474402e+02,	 3.2271245433880620e+00 
1.4833989999999999e+00,	 2.5783449999999997e-01,	 3.1280985654741446e-02,	 1.6002829141873553e+03,	 -3.3169035859458887e+01,	 6.6263900725667747e+02,	 5.9633096942763123e+03,	 4.9397896109048258e+02,	 3.2402728665905292e+00 
1.4874959999999999e+00,	 2.5774799999999998e-01,	 3.0839966035641632e-02,	 1.6035400872330247e+03,	 -3.3222567839524743e+01,	 6.5990408495772044e+02,	 5.8549696111304620e+03,	 4.9295850278587756e+02,	 3.2535886859047207e+00 
1.4916259999999999e+00,	 2.5766069999999996e-01,	 3.3123586595522614e-02,	 1.5015370214478326e+03,	 -3.4524873453509322e+01,	 7.7623243540637100e+02,	 7.3970589413181733e+03,	 5.3464541479608658e+02,	 2.8092149357684293e+00 
1.4957910000000001e+00,	 2.5757269999999999e-01,	 6.7283728956803818e-02,	 4.1560910214572721e+02,	 1.2646071017155176e+01,	 2.1208715969073974e+03,	 4.1053894895430734e+04,	 8.8374534973556160e+02,	 4.7049917017819115e-01 
1.4999910000000001e+00,	 2.5748389999999999e-01,	 8.5795487262924006e-02,	 -8.0347278513548986e+01,	 6.9116354536533589e+00,	 2.6281446112664717e+03,	 6.4869961587959915e+04,	 9.8377228337585154e+02,	 8.1974262121993893e-02 
1.5042249999999999e+00,	 2.5739439999999997e-01,	 7.5821362734737774e-02,	 -3.4230559376107192e+02,	 1.2428156937823850e+01,	 3.0659405599198162e+03,	 6.6878304453188044e+04,	 1.0625559779392561e+03,	 3.2236526107428976e-01 
1.5084960000000001e+00,	 2.5730419999999998e-01,	 7.2096890742205599e-02,	 -5.4022213033049957e+02,	 1.4161659482372279e+01,	 3.0879463251245443e+03,	 6.4049569635424545e+04,	 1.0663624037550355e+03,	 5.0677679280946808e-01 
1.5128010000000001e+00,	 2.5721319999999998e-01,	 7.1552085547663125e-02,	 -6.5751702874379566e+02,	 1.5621197863593302e+01,	 2.9930728701612911e+03,	 6.1612598386057405e+04,	 1.0498532542659148e+03,	 6.2647095012007481e-01 
1.5171429999999999e+00,	 2.5712140000000000e-01,	 7.1337703005287259e-02,	 -7.1934172949565300e+02,	 1.5828887736062551e+01,	 2.9275406373820797e+03,	 6.0083052832979738e+04,	 1.0382965708538520e+03,	 6.9297721234588383e-01 
1.5215209999999999e+00,	 2.5702890000000000e-01,	 7.1897284343049095e-02,	 -7.4355881838942992e+02,	 1.5869280623558705e+01,	 2.8824765024171656e+03,	 5.9622227857456775e+04,	 1.0302742402807421e+03,	 7.2187395722012604e-01 
1.5259360000000000e+00,	 2.5693559999999999e-01,	 7.3384040515580645e-02,	 -7.3443278662973910e+02,	 1.5252609712878964e+01,	 2.8618356572412131e+03,	 6.0419377752267646e+04,	 1.0265788176279009e+03,	 7.1557209159413393e-01 
1.5303869999999999e+00,	 2.5684160000000000e-01,	 7.6216243631073793e-02,	 -6.9422097522969625e+02,	 1.4105890590743520e+01,	 2.8734357364518291e+03,	 6.3005573154398051e+04,	 1.0286572655431974e+03,	 6.7502004082777634e-01 
1.5348759999999999e+00,	 2.5674669999999999e-01,	 7.9960638708498150e-02,	 -6.3079564719688074e+02,	 1.2416451604371176e+01,	 2.9127061176190741e+03,	 6.7004328621033623e+04,	 1.0356625864502605e+03,	 6.0919245809867217e-01 
1.5394019999999999e+00,	 2.5665099999999996e-01,	 8.3795447191971628e-02,	 -5.5346968938525652e+02,	 1.0480569447745971e+01,	 2.9723434553449119e+03,	 7.1655470394465156e+04,	 1.0462114024196062e+03,	 5.2911764284055007e-01 
1.5439659999999999e+00,	 2.5655459999999997e-01,	 8.6875548015240528e-02,	 -4.7028397201476844e+02,	 8.5228620223148681e+00,	 3.0486714749321354e+03,	 7.6197043706900164e+04,	 1.0595592986786817e+03,	 4.4392153919084060e-01 
1.5485690000000001e+00,	 2.5645730000000000e-01,	 8.8531165655986982e-02,	 -3.8822937529571789e+02,	 6.7040269097851048e+00,	 3.1415494604298165e+03,	 8.0014744266558890e+04,	 1.0755779847387898e+03,	 3.6100334868086620e-01 
1.5532090000000001e+00,	 2.5635930000000001e-01,	 8.8683852929130252e-02,	 -3.1239024914815991e+02,	 5.3255231402456928e+00,	 3.2507548855863834e+03,	 8.2938984667276251e+04,	 1.0941127160000465e+03,	 2.8556074263531173e-01 
1.5578890000000001e+00,	 2.5626040000000000e-01,	 8.7330507650447142e-02,	 -2.4722614141899408e+02,	 4.1157317936623317e+00,	 3.3733552140367906e+03,	 8.4753569275486894e+04,	 1.1145536820438454e+03,	 2.2184700624093656e-01 
1.5626070000000001e+00,	 2.5616069999999996e-01,	 8.5356183698105242e-02,	 -1.9530088325654123e+02,	 3.2850409424110816e+00,	 3.4934627326550990e+03,	 8.5786913260472458e+04,	 1.1342218538725190e+03,	 1.7221367098828214e-01 
1.5673649999999999e+00,	 2.5606010000000001e-01,	 8.3624394622410794e-02,	 -1.5722316685966121e+02,	 2.7343750867123213e+00,	 3.5852723496789431e+03,	 8.6255158202829727e+04,	 1.1490291047358940e+03,	 1.3685201019082494e-01 
1.5721630000000000e+00,	 2.5595869999999998e-01,	 8.2731544940886859e-02,	 -1.3242000555848279e+02,	 2.4355901357184893e+00,	 3.6286750720230007e+03,	 8.6367262261108859e+04,	 1.1559631616993827e+03,	 1.1457320341679600e-01 
1.5770010000000001e+00,	 2.5585649999999999e-01,	 8.2520329994556399e-02,	 -1.1914347081065416e+02,	 2.3399479743901228e+00,	 3.6330657136501468e+03,	 8.6251001546060041e+04,	 1.1566622991957690e+03,	 1.0302613535058834e-01 
1.5818800000000000e+00,	 2.5575339999999996e-01,	 8.2457409028243792e-02,	 -1.1516556115985998e+02,	 2.3998299347053145e+00,	 3.6238196974296607e+03,	 8.5965897779374136e+04,	 1.1551895304402899e+03,	 9.9715725725273430e-02 
1.5867990000000001e+00,	 2.5564939999999997e-01,	 8.2291881714018689e-02,	 -1.1845169256482869e+02,	 2.5977838043132344e+00,	 3.6133651331432666e+03,	 8.5545817359259017e+04,	 1.1535219907702310e+03,	 1.0271167459577601e-01 
1.5917600000000001e+00,	 2.5554460000000001e-01,	 8.2055745392454735e-02,	 -1.2743696020595830e+02,	 3.0923518396944707e+00,	 3.6019470217083563e+03,	 8.5030797681068158e+04,	 1.1516980034852531e+03,	 1.1068394092718324e-01 
1.5967620000000000e+00,	 2.5543889999999997e-01,	 8.1743987694444409e-02,	 -1.4019902962148981e+02,	 3.4477923984839780e+00,	 3.5890353885760328e+03,	 8.4404091187128099e+04,	 1.1496319469793098e+03,	 1.2198810050221259e-01 
1.6018060000000001e+00,	 2.5533230000000001e-01,	 8.1339773855887171e-02,	 -1.5620334450307797e+02,	 3.5925903057509148e+00,	 3.5747791321665090e+03,	 8.3653113978323076e+04,	 1.1473464086860154e+03,	 1.3617914489522781e-01 
1.6068920000000000e+00,	 2.5522479999999997e-01,	 8.0883534445815919e-02,	 -1.7418077115061638e+02,	 3.9206978441220000e+00,	 3.5595181477357564e+03,	 8.2828780976399517e+04,	 1.1448947378981100e+03,	 1.5217546731321732e-01 
1.6120200000000000e+00,	 2.5511639999999997e-01,	 8.0424814920470100e-02,	 -1.9199990219055437e+02,	 4.3229977831342712e+00,	 3.5439827415936015e+03,	 8.1999575841257712e+04,	 1.1423935771337449e+03,	 1.6811068213832506e-01 
1.6171920000000000e+00,	 2.5500719999999999e-01,	 8.0009290005950098e-02,	 -2.0739989101164252e+02,	 4.6335093306026716e+00,	 3.5293275402555855e+03,	 8.1238579151875791e+04,	 1.1400290972511693e+03,	 1.8197048087726839e-01 
1.6224069999999999e+00,	 2.5489699999999998e-01,	 7.9709809085124678e-02,	 -2.1839193332553037e+02,	 4.7348603156575226e+00,	 3.5161936557631716e+03,	 8.0633310825343884e+04,	 1.1379058930053354e+03,	 1.9196952565191655e-01 
1.6276649999999999e+00,	 2.5478580000000001e-01,	 7.9593797907815220e-02,	 -2.2257128740517530e+02,	 4.6289475711408468e+00,	 3.5056978916206181e+03,	 8.0275617131276464e+04,	 1.1362063111690613e+03,	 1.9593221363235069e-01 
1.6329680000000000e+00,	 2.5467380000000001e-01,	 7.9705614346378253e-02,	 -2.1886230614881526e+02,	 4.4230948859473269e+00,	 3.4989754236420463e+03,	 8.0234239973242700e+04,	 1.1351164032572028e+03,	 1.9284982156622668e-01 
1.6383150000000000e+00,	 2.5456079999999998e-01,	 8.0040931516306368e-02,	 -2.0730460077798506e+02,	 4.0701689145028164e+00,	 3.4955793407178048e+03,	 8.0493578592576829e+04,	 1.1345654012039240e+03,	 1.8275240287533434e-01 
1.6437059999999999e+00,	 2.5444679999999997e-01,	 8.0531740055482526e-02,	 -1.8925112191401396e+02,	 3.6037449684758514e+00,	 3.4950247084246093e+03,	 8.0974312777998217e+04,	 1.1344753887178924e+03,	 1.6684842366920391e-01 
1.6491430000000000e+00,	 2.5433190000000000e-01,	 8.1090034023170943e-02,	 -1.6677804236752752e+02,	 3.0753842648934024e+00,	 3.4962057830362855e+03,	 8.1563228295192544e+04,	 1.1346670593085014e+03,	 1.4700911038693124e-01 
1.6546250000000000e+00,	 2.5421610000000000e-01,	 8.1653038379504814e-02,	 -1.4232332969062298e+02,	 2.5385061890472178e+00,	 3.4968974833016500e+03,	 8.2145766777683049e+04,	 1.1347792967938351e+03,	 1.2543934043744714e-01 
1.6601539999999999e+00,	 2.5409929999999997e-01,	 8.2168695018688620e-02,	 -1.1802262229643404e+02,	 2.0261976105972126e+00,	 3.4960370349811965e+03,	 8.2644194627219113e+04,	 1.1346396760276280e+03,	 1.0403303908940216e-01 
1.6657280000000001e+00,	 2.5398149999999997e-01,	 8.2615465339475253e-02,	 -9.5174109023600309e+01,	 1.5775955722924442e+00,	 3.4940595650809287e+03,	 8.3046549991342254e+04,	 1.1343187364675509e+03,	 8.3915728525694899e-02 
1.6713499999999999e+00,	 2.5386270000000000e-01,	 8.2999158891576136e-02,	 -7.4177800799988447e+01,	 1.1639519009058594e+00,	 3.4905043076784041e+03,	 8.3347352096458519e+04,	 1.1337414965280259e+03,	 6.5435491661609640e-02 
1.6770179999999999e+00,	 2.5374289999999999e-01,	 8.3329786262090366e-02,	 -5.4781535901632466e+01,	 7.7635463866831622e-01,	 3.4864810558370646e+03,	 8.3582915342443521e+04,	 1.1330879172315326e+03,	 4.8351973377723671e-02 
1.6827340000000000e+00,	 2.5362209999999996e-01,	 8.3613469272317484e-02,	 -3.6413070577701937e+01,	 3.9888127824797726e-01,	 3.4828523781996732e+03,	 8.3780172085068611e+04,	 1.1324981131993977e+03,	 3.2154804347118711e-02 
1.6884980000000001e+00,	 2.5350030000000001e-01,	 8.3842628356100041e-02,	 -1.8613635575634500e+01,	 2.9135866751680006e-02,	 3.4802471016902014e+03,	 8.3946946246301872e+04,	 1.1320744629298515e+03,	 1.6442079552425527e-02 
1.6943100000000000e+00,	 2.5337749999999998e-01,	 8.4005597229365070e-02,	 -1.2918511221868865e+00,	 -3.2865657630965028e-01,	 3.4787589596170810e+03,	 8.4074152680810847e+04,	 1.1318324014153698e+03,	 1.1777380193276087e-03 
1.7001710000000001e+00,	 2.5325359999999997e-01,	 8.4094009073802628e-02,	 1.5257938083448092e+01,	 -6.5657453038395364e-01,	 3.4782805320184125e+03,	 8.4151061937224833e+04,	 1.1317545692799226e+03,	 1.3494143264825091e-02 
1.7060800000000000e+00,	 2.5312869999999998e-01,	 8.4098450429485772e-02,	 3.0460772372396036e+01,	 -9.6310776557463440e-01,	 3.4782667233088341e+03,	 8.4155172210299526e+04,	 1.1317523227553067e+03,	 2.6928148245987028e-02 
1.7120400000000000e+00,	 2.5300279999999997e-01,	 8.4040290228644010e-02,	 4.3893999305461115e+01,	 -1.2117140617800755e+00,	 3.4784182754911444e+03,	 8.4100636986478668e+04,	 1.1317769783783090e+03,	 3.8798033465510910e-02 
1.7180489999999999e+00,	 2.5287579999999998e-01,	 8.3934177000559412e-02,	 5.5399485288139886e+01,	 -1.4196548292978264e+00,	 3.4782783951115307e+03,	 8.3991069826719497e+04,	 1.1317542216290537e+03,	 4.8966172268226638e-02 
1.7241089999999999e+00,	 2.5274769999999996e-01,	 8.3805197748090671e-02,	 6.4950376821677310e+01,	 -1.5930628338429631e+00,	 3.4777279354665502e+03,	 8.3848731454102293e+04,	 1.1316646644392522e+03,	 5.7410921059719414e-02 
1.7302190000000000e+00,	 2.5261859999999997e-01,	 8.3671388435120203e-02,	 7.2728358039986531e+01,	 -1.7286331648229147e+00,	 3.4767414438773076e+03,	 8.3691106094294330e+04,	 1.1315041491728016e+03,	 6.4293974151801353e-02 
1.7363810000000000e+00,	 2.5248840000000000e-01,	 8.3546494479028427e-02,	 7.9001571515793358e+01,	 -1.8389189037872993e+00,	 3.4754253516563117e+03,	 8.3534549406810082e+04,	 1.1312899680513137e+03,	 6.9852091947261843e-02 
1.7425940000000000e+00,	 2.5235710000000000e-01,	 8.3440113608223315e-02,	 8.4016893508175968e+01,	 -1.9287630021918376e+00,	 3.4740307333787578e+03,	 8.3394705694035452e+04,	 1.1310629633230637e+03,	 7.4300929723711981e-02 
1.7488600000000001e+00,	 2.5222469999999997e-01,	 8.3354707384994703e-02,	 8.8110006201661363e+01,	 -2.0052677264991750e+00,	 3.4728811297514776e+03,	 8.3281777762425307e+04,	 1.1308758058433982e+03,	 7.7933245559607817e-02 
1.7551779999999999e+00,	 2.5209120000000002e-01,	 8.3284552975751658e-02,	 9.1510177474974554e+01,	 -2.0716423189023714e+00,	 3.4722446357960607e+03,	 8.3196434072007731e+04,	 1.1307721701917453e+03,	 8.0947892244720321e-02 
1.7615490000000000e+00,	 2.5195649999999997e-01,	 8.3218813057647834e-02,	 9.4353474819714805e+01,	 -2.1287677559829179e+00,	 3.4723924225743840e+03,	 8.3134301947725384e+04,	 1.1307962340777087e+03,	 8.3461089761988669e-02 
1.7679730000000000e+00,	 2.5182080000000001e-01,	 8.3142450828666697e-02,	 9.6680274526212756e+01,	 -2.1768412770836028e+00,	 3.4734841933852035e+03,	 8.3084131918545318e+04,	 1.1309739895190078e+03,	 8.5505749083182148e-02 
1.7744510000000000e+00,	 2.5168390000000002e-01,	 8.3037326118697879e-02,	 9.8431203351981537e+01,	 -2.2141639274762452e+00,	 3.4756090937642321e+03,	 8.3029843313916586e+04,	 1.1313198727154959e+03,	 8.7027644319245132e-02 
1.7809839999999999e+00,	 2.5154579999999999e-01,	 8.2884022367016183e-02,	 9.9471807242056286e+01,	 -2.2347179174122660e+00,	 3.4787265420708281e+03,	 8.2950889518967902e+04,	 1.1318271277940687e+03,	 8.7908218527464999e-02 
1.7875710000000000e+00,	 2.5140659999999998e-01,	 8.2660947256141343e-02,	 9.9593496184255201e+01,	 -2.2343796818088411e+00,	 3.4826452182896801e+03,	 8.2820824523569856e+04,	 1.1324644322289680e+03,	 8.7966168601545353e-02 
1.7942140000000000e+00,	 2.5126620000000000e-01,	 8.2356118120212721e-02,	 9.8601006641482911e+01,	 -2.2106345389495656e+00,	 3.4869500241335641e+03,	 8.2617400923000139e+04,	 1.1331641207780162e+03,	 8.7035746131184630e-02 
1.8009120000000001e+00,	 2.5112469999999998e-01,	 8.1965072870696959e-02,	 9.6350823503877649e+01,	 -2.1605203443229146e+00,	 3.4911371335555127e+03,	 8.2323850486949086e+04,	 1.1338442651221710e+03,	 8.4998484017548531e-02 
1.8076669999999999e+00,	 2.5098189999999998e-01,	 8.1493235491097549e-02,	 9.2796130616357402e+01,	 -2.0808488581437383e+00,	 3.4946503935065507e+03,	 8.1932316398942421e+04,	 1.1344146362957827e+03,	 8.1821456689768965e-02 
1.8144780000000000e+00,	 2.5083800000000001e-01,	 8.0975609282476921e-02,	 8.8055700396695087e+01,	 -1.9735433079282181e+00,	 3.4962498853149691e+03,	 8.1449163251586011e+04,	 1.1346742158158925e+03,	 7.7623878603382726e-02 
1.8213459999999999e+00,	 2.5069290000000000e-01,	 8.0511286342928673e-02,	 8.2335076532363445e+01,	 -1.8439026983369102e+00,	 3.4925050318537628e+03,	 8.0895384480063323e+04,	 1.1340663749512128e+03,	 7.2619842154416567e-02 
1.8282719999999999e+00,	 2.5054650000000001e-01,	 8.0330922799763227e-02,	 7.5895823446321600e+01,	 -1.6966647709949538e+00,	 3.4747578552922869e+03,	 8.0304011180597139e+04,	 1.1311813240544789e+03,	 6.7111067064223942e-02 
1.8352560000000000e+00,	 2.5039889999999998e-01,	 8.0866088728375599e-02,	 6.9046301687852463e+01,	 -1.5377055081754989e+00,	 3.4262205504866765e+03,	 7.9709794799652649e+04,	 1.1232530625925247e+03,	 6.1485185048796076e-02 
1.8422980000000000e+00,	 2.5025009999999998e-01,	 8.4034716205511006e-02,	 6.1545180335513699e+01,	 -1.3606181839903004e+00,	 3.2732811873567180e+03,	 7.9135616433940144e+04,	 1.0978970313894827e+03,	 5.6071031035810917e-02 
1.8493999999999999e+00,	 2.5009999999999999e-01,	 8.6800213521097958e-02,	 5.4369909958064724e+01,	 -1.1919151013561129e+00,	 3.1422890773805370e+03,	 7.8468773920245178e+04,	 1.0757045892857936e+03,	 5.0555676445398982e-02 
1.3750690000000001e+00,	 2.6096219999999998e-01,	 4.3700523647561947e-02,	 1.5417994165754899e+03,	 -3.2320641401264282e+01,	 6.9612751086856974e+02,	 8.7519610425457868e+03,	 5.0630749014096523e+02,	 3.0458529197227828e+00 
1.3782630000000000e+00,	 2.6089599999999996e-01,	 4.3620977841887169e-02,	 1.5423622857767543e+03,	 -3.2193975502372602e+01,	 6.9629497950256098e+02,	 8.7381319423310124e+03,	 5.0636838812551917e+02,	 3.0465927186068802e+00 
1.3814839999999999e+00,	 2.6082929999999999e-01,	 4.3485116581419826e-02,	 1.5432291417211381e+03,	 -3.1985227304630317e+01,	 6.9630772424450731e+02,	 8.7110757258029589e+03,	 5.0637302230003996e+02,	 3.0482677863179233e+00 
1.3847309999999999e+00,	 2.6076210000000000e-01,	 4.3313130432476220e-02,	 1.5442139933121466e+03,	 -3.1689198370129247e+01,	 6.9617430154085719e+02,	 8.6749603505720006e+03,	 5.0632450575189768e+02,	 3.0504925052827607e+00 
1.3880049999999999e+00,	 2.6069429999999999e-01,	 4.3105155718521998e-02,	 1.5453301371423061e+03,	 -3.1464184061795194e+01,	 6.9587093919807478e+02,	 8.6295441652781756e+03,	 5.0621417668301439e+02,	 3.0533526981115089e+00 
1.3913070000000001e+00,	 2.6062589999999997e-01,	 4.2864693673945582e-02,	 1.5465735004976855e+03,	 -3.1258979484134947e+01,	 6.9539794021407329e+02,	 8.5755712947792199e+03,	 5.0604210490966312e+02,	 3.0568392487518250e+00 
1.3946360000000000e+00,	 2.6055689999999998e-01,	 4.2594196974935182e-02,	 1.5479394588970831e+03,	 -3.1054873746814820e+01,	 6.9476129498610305e+02,	 8.5136538467977243e+03,	 5.0581040803234157e+02,	 3.0609313599271339e+00 
1.3979919999999999e+00,	 2.6048739999999998e-01,	 4.2293622651640765e-02,	 1.5494301721990425e+03,	 -3.0875390222404192e+01,	 6.9395394929055567e+02,	 8.4437521177689359e+03,	 5.0551643471936694e+02,	 3.0656525903719065e+00 
1.4013770000000001e+00,	 2.6041729999999996e-01,	 4.1966852280828311e-02,	 1.5510363107442645e+03,	 -3.0698161164747493e+01,	 6.9299645495968548e+02,	 8.3669533323708274e+03,	 5.0516756704741169e+02,	 3.0709415483054947e+00 
1.4047890000000001e+00,	 2.6034669999999999e-01,	 4.1615159321946683e-02,	 1.5527583960961633e+03,	 -3.0535960644734963e+01,	 6.9189077579943580e+02,	 8.2835984811116014e+03,	 5.0476440753712330e+02,	 3.0767989941861527e+00 
1.4082300000000001e+00,	 2.6027539999999999e-01,	 4.1239402781624773e-02,	 1.5545956693145081e+03,	 -3.0405708967263614e+01,	 6.9063824173557032e+02,	 8.1939427834091457e+03,	 5.0430731153973579e+02,	 3.0832251521955079e+00 
1.4117000000000000e+00,	 2.6020349999999998e-01,	 4.0842888629917334e-02,	 1.5565396617400772e+03,	 -3.0298949038185018e+01,	 6.8925052005559257e+02,	 8.0988525115476987e+03,	 5.0380039630338155e+02,	 3.0901812276433449e+00 
1.4151980000000000e+00,	 2.6013110000000000e-01,	 4.0430362389814373e-02,	 1.5585776229466856e+03,	 -3.0183700835943647e+01,	 6.8775729166801011e+02,	 7.9996829506599324e+03,	 5.0325437063993735e+02,	 3.0975783978106231e+00 
1.4187259999999999e+00,	 2.6005800000000001e-01,	 4.0001558668600591e-02,	 1.5607123218085690e+03,	 -3.0092450558379451e+01,	 6.8615319403825856e+02,	 7.8963781992513823e+03,	 5.0266714283937438e+02,	 3.1054395076177883e+00 
1.4222830000000000e+00,	 2.5998440000000000e-01,	 3.9558322286899997e-02,	 1.5629395207405798e+03,	 -3.0031893196538924e+01,	 6.8444213177329254e+02,	 7.7894095224261737e+03,	 5.0204000034242938e+02,	 3.1137519411989163e+00 
1.4258700000000000e+00,	 2.5991009999999998e-01,	 3.9103987955971975e-02,	 1.5652468058478669e+03,	 -2.9981336232322597e+01,	 6.8264662429451005e+02,	 7.6797473880356583e+03,	 5.0138106331543798e+02,	 3.1224432493650296e+00 
1.4294860000000000e+00,	 2.5983519999999999e-01,	 3.8640636499225507e-02,	 1.5676315101583227e+03,	 -2.9940062390046048e+01,	 6.8077289302005909e+02,	 7.5679188024526438e+03,	 5.0069249408692468e+02,	 3.1314977036283707e+00 
1.4331330000000000e+00,	 2.5975969999999998e-01,	 3.8169104961657062e-02,	 1.5700900553398883e+03,	 -2.9921848167491689e+01,	 6.7882183456779842e+02,	 7.4541429446578823e+03,	 4.9997450042195663e+02,	 3.1409104755928494e+00 
1.4368099999999999e+00,	 2.5968350000000001e-01,	 3.7692195965588537e-02,	 1.5726132112208891e+03,	 -2.9908977731552369e+01,	 6.7681019911832686e+02,	 7.3391923904815103e+03,	 4.9923313309161409e+02,	 3.1506274231679043e+00 
1.4405180000000000e+00,	 2.5960669999999997e-01,	 3.7211150200012533e-02,	 1.5751979821339557e+03,	 -2.9907138736178130e+01,	 6.7473950458007243e+02,	 7.2233584999197556e+03,	 4.9846884848900049e+02,	 3.1606425835372089e+00 
1.4442560000000000e+00,	 2.5952929999999996e-01,	 3.6728004427524080e-02,	 1.5778370847655424e+03,	 -2.9904449263899988e+01,	 6.7262293423725976e+02,	 7.1072066108176114e+03,	 4.9768641833709182e+02,	 3.1709132254265713e+00 
1.4480260000000000e+00,	 2.5945119999999999e-01,	 3.6242661256698165e-02,	 1.5805322847164409e+03,	 -2.9917221756199517e+01,	 6.7045602817224767e+02,	 6.9906944012147851e+03,	 4.9688410426610307e+02,	 3.1814569855508994e+00 
1.4518270000000000e+00,	 2.5937250000000001e-01,	 3.5756197573820342e-02,	 1.5832781927131675e+03,	 -2.9945550427140940e+01,	 6.6824168434585761e+02,	 6.8740839057956609e+03,	 4.9606288543530229e+02,	 3.1922592952116284e+00 
1.4556600000000000e+00,	 2.5929310000000000e-01,	 3.5271247813988209e-02,	 1.5860678311765214e+03,	 -2.9962204424154741e+01,	 6.6599793497579628e+02,	 6.7580849141533254e+03,	 4.9522937212975575e+02,	 3.2032647926249083e+00 
1.4595250000000000e+00,	 2.5921309999999997e-01,	 3.4786071565981375e-02,	 1.5889076342935953e+03,	 -3.0006904474647826e+01,	 6.6370535309370109e+02,	 6.6421800522623598e+03,	 4.9437626690512911e+02,	 3.2145373053655208e+00 
1.4634220000000000e+00,	 2.5913239999999998e-01,	 3.4303079209295428e-02,	 1.5917859502531669e+03,	 -3.0053267450720899e+01,	 6.6138144102740091e+02,	 6.5270215661909042e+03,	 4.9350999814938569e+02,	 3.2260129218895472e+00 
1.4673510000000001e+00,	 2.5905099999999998e-01,	 3.3823795974803922e-02,	 1.5946998698328498e+03,	 -3.0087071332138677e+01,	 6.5903464668815127e+02,	 6.4129895216059886e+03,	 4.9263365387071781e+02,	 3.2376668893774907e+00 
1.4713130000000001e+00,	 2.5896900000000000e-01,	 3.3346709551756504e-02,	 1.5976556134088780e+03,	 -3.0138990158867546e+01,	 6.5664992352173215e+02,	 6.2996558171864181e+03,	 4.9174154632247939e+02,	 3.2495522876020182e+00 
1.4753090000000000e+00,	 2.5888620000000001e-01,	 3.2872608299461321e-02,	 1.6006468683801493e+03,	 -3.0202470487254967e+01,	 6.5423350706122972e+02,	 6.1872389025836746e+03,	 4.9083592865053424e+02,	 3.2616434403144838e+00 
1.4793369999999999e+00,	 2.5880280000000000e-01,	 3.2403362698168285e-02,	 1.6036688523889507e+03,	 -3.0254974515814720e+01,	 6.5179805658759494e+02,	 6.0762142752559357e+03,	 4.8992148360678880e+02,	 3.2739005684226012e+00 
1.4834000000000001e+00,	 2.5871859999999997e-01,	 3.1938092173339795e-02,	 1.6067224474283414e+03,	 -3.0314055666470114e+01,	 6.4933758210555834e+02,	 5.9663598972584377e+03,	 4.8899590623446562e+02,	 3.2863432379681701e+00 
1.4874959999999999e+00,	 2.5863379999999997e-01,	 3.1477554023767881e-02,	 1.6098095775962474e+03,	 -3.0363805615690943e+01,	 6.4685718562727425e+02,	 5.8578645087821051e+03,	 4.8806105796473207e+02,	 3.2989641007439019e+00 
1.4916259999999999e+00,	 2.5854830000000001e-01,	 3.3586248604695258e-02,	 1.5204916740026579e+03,	 1.1869979617205345e+01,	 7.4546092687348494e+02,	 7.2030481968667509e+03,	 5.2394101372707803e+02,	 2.9021167764639628e+00 
1.4957910000000001e+00,	 2.5846199999999997e-01,	 6.8289921740633822e-02,	 5.2907447712957151e+02,	 1.0021515739628697e+02,	 1.9967728093856542e+03,	 3.9229719840852689e+04,	 8.5750029994212332e+02,	 6.2796714439080448e-01 