TITLE = "Final State"
VARIABLES = "X", "Y", "rho", "u", "v", "T", "p", "c", "M"
ZONE I=102, J=27, DATAPACKING=POINT
1.0567150000000001e+00,	 2.6685149999999996e-01,	 4.6801944215455069e-02,	 1.4687867385998145e+03,	 -3.1191495794736820e+01,	 7.2289979956763557e+02,	 9.7335650676267542e+03,	 5.1595165008474964e+02,	 2.8473945106010885e+00 
1.0574060000000001e+00,	 2.6683689999999999e-01,	 4.6845115334266982e-02,	 1.4686933066071233e+03,	 -3.1199845262259565e+01,	 7.2308587459238083e+02,	 9.7450512561634678e+03,	 5.1601804900955290e+02,	 2.8468474414454721e+00 
1.0581020000000001e+00,	 2.6682220000000001e-01,	 4.6891771429782188e-02,	 1.4685809788004697e+03,	 -3.1218375543424045e+01,	 7.2328517134062781e+02,	 9.7574455898692468e+03,	 5.1608915649315941e+02,	 2.8462383588483777e+00 
1.0588010000000001e+00,	 2.6680739999999997e-01,	 4.6936959438565372e-02,	 1.4684672764963252e+03,	 -3.1247423675990849e+01,	 7.2348708422454740e+02,	 9.7695750305213569e+03,	 5.1616118740337231e+02,	 2.8456221248464946e+00 
1.0595049999999999e+00,	 2.6679249999999999e-01,	 4.6984332453161207e-02,	 1.4683564788078991e+03,	 -3.1261301851702090e+01,	 7.2369035041051973e+02,	 9.7821829331720364e+03,	 5.1623369094210614e+02,	 2.8450084590658022e+00 
1.0602130000000001e+00,	 2.6677750000000000e-01,	 4.7034601202758541e-02,	 1.4682320737481120e+03,	 -3.1239400577082257e+01,	 7.2392028413381195e+02,	 9.7957602935428586e+03,	 5.1631569432080084e+02,	 2.8443148074269917e+00 
1.0609249999999999e+00,	 2.6676250000000001e-01,	 4.7089042860550642e-02,	 1.4681003804172267e+03,	 -3.1179195418889616e+01,	 7.2416640870567812e+02,	 9.8104330008603156e+03,	 5.1640345756115357e+02,	 2.8435739731489944e+00 
1.0616410000000001e+00,	 2.6674739999999997e-01,	 4.7136944565795431e-02,	 1.4679841949489391e+03,	 -3.1198022902204443e+01,	 7.2437818382678620e+02,	 9.8232846223471752e+03,	 5.1647896051821670e+02,	 2.8429341453428680e+00 
1.0623620000000000e+00,	 2.6673209999999997e-01,	 4.7182549833634804e-02,	 1.4678746557025538e+03,	 -3.1228802971231858e+01,	 7.2457627967630515e+02,	 9.8354776820458992e+03,	 5.1654957649398659e+02,	 2.8423347513485644e+00 
1.0630869999999999e+00,	 2.6671679999999998e-01,	 4.7235039509712549e-02,	 1.4677449380187404e+03,	 -3.1189875469523201e+01,	 7.2481417076243451e+02,	 9.8496522131486490e+03,	 5.1663436567269082e+02,	 2.8416156448873950e+00 
1.0638170000000000e+00,	 2.6670139999999998e-01,	 4.7285903063034554e-02,	 1.4676229344037556e+03,	 -3.1175380828705212e+01,	 7.2503812526738193e+02,	 9.8633051405837905e+03,	 5.1671417485837378e+02,	 2.8409400857067628e+00 
1.0645500000000001e+00,	 2.6668589999999998e-01,	 4.7334970389530620e-02,	 1.4675073896650433e+03,	 -3.1183507104085386e+01,	 7.2524930103517272e+02,	 9.8764158136386704e+03,	 5.1678941887970382e+02,	 2.8403032502662122e+00 
1.0652889999999999e+00,	 2.6667029999999997e-01,	 4.7385518965587313e-02,	 1.4673860437910735e+03,	 -3.1174732856453637e+01,	 7.2547154889231206e+02,	 9.8899925409441566e+03,	 5.1686859616602260e+02,	 2.8396330753220322e+00 
1.0660320000000001e+00,	 2.6665459999999996e-01,	 4.7435224799483547e-02,	 1.4672669181043461e+03,	 -3.1175667139734994e+01,	 7.2569066894515163e+02,	 9.9033571023367094e+03,	 5.1694664727887437e+02,	 2.8389739831568872e+00 
1.0667800000000001e+00,	 2.6663880000000001e-01,	 4.7485046052869323e-02,	 1.4671483878600877e+03,	 -3.1178804328418178e+01,	 7.2591066158816170e+02,	 9.9167639552990968e+03,	 5.1702499735730930e+02,	 2.8383146907033958e+00 
1.0675319999999999e+00,	 2.6662290000000000e-01,	 4.7534422970594431e-02,	 1.4670293875030361e+03,	 -3.1185299703414252e+01,	 7.2613257644634791e+02,	 9.9301105785679156e+03,	 5.1710402000262820e+02,	 2.8376511363991468e+00 
1.0682890000000000e+00,	 2.6660689999999998e-01,	 4.7584740330454775e-02,	 1.4669041139643414e+03,	 -3.1180536187817875e+01,	 7.2636661453525994e+02,	 9.9438259931903303e+03,	 5.1718734658135804e+02,	 2.8369515867232638e+00 
1.0690510000000000e+00,	 2.6659080000000002e-01,	 4.7636628511754667e-02,	 1.4667843736588893e+03,	 -3.1170866956697076e+01,	 7.2659494253740411e+02,	 9.9577982901236046e+03,	 5.1726862721335795e+02,	 2.8362739737204770e+00 
1.0698179999999999e+00,	 2.6657459999999999e-01,	 4.7688683163735465e-02,	 1.4666616927197551e+03,	 -3.1161645697282108e+01,	 7.2682654123120233e+02,	 9.9718570863409350e+03,	 5.1735105910669608e+02,	 2.8355845993060536e+00 
1.0705899999999999e+00,	 2.6655829999999997e-01,	 4.7737274351489632e-02,	 1.4665480141297439e+03,	 -3.1196718039776364e+01,	 7.2703766137446200e+02,	 9.9849171207497075e+03,	 5.1742619071870809e+02,	 2.8349546553494469e+00 
1.0713660000000000e+00,	 2.6654180000000000e-01,	 4.7785538862068919e-02,	 1.4664369116182238e+03,	 -3.1232521369867307e+01,	 7.2724400486044647e+02,	 9.9978490413743039e+03,	 5.1749961191485033e+02,	 2.8343392709179702e+00 
1.0721480000000001e+00,	 2.6652529999999997e-01,	 4.7843551251757085e-02,	 1.4662952303982474e+03,	 -3.1165930961591261e+01,	 7.2750880463935073e+02,	 1.0013631363105755e+04,	 5.1759381778673821e+02,	 2.8335469951135543e+00 
1.0729350000000000e+00,	 2.6650869999999999e-01,	 4.7899309560687733e-02,	 1.4661624847399698e+03,	 -3.1132597275232058e+01,	 7.2775555063041577e+02,	 1.0028701787135033e+04,	 5.1768158536528392e+02,	 2.8328088632604596e+00 
1.0737260000000000e+00,	 2.6649200000000001e-01,	 4.7950500578399377e-02,	 1.4660450516547946e+03,	 -3.1158279187462082e+01,	 7.2797167620479013e+02,	 1.0042401137220499e+04,	 5.1775844903495806e+02,	 2.8321626135936189e+00 
1.0745229999999999e+00,	 2.6647509999999996e-01,	 4.8002537870591999e-02,	 1.4659265295731198e+03,	 -3.1158594549159979e+01,	 7.2819240926285113e+02,	 1.0056347772763093e+04,	 5.1783693955008300e+02,	 2.8315045173955218e+00 
1.0753260000000000e+00,	 2.6645819999999998e-01,	 4.8058679790273340e-02,	 1.4657968937123410e+03,	 -3.1135701646023922e+01,	 7.2843749242203739e+02,	 1.0071497850337337e+04,	 5.1792407478706343e+02,	 2.8307769652926620e+00 
1.0761330000000000e+00,	 2.6644109999999999e-01,	 4.8108355974395348e-02,	 1.4656884510403802e+03,	 -3.1173975530681453e+01,	 7.2864456034363423e+02,	 1.0084774238012580e+04,	 5.1799768291571354e+02,	 2.8301669760032908e+00 
1.0769460000000000e+00,	 2.6642389999999999e-01,	 4.8161877797491613e-02,	 1.4655753682718678e+03,	 -3.1177114171658097e+01,	 7.2886601098126039e+02,	 1.0099062205119822e+04,	 5.1807639221306044e+02,	 2.8295189038143884e+00 
1.0777639999999999e+00,	 2.6640659999999999e-01,	 4.8216917508176457e-02,	 1.4654507102274226e+03,	 -3.1158011927810350e+01,	 7.2910906272758166e+02,	 1.0113975018344845e+04,	 5.1816276534218377e+02,	 2.8288059416893434e+00 
1.0785880000000001e+00,	 2.6638919999999999e-01,	 4.8273812657557875e-02,	 1.4653285685236442e+03,	 -3.1128912771618658e+01,	 7.2935148146731945e+02,	 1.0129276063919711e+04,	 5.1824889918114798e+02,	 2.8280989679931059e+00 
1.0794170000000001e+00,	 2.6637169999999999e-01,	 4.8330633470737627e-02,	 1.4652054373782912e+03,	 -3.1101839673849259e+01,	 7.2959451116645005e+02,	 1.0144577937394552e+04,	 5.1833523573282685e+02,	 2.8273892989305720e+00 
1.0802520000000000e+00,	 2.6635409999999998e-01,	 4.8384752481008014e-02,	 1.4650896356094295e+03,	 -3.1109914390982965e+01,	 7.2982181744646164e+02,	 1.0159101590761884e+04,	 5.1841597351048472e+02,	 2.8267259678724876e+00 
1.0810919999999999e+00,	 2.6633629999999997e-01,	 4.8434963064535069e-02,	 1.4649853090712722e+03,	 -3.1159165559325118e+01,	 7.3002706948317041e+02,	 1.0172504121032689e+04,	 5.1848886695628460e+02,	 2.8261294143718660e+00 
1.0819380000000001e+00,	 2.6631840000000001e-01,	 4.8490647409221641e-02,	 1.4648697803528466e+03,	 -3.1154223784083612e+01,	 7.3025805513726823e+02,	 1.0187421520810745e+04,	 5.1857088721490231e+02,	 2.8254594817708747e+00 
1.0827899999999999e+00,	 2.6630039999999999e-01,	 4.8548918672781209e-02,	 1.4647399596461787e+03,	 -3.1119188035948717e+01,	 7.3051485921103108e+02,	 1.0203250591368113e+04,	 5.1866206006105222e+02,	 2.8247111310217514e+00 
1.0836479999999999e+00,	 2.6628229999999997e-01,	 4.8608102276600756e-02,	 1.4646156291707857e+03,	 -3.1086245029813046e+01,	 7.3076404893520908e+02,	 1.0219173600135646e+04,	 5.1875051427526682e+02,	 2.8239885111127943e+00 
1.0845110000000000e+00,	 2.6626410000000000e-01,	 4.8663785630416956e-02,	 1.4644994951511251e+03,	 -3.1095810650634377e+01,	 7.3099557974474192e+02,	 1.0234121735899142e+04,	 5.1883268663632339e+02,	 2.8233178543680610e+00 
1.0853800000000000e+00,	 2.6624569999999997e-01,	 4.8717700760660718e-02,	 1.4643930727196102e+03,	 -3.1120456953860131e+01,	 7.3121167303125367e+02,	 1.0248488941299529e+04,	 5.1890936834201545e+02,	 2.8226966055478080e+00 
1.0862560000000001e+00,	 2.6622720000000000e-01,	 4.8775282009047634e-02,	 1.4642658932154491e+03,	 -3.1105287307075663e+01,	 7.3146618703644640e+02,	 1.0264173432578071e+04,	 5.1899966928776848e+02,	 2.8219598705517783e+00 
1.0871370000000000e+00,	 2.6620859999999996e-01,	 4.8831986937041133e-02,	 1.4641494218987089e+03,	 -3.1109048801614776e+01,	 7.3170512794037995e+02,	 1.0279463100079101e+04,	 5.1908443063878406e+02,	 2.8212748985975580e+00 
1.0880250000000000e+00,	 2.6618979999999998e-01,	 4.8887041912083387e-02,	 1.4640356101302714e+03,	 -3.1129913877218719e+01,	 7.3193874903764367e+02,	 1.0294338303590106e+04,	 5.1916729147396268e+02,	 2.8206062974001878e+00 
1.0889190000000000e+00,	 2.6617089999999999e-01,	 4.8945854853646525e-02,	 1.4639096450047341e+03,	 -3.1111783000125435e+01,	 7.3219665269251414e+02,	 1.0310354422643632e+04,	 5.1925874950203888e+02,	 2.8198662249417823e+00 
1.0898190000000001e+00,	 2.6615190000000000e-01,	 4.9007097922331488e-02,	 1.4637818753452596e+03,	 -3.1076293985451201e+01,	 7.3246061774462464e+02,	 1.0326976811090088e+04,	 5.1935234035029237e+02,	 2.8191106527603123e+00 
1.0907249999999999e+00,	 2.6613280000000000e-01,	 4.9066298089799273e-02,	 1.4636563587137539e+03,	 -3.1063940929383271e+01,	 7.3271761029021536e+02,	 1.0343079433328241e+04,	 5.1944344284199497e+02,	 2.8183741365316148e+00 
1.0916380000000001e+00,	 2.6611350000000000e-01,	 4.9120005742600101e-02,	 1.4635466242717407e+03,	 -3.1113231742599638e+01,	 7.3294426056984253e+02,	 1.0357603810276929e+04,	 5.1952377590405445e+02,	 2.8177291774801261e+00 
1.0925570000000000e+00,	 2.6609400000000000e-01,	 4.9176510136936316e-02,	 1.4634333683953964e+03,	 -3.1128789260994644e+01,	 7.3318280544930076e+02,	 1.0372893385613446e+04,	 5.1960831142825953e+02,	 2.8170534805587195e+00 
1.0934820000000001e+00,	 2.6607449999999999e-01,	 4.9239775148456094e-02,	 1.4632993566810128e+03,	 -3.1085435750478450e+01,	 7.3346396885538934e+02,	 1.0390220942430440e+04,	 5.1970793244912704e+02,	 2.8162539150111305e+00 
1.0944140000000000e+00,	 2.6605479999999998e-01,	 4.9297502322213513e-02,	 1.4631862049079261e+03,	 -3.1102588654094930e+01,	 7.3370728071224119e+02,	 1.0405852899582287e+04,	 5.1979412660608159e+02,	 2.8155699779875056e+00 
1.0953530000000000e+00,	 2.6603489999999996e-01,	 4.9356243593667720e-02,	 1.4630604637589372e+03,	 -3.1097978544327695e+01,	 7.3397157065270949e+02,	 1.0422004945578103e+04,	 5.1988773613775220e+02,	 2.8148210183889555e+00 
1.0962980000000000e+00,	 2.6601500000000000e-01,	 4.9419333994416850e-02,	 1.4629347807447512e+03,	 -3.1070451743808217e+01,	 7.3424245729722156e+02,	 1.0439178401299541e+04,	 5.1998366468479219e+02,	 2.8140589539229852e+00 
1.0972510000000000e+00,	 2.6599479999999998e-01,	 4.9477876715262908e-02,	 1.4628143448024407e+03,	 -3.1082055839420121e+01,	 7.3449988933108739e+02,	 1.0455209180034111e+04,	 5.2007481217969143e+02,	 2.8133347182199642e+00 
1.0982099999999999e+00,	 2.6597460000000001e-01,	 4.9542339887342843e-02,	 1.4626808402914253e+03,	 -3.1038990868891808e+01,	 7.3478521823935944e+02,	 1.0472897738296770e+04,	 5.2017581830096537e+02,	 2.8125300812354825e+00 
1.0991759999999999e+00,	 2.6595419999999997e-01,	 4.9600509622335115e-02,	 1.4625693015842924e+03,	 -3.1067313834142304e+01,	 7.3502957374343509e+02,	 1.0488681295542190e+04,	 5.2026230429397947e+02,	 2.8118493537667009e+00 
1.1001479999999999e+00,	 2.6593359999999999e-01,	 4.9657855789201455e-02,	 1.4624545872582619e+03,	 -3.1100579927607761e+01,	 7.3527953977045559e+02,	 1.0504378972432656e+04,	 5.2035076117462097e+02,	 2.8111523066911444e+00 
1.1011280000000001e+00,	 2.6591290000000001e-01,	 4.9719424941126758e-02,	 1.4623256630939215e+03,	 -3.1088807198987915e+01,	 7.3555972462213572e+02,	 1.0521410759080210e+04,	 5.2044989388982412e+02,	 2.8103687106869399e+00 
1.1021150000000000e+00,	 2.6589199999999996e-01,	 4.9780368444681547e-02,	 1.4622034868628261e+03,	 -3.1090976207144173e+01,	 7.3583112318854660e+02,	 1.0538194191480783e+04,	 5.2054589991327509e+02,	 2.8096158186862512e+00 
1.1031089999999999e+00,	 2.6587099999999997e-01,	 4.9846161500045991e-02,	 1.4620638142420783e+03,	 -3.1042447597166017e+01,	 7.3613636717075485e+02,	 1.0556499496595145e+04,	 5.2065385744824437e+02,	 2.8087630617637362e+00 
1.1041110000000001e+00,	 2.6584989999999997e-01,	 4.9911488327436665e-02,	 1.4619268550015947e+03,	 -3.1009389325139452e+01,	 7.3643703109195678e+02,	 1.0574651811675811e+04,	 5.2076017324537054e+02,	 2.8079253523742382e+00 
1.1051190000000000e+00,	 2.6582859999999997e-01,	 4.9970445865465063e-02,	 1.4618088558426325e+03,	 -3.1040828155131486e+01,	 7.3670093448823627e+02,	 1.0590936952538368e+04,	 5.2085347251107225e+02,	 2.8071971573757022e+00 
1.1061350000000001e+00,	 2.6580709999999996e-01,	 5.0030984682479490e-02,	 1.4616797510040424e+03,	 -3.1045826841751492e+01,	 7.3698547766660545e+02,	 1.0607863389038630e+04,	 5.2095404995550325e+02,	 2.8064076245633518e+00 
1.1071590000000000e+00,	 2.6578550000000001e-01,	 5.0094471759712066e-02,	 1.4615392738423986e+03,	 -3.1032539696683340e+01,	 7.3729316075926613e+02,	 1.0625758574883159e+04,	 5.2106278481656057e+02,	 2.8055519082111635e+00 
1.1081900000000000e+00,	 2.6576369999999999e-01,	 5.0154624614127022e-02,	 1.4614141608876835e+03,	 -3.1058313017559318e+01,	 7.3757449789550446e+02,	 1.0642577318571904e+04,	 5.2116218919038693e+02,	 2.8047778276875723e+00 
1.1092290000000000e+00,	 2.6574169999999997e-01,	 5.0216454716217190e-02,	 1.4612874300730828e+03,	 -3.1069182277846394e+01,	 7.3786160158499888e+02,	 1.0659845148622000e+04,	 5.2126361150760658e+02,	 2.8039894775024732e+00 
1.1102749999999999e+00,	 2.6571960000000000e-01,	 5.0281010186095827e-02,	 1.4611484742816574e+03,	 -3.1055472493366484e+01,	 7.3817161387040210e+02,	 1.0678033337947438e+04,	 5.2137310436701978e+02,	 2.8031335978997149e+00 
1.1113290000000000e+00,	 2.6569729999999997e-01,	 5.0346226134984892e-02,	 1.4610110069737975e+03,	 -3.1040509061536156e+01,	 7.3848022907237566e+02,	 1.0696353129670884e+04,	 5.2148208095777841e+02,	 2.8022836547444463e+00 
1.1123909999999999e+00,	 2.6567489999999999e-01,	 5.0413194577819544e-02,	 1.4608705806073713e+03,	 -3.1014385949595816e+01,	 7.3879534961159732e+02,	 1.0715151335732020e+04,	 5.2159333118583527e+02,	 2.8014157293833328e+00 
1.1134599999999999e+00,	 2.6565230000000001e-01,	 5.0476216515996444e-02,	 1.4607388108464634e+03,	 -3.1029943917219725e+01,	 7.3909234642747515e+02,	 1.0732859323634701e+04,	 5.2169816129412345e+02,	 2.8006009240345806e+00 
1.1145380000000000e+00,	 2.6562949999999996e-01,	 5.0542102300694697e-02,	 1.4606007195726584e+03,	 -3.1021336632238096e+01,	 7.3940391102883495e+02,	 1.0751399096158751e+04,	 5.2180811071659423e+02,	 2.7997458829539426e+00 
1.1156239999999999e+00,	 2.6560659999999997e-01,	 5.0610137672894170e-02,	 1.4604561158563915e+03,	 -3.0996841523639524e+01,	 7.3972973928202589e+02,	 1.0770615818183443e+04,	 5.2192306892578574e+02,	 2.7988512207231460e+00 
1.1167170000000000e+00,	 2.6558349999999997e-01,	 5.0674655699731216e-02,	 1.4603273043780987e+03,	 -3.1011935077031744e+01,	 7.4002830384198501e+02,	 1.0788698949400319e+04,	 5.2202838577515581e+02,	 2.7980404826554772e+00 
1.1178189999999999e+00,	 2.6556019999999997e-01,	 5.0739907948727639e-02,	 1.4601990660510303e+03,	 -3.1027994574215803e+01,	 7.4032932391085296e+02,	 1.0806985388463301e+04,	 5.2213454728483953e+02,	 2.7972266837287614e+00 
1.1189300000000000e+00,	 2.6553670000000001e-01,	 5.0807637600592509e-02,	 1.4600631970780628e+03,	 -3.1021109140479883e+01,	 7.4064799338298030e+02,	 1.0826068982479550e+04,	 5.2224690973886743e+02,	 2.7963644711880331e+00 
1.1200479999999999e+00,	 2.6551310000000000e-01,	 5.0877380296743782e-02,	 1.4599184527254383e+03,	 -3.0993541992625943e+01,	 7.4098489827403614e+02,	 1.0845861031854507e+04,	 5.2236567569493593e+02,	 2.7954505329606265e+00 
1.1211750000000000e+00,	 2.6548929999999998e-01,	 5.0945542168363674e-02,	 1.4597822461499786e+03,	 -3.0989741986736487e+01,	 7.4130861871134903e+02,	 1.0865136212508356e+04,	 5.2247976842496951e+02,	 2.7945793085484474e+00 
1.1223110000000001e+00,	 2.6546530000000002e-01,	 5.1012282964567127e-02,	 1.4596509949778401e+03,	 -3.1003007794689829e+01,	 7.4162576081325847e+02,	 1.0884024341759508e+04,	 5.2259151851754007e+02,	 2.7937311614919720e+00 
1.1234550000000001e+00,	 2.6544109999999999e-01,	 5.1077804671599489e-02,	 1.4595227752876942e+03,	 -3.1029487619457626e+01,	 7.4194048093120239e+02,	 1.0902628842247339e+04,	 5.2270239156692355e+02,	 2.7928943991571784e+00 
1.1246069999999999e+00,	 2.6541670000000001e-01,	 5.1146678746008145e-02,	 1.4593849014578041e+03,	 -3.1016300842556568e+01,	 7.4227779379958224e+02,	 1.0922293521279624e+04,	 5.2282119773291117e+02,	 2.7919955526467590e+00 
1.1257690000000000e+00,	 2.6539219999999997e-01,	 5.1217317884978221e-02,	 1.4592370315500248e+03,	 -3.1004942690106912e+01,	 7.4263639628841247e+02,	 1.0942662365958364e+04,	 5.2294747279175363e+02,	 2.7910382151141739e+00 
1.1269389999999999e+00,	 2.6536739999999998e-01,	 5.1283719422608863e-02,	 1.4591064790308515e+03,	 -3.1017268628825452e+01,	 7.4296606959241831e+02,	 1.0961713157575798e+04,	 5.2306353409241490e+02,	 2.7901698833661674e+00 
1.1281180000000000e+00,	 2.6534249999999998e-01,	 5.1356104946433973e-02,	 1.4589602628657626e+03,	 -3.0982857781546052e+01,	 7.4333033062965683e+02,	 1.0982567195574860e+04,	 5.2319174204533999e+02,	 2.7892053495956501e+00 
1.1293070000000001e+00,	 2.6531739999999998e-01,	 5.1427083888195703e-02,	 1.4588180376419646e+03,	 -3.0969225490037150e+01,	 7.4368995193807518e+02,	 1.1003066812320982e+04,	 5.2331828615355721e+02,	 2.7882586216174401e+00 
1.1305040000000000e+00,	 2.6529209999999998e-01,	 5.1495513969100820e-02,	 1.4586815471237489e+03,	 -3.0980367417866997e+01,	 7.4404067499444659e+02,	 1.1022903684735704e+04,	 5.2344166966447187e+02,	 2.7873411395131544e+00 
1.1317100000000000e+00,	 2.6526659999999996e-01,	 5.1564936584826915e-02,	 1.4585432685291958e+03,	 -3.0985905349617468e+01,	 7.4439914001108514e+02,	 1.1043081775387642e+04,	 5.2356774673172288e+02,	 2.7864061132416791e+00 
1.1329260000000001e+00,	 2.6524090000000000e-01,	 5.1635694648234198e-02,	 1.4583999896243822e+03,	 -3.0980496648853752e+01,	 7.4477009282961444e+02,	 1.1063745829805044e+04,	 5.2369818397357699e+02,	 2.7854383562329095e+00 
1.1341509999999999e+00,	 2.6521499999999998e-01,	 5.1708540943828152e-02,	 1.4582476238148774e+03,	 -3.0955591378056866e+01,	 7.4515950445542285e+02,	 1.1085147242850077e+04,	 5.2383507689721375e+02,	 2.7844186325750462e+00 
1.1353850000000001e+00,	 2.6518900000000001e-01,	 5.1783156564367203e-02,	 1.4581003774533744e+03,	 -3.0930319468317741e+01,	 7.4554568229839606e+02,	 1.1106896303825346e+04,	 5.2397079770334369e+02,	 2.7834154222404046e+00 
1.1366289999999999e+00,	 2.6516269999999997e-01,	 5.1852303183249140e-02,	 1.4579650499691388e+03,	 -3.0951920614146712e+01,	 7.4590897304012810e+02,	 1.1127146878583082e+04,	 5.2409844283692769e+02,	 2.7824802388501122e+00 
1.1378830000000000e+00,	 2.6513619999999999e-01,	 5.1923831759948261e-02,	 1.4578287182240956e+03,	 -3.0962246725162174e+01,	 7.4628090949707598e+02,	 1.1148052458877964e+04,	 5.2422909351356418e+02,	 2.7815271922974003e+00 
1.1391460000000000e+00,	 2.6510950000000000e-01,	 5.1996500810228413e-02,	 1.4576883300996481e+03,	 -3.0962933826490740e+01,	 7.4666494481877567e+02,	 1.1169399316193589e+04,	 5.2436396001797971e+02,	 2.7805441408934004e+00 
1.1404190000000001e+00,	 2.6508260000000000e-01,	 5.2069685728629800e-02,	 1.4575434382783119e+03,	 -3.0957085709666540e+01,	 7.4706079054334623e+02,	 1.1191050023131267e+04,	 5.2450293783519840e+02,	 2.7795309582154255e+00 
1.1417010000000001e+00,	 2.6505550000000000e-01,	 5.2143890723328250e-02,	 1.4574046612106195e+03,	 -3.0948936903559037e+01,	 7.4745273068051324e+02,	 1.1212878165032073e+04,	 5.2464050816405916e+02,	 2.7785373258468309e+00 
1.1429940000000001e+00,	 2.6502819999999999e-01,	 5.2217306867072502e-02,	 1.4572688952841540e+03,	 -3.0956209800580066e+01,	 7.4784439835870387e+02,	 1.1234549227120979e+04,	 5.2477794683386833e+02,	 2.7775512719229920e+00 
1.1442969999999999e+00,	 2.6500059999999998e-01,	 5.2289650589296396e-02,	 1.4571338081497327e+03,	 -3.0961469239578431e+01,	 7.4823862133342959e+02,	 1.1256044422381232e+04,	 5.2491624583496741e+02,	 2.7765623950982183e+00 
1.1456100000000000e+00,	 2.6497290000000001e-01,	 5.2365283332814955e-02,	 1.4569914207060833e+03,	 -3.0935096573393388e+01,	 7.4865414584301357e+02,	 1.1278585316898540e+04,	 5.2506197828308336e+02,	 2.7755195646750210e+00 
1.1469330000000000e+00,	 2.6494489999999998e-01,	 5.2438192372990515e-02,	 1.4568585207012341e+03,	 -3.0931948471709092e+01,	 7.4905672184644231e+02,	 1.1300361986827817e+04,	 5.2520313087366128e+02,	 2.7745205061568581e+00 
1.1482660000000000e+00,	 2.6491680000000001e-01,	 5.2512973954923714e-02,	 1.4567226766969070e+03,	 -3.0899637997758838e+01,	 7.4947391615663742e+02,	 1.1322780140440193e+04,	 5.2534936896945771e+02,	 2.7734883557705921e+00 
1.1496100000000000e+00,	 2.6488839999999997e-01,	 5.2579281284876128e-02,	 1.4566172642845661e+03,	 -3.0932856131044382e+01,	 7.4984307490222352e+02,	 1.1342661400539640e+04,	 5.2547873533861309e+02,	 2.7726063411320747e+00 
1.1509640000000001e+00,	 2.6485969999999998e-01,	 5.2644016730826956e-02,	 1.4565113973759646e+03,	 -3.0948260757563006e+01,	 7.5022208207382687e+02,	 1.1362366641158314e+04,	 5.2561151982107799e+02,	 2.7717051527862968e+00 
1.1523289999999999e+00,	 2.6483089999999998e-01,	 5.2710825437205684e-02,	 1.4564101447891362e+03,	 -3.0908705666898889e+01,	 7.5061112714719059e+02,	 1.1382685925424013e+04,	 5.2574778618388711e+02,	 2.7707926245069872e+00 
1.1537040000000001e+00,	 2.6480179999999998e-01,	 5.2768248691192676e-02,	 1.4563384696031421e+03,	 -3.0909757665289714e+01,	 7.5095761758066806e+02,	 1.1400346339286314e+04,	 5.2586911769235326e+02,	 2.7700171061087913e+00 
1.1550910000000001e+00,	 2.6477249999999997e-01,	 5.2821969984073167e-02,	 1.4562827591794526e+03,	 -3.0875360658626825e+01,	 7.5129382469130405e+02,	 1.1417061769217235e+04,	 5.2598682150697459e+02,	 2.7692899605727930e+00 
1.1564880000000000e+00,	 2.6474300000000001e-01,	 5.2859905621095077e-02,	 1.4562684915649199e+03,	 -3.0829350205150426e+01,	 7.5156148541901564e+02,	 1.1429331701247575e+04,	 5.2608050887248135e+02,	 2.7687678229168826e+00 
1.0567150000000001e+00,	 2.6755519999999999e-01,	 4.8696759467520029e-02,	 1.4884657126041398e+03,	 -3.2674786726488946e+01,	 6.9572562689210849e+02,	 9.7469334375498274e+03,	 5.0616131990616583e+02,	 2.9414027685982633e+00 
1.0574060000000001e+00,	 2.6754089999999997e-01,	 4.8742745465796093e-02,	 1.4883680323594742e+03,	 -3.2666997796403322e+01,	 6.9591908936361006e+02,	 9.7588507146478842e+03,	 5.0623168989804162e+02,	 2.9408006448212141e+00 
1.0581020000000001e+00,	 2.6752650000000000e-01,	 4.8792785128186890e-02,	 1.4882491206134951e+03,	 -3.2660679091465802e+01,	 6.9613227604302710e+02,	 9.7718618017587141e+03,	 5.0630922304144190e+02,	 2.9401152311184160e+00 
1.0588010000000001e+00,	 2.6751199999999997e-01,	 4.8841698074636807e-02,	 1.4881357794197938e+03,	 -3.2669809057886702e+01,	 6.9633592896358675e+02,	 9.7845193444539836e+03,	 5.0638327779751677e+02,	 2.9394618859541324e+00 
1.0595049999999999e+00,	 2.6749750000000000e-01,	 4.8890199772832918e-02,	 1.4880253436117987e+03,	 -3.2686792544402039e+01,	 6.9653376494170720e+02,	 9.7970183911919758e+03,	 5.0645520695722098e+02,	 2.9388271420712964e+00 
1.0602130000000001e+00,	 2.6748279999999997e-01,	 4.8938294759467822e-02,	 1.4879080787128273e+03,	 -3.2704815040355442e+01,	 6.9673816150789276e+02,	 9.8095338036458561e+03,	 5.0652951068611554e+02,	 2.9381653711649531e+00 
1.0609249999999999e+00,	 2.6746809999999999e-01,	 4.8989994624343530e-02,	 1.4877816192380578e+03,	 -3.2685423678078024e+01,	 6.9696022319918461e+02,	 9.8230266454068515e+03,	 5.0661022381847465e+02,	 2.9374468631585344e+00 
1.0616420000000000e+00,	 2.6745320000000000e-01,	 4.9042691136497396e-02,	 1.4876533642053366e+03,	 -3.2656339937066477e+01,	 6.9719183865921809e+02,	 9.8368607918245998e+03,	 5.0669439577634847e+02,	 2.9367045748849834e+00 
1.0623620000000000e+00,	 2.6743829999999996e-01,	 4.9092544485110870e-02,	 1.4875379795746085e+03,	 -3.2656869831979151e+01,	 6.9740124897504506e+02,	 9.8498178802904258e+03,	 5.0677048607253079e+02,	 2.9360360278043895e+00 
1.0630869999999999e+00,	 2.6742329999999997e-01,	 4.9143432183420113e-02,	 1.4874174335921430e+03,	 -3.2653550681610760e+01,	 6.9761534393944294e+02,	 9.8630548002954401e+03,	 5.0684826675025846e+02,	 2.9353475443107202e+00 
1.0638170000000000e+00,	 2.6740819999999998e-01,	 4.9195776192911558e-02,	 1.4872922691343429e+03,	 -3.2634980268633058e+01,	 6.9783866732493959e+02,	 9.8767209720545961e+03,	 5.0692938739539858e+02,	 2.9346301680831246e+00 
1.0645510000000000e+00,	 2.6739299999999999e-01,	 4.9247294175903560e-02,	 1.4871680226627327e+03,	 -3.2624034724597955e+01,	 6.9806040748132102e+02,	 9.8902055493731295e+03,	 5.0700992010226901e+02,	 2.9339185639092964e+00 
1.0652889999999999e+00,	 2.6737770000000000e-01,	 4.9299144938140978e-02,	 1.4870444107643402e+03,	 -3.2613270250127563e+01,	 6.9828119203979895e+02,	 9.9037499988172585e+03,	 5.0709009304316362e+02,	 2.9332105258061762e+00 
1.0660320000000001e+00,	 2.6736230000000000e-01,	 4.9351113629958407e-02,	 1.4869218925089299e+03,	 -3.2604929631917031e+01,	 6.9850101030202200e+02,	 9.9173110142080423e+03,	 5.0716990250474981e+02,	 2.9325070739251986e+00 
1.0667800000000001e+00,	 2.6734680000000000e-01,	 4.9402962955488579e-02,	 1.4867982589705057e+03,	 -3.2598711129177843e+01,	 6.9872328318682969e+02,	 9.9308894952516530e+03,	 5.0725059039854142e+02,	 2.9317966598355691e+00 
1.0675319999999999e+00,	 2.6733119999999999e-01,	 4.9454640621996421e-02,	 1.4866771226386957e+03,	 -3.2598382070165329e+01,	 6.9894236052177052e+02,	 9.9443946243445807e+03,	 5.0733010570942838e+02,	 2.9310984218328229e+00 
1.0682900000000000e+00,	 2.6731549999999998e-01,	 4.9506812321637103e-02,	 1.4865580794836010e+03,	 -3.2599250700966927e+01,	 6.9915916282948456e+02,	 9.9579732367771248e+03,	 5.0740878301949908e+02,	 2.9304094183056351e+00 
1.0690519999999999e+00,	 2.6729979999999998e-01,	 4.9559416393692546e-02,	 1.4864359080513022e+03,	 -3.2596501036749252e+01,	 6.9938140482632514e+02,	 9.9717229118882860e+03,	 5.0748942172610975e+02,	 2.9297029862878889e+00 
1.0698179999999999e+00,	 2.6728389999999996e-01,	 4.9612684493052464e-02,	 1.4863069547071884e+03,	 -3.2585090727356501e+01,	 6.9961562757393460e+02,	 9.9857839676056337e+03,	 5.0757439368530783e+02,	 2.9289580411303753e+00 
1.0705899999999999e+00,	 2.6726790000000000e-01,	 4.9666153919447439e-02,	 1.4861816219726395e+03,	 -3.2576707371064749e+01,	 6.9984827585545986e+02,	 9.9998702408662757e+03,	 5.0765878037593478e+02,	 2.9282239822432574e+00 
1.0713670000000000e+00,	 2.6725179999999998e-01,	 4.9716537822880082e-02,	 1.4860671391936260e+03,	 -3.2605347575459973e+01,	 7.0005823125598931e+02,	 1.0013017641562903e+04,	 5.0773492381550540e+02,	 2.9275606590114664e+00 
1.0721480000000001e+00,	 2.6723559999999996e-01,	 4.9769500909947542e-02,	 1.4859398969977890e+03,	 -3.2609374781302932e+01,	 7.0028475948291123e+02,	 1.0026928033501759e+04,	 5.0781706483179988e+02,	 2.9268367840981484e+00 
1.0729350000000000e+00,	 2.6721929999999999e-01,	 4.9825765191968713e-02,	 1.4858064571248963e+03,	 -3.2582113934701681e+01,	 7.0052740086552410e+02,	 1.0041741601523801e+04,	 5.0790503387690313e+02,	 2.9260660165975740e+00 
1.0737270000000001e+00,	 2.6720289999999997e-01,	 4.9881618447241427e-02,	 1.4856772834795922e+03,	 -3.2561138447063854e+01,	 7.0076876444826132e+02,	 1.0056461821697043e+04,	 5.0799252454528676e+02,	 2.9253069388565183e+00 
1.0745240000000000e+00,	 2.6718639999999999e-01,	 4.9935109210704626e-02,	 1.4855539980274300e+03,	 -3.2559624435448718e+01,	 7.0099809283681577e+02,	 1.0070540443085427e+04,	 5.0807563867902513e+02,	 2.9245857403750350e+00 
1.0753260000000000e+00,	 2.6716980000000001e-01,	 4.9991015414432877e-02,	 1.4854247263045368e+03,	 -3.2543926833710458e+01,	 7.0124037363623120e+02,	 1.0085299692750599e+04,	 5.0816343231122153e+02,	 2.9238254640965260e+00 
1.0761330000000000e+00,	 2.6715309999999998e-01,	 5.0045277005872794e-02,	 1.4853042829791571e+03,	 -3.2541482382359185e+01,	 7.0147151696549054e+02,	 1.0099574479698507e+04,	 5.0824717599909792e+02,	 2.9231066801738543e+00 
1.0769460000000000e+00,	 2.6713629999999999e-01,	 5.0098657244374720e-02,	 1.4851840866354403e+03,	 -3.2549799612774279e+01,	 7.0170060332846208e+02,	 1.0113648912761628e+04,	 5.0833016083144940e+02,	 2.9223934452844240e+00 
1.0777639999999999e+00,	 2.6711930000000000e-01,	 5.0152719904219878e-02,	 1.4850602882944645e+03,	 -3.2552544197697252e+01,	 7.0193482994339183e+02,	 1.0127942357274722e+04,	 5.0841499367757154e+02,	 2.9216625002274537e+00 
1.0785880000000001e+00,	 2.6710230000000001e-01,	 5.0208747971626375e-02,	 1.4849360358829967e+03,	 -3.2541717291009576e+01,	 7.0217235453909097e+02,	 1.0142687757136751e+04,	 5.0850100654261837e+02,	 2.9209235432229197e+00 