TITLE = "Final State"
VARIABLES = "X", "Y", "rho", "u", "v", "T", "p", "c", "M"
ZONE I=98, J=70, DATAPACKING=POINT
2.2755570000000001e+00,	 6.0167159999999997e-01,	 1.7774092953164681e-02,	 7.7231692435995683e+02,	 7.7325563607981749e+01,	 5.5133729442583638e+02,	 2.8192575700572506e+03,	 4.5058698058060338e+02,	 1.7225936003326059e+00 
2.2830260000000000e+00,	 6.0167079999999995e-01,	 1.7896028052672840e-02,	 7.8320008071522091e+02,	 7.1420054276881942e+01,	 5.5420773544599388e+02,	 2.8533771072294940e+03,	 4.5175840893297976e+02,	 1.7408635291928189e+00 
2.2904939999999998e+00,	 6.0167009999999999e-01,	 1.7974293616362377e-02,	 7.9475905920228138e+02,	 7.4155665750472764e+01,	 5.5509512085934125e+02,	 2.8704446655025899e+03,	 4.5211993715925331e+02,	 1.7654853833606681e+00 
2.2979630000000002e+00,	 6.0166940000000002e-01,	 1.7110892267379350e-02,	 7.8355080867857214e+02,	 9.2154413633026408e+01,	 5.5373825894618994e+02,	 2.7258824608242876e+03,	 4.5156702321415798e+02,	 1.7471413007314494e+00 
2.3054310000000000e+00,	 6.0166860000000000e-01,	 1.6695651140316611e-02,	 7.7272443668303708e+02,	 1.0331864260575782e+02,	 5.5991515474472828e+02,	 2.6894007475961812e+03,	 4.5407863131148883e+02,	 1.7168855702754175e+00 
2.3129000000000000e+00,	 6.0166790000000003e-01,	 1.7347502749865958e-02,	 7.9224320120235507e+02,	 9.2702097564645982e+01,	 5.7772878732205174e+02,	 2.8833071622060029e+03,	 4.6124530413477942e+02,	 1.7293366285754439e+00 
2.3203680000000002e+00,	 6.0166719999999996e-01,	 1.8148028006237604e-02,	 8.2651436136873394e+02,	 7.3175285775285914e+01,	 5.9727375988895051e+02,	 3.1184071211148830e+03,	 4.6898253648578532e+02,	 1.7692499264035331e+00 
2.3278360000000000e+00,	 6.0166640000000005e-01,	 1.8682353099867547e-02,	 8.5580338558541052e+02,	 5.1991847716853933e+01,	 6.1232005262793507e+02,	 3.2910917946597833e+03,	 4.7485300935088424e+02,	 1.8055718737403208e+00 
2.3353050000000000e+00,	 6.0166569999999997e-01,	 1.9504046696168245e-02,	 8.9054104894923353e+02,	 1.7762667332002383e+01,	 6.3640752331947874e+02,	 3.5710009897213299e+03,	 4.8410281283534454e+02,	 1.8399359684684324e+00 
2.3427730000000002e+00,	 6.0166500000000001e-01,	 2.2044530138365721e-02,	 9.5827705759650075e+02,	 -3.6326140803688396e+01,	 6.8191521125090901e+02,	 4.3247515430389931e+03,	 5.0111239214824866e+02,	 1.9136731536475136e+00 
2.3502420000000002e+00,	 6.0166419999999998e-01,	 2.3488841946419786e-02,	 1.0029278970012319e+03,	 -6.8050453860375058e+01,	 7.1214772259979293e+02,	 4.8123990550716999e+03,	 5.1210026249793316e+02,	 1.9629630993983538e+00 
2.3577100000000000e+00,	 6.0166350000000002e-01,	 1.8245111876831394e-02,	 8.7531762364808196e+02,	 2.0053418324877423e+00,	 6.3272918511235116e+02,	 3.3211946931393227e+03,	 4.8270176531097536e+02,	 1.8133762576728940e+00 
2.3651789999999999e+00,	 6.0166280000000005e-01,	 1.3920270535642806e-02,	 7.5438650334658473e+02,	 5.4482348839831843e+01,	 5.6201395293405722e+02,	 2.2507367957503798e+03,	 4.5492887441650231e+02,	 1.6625704914518937e+00 
2.3726470000000002e+00,	 6.0166200000000003e-01,	 1.7239265268922110e-02,	 8.2930665478385004e+02,	 6.7006488963793718e+00,	 6.0182044689009274e+02,	 2.9848026988596098e+03,	 4.7076419366338803e+02,	 1.7616754534971319e+00 
2.3801160000000001e+00,	 6.0166129999999995e-01,	 2.1647413380102575e-02,	 9.2600388967365893e+02,	 -4.6909826133107941e+01,	 6.5616173920292727e+02,	 4.0864562255003816e+03,	 4.9155872048342115e+02,	 1.8862269690908600e+00 
2.3875839999999999e+00,	 6.0166059999999999e-01,	 2.6079407777158267e-02,	 1.0191392434358804e+03,	 -8.5975267432382083e+01,	 7.0892470234863958e+02,	 5.3189728314698086e+03,	 5.1094012313311589e+02,	 2.0017204234886212e+00 
2.3950529999999999e+00,	 6.0165990000000003e-01,	 2.4647462092376716e-02,	 9.9154038894820792e+02,	 -3.5910247607335947e+01,	 6.8692289160643077e+02,	 4.8709103259679305e+03,	 5.0294899916471320e+02,	 1.9727456491821771e+00 
2.4025210000000001e+00,	 6.0165910000000000e-01,	 1.7096147709663192e-02,	 8.4016470095322416e+02,	 6.0856373891561738e+01,	 5.8955359453015376e+02,	 2.8996894638878889e+03,	 4.6594172090638097e+02,	 1.8078781333659240e+00 
2.4099900000000001e+00,	 6.0165840000000004e-01,	 1.7965638999634999e-02,	 8.5045742116359952e+02,	 3.9669053028288282e+01,	 5.9518415810216118e+02,	 3.0762665939354624e+03,	 4.6816143446199635e+02,	 1.8185651889850774e+00 
2.4174579999999999e+00,	 6.0165769999999996e-01,	 1.9058397794942783e-02,	 8.8303255087581715e+02,	 1.8895767413867290e+01,	 6.0866545061068177e+02,	 3.3372979044534741e+03,	 4.7343382021505738e+02,	 1.8655927452876222e+00 
2.4249269999999998e+00,	 6.0165690000000005e-01,	 1.6271418580045240e-02,	 8.2186182722710817e+02,	 6.8772111512800350e+01,	 5.6458336967873072e+02,	 2.6429164635863262e+03,	 4.5596761100803246e+02,	 1.8087560592242884e+00 
2.4323950000000001e+00,	 6.0165619999999997e-01,	 1.3597427508397293e-02,	 7.5621034587646386e+02,	 1.0845624232480543e+02,	 5.2653792839291930e+02,	 2.0597587196086151e+03,	 4.4033659900486356e+02,	 1.7349186874659570e+00 
2.4398640000000000e+00,	 6.0165550000000001e-01,	 1.6274938308491305e-02,	 8.1792127681616591e+02,	 6.9897731723436152e+01,	 5.5951584147419760e+02,	 2.6197610184125847e+03,	 4.5391668537989818e+02,	 1.8084871573535821e+00 
2.4473319999999998e+00,	 6.0165469999999999e-01,	 1.9244315703334385e-02,	 8.8653667465337310e+02,	 3.1014220295844087e+01,	 5.9908041363041843e+02,	 3.3167866088660871e+03,	 4.6969129798779687e+02,	 1.8886426184369138e+00 
2.4548009999999998e+00,	 6.0165400000000002e-01,	 2.1700777045618666e-02,	 9.4857677380514997e+02,	 5.6956138529387879e-01,	 6.3278896940841287e+02,	 3.9506096711443938e+03,	 4.8272456914576469e+02,	 1.9650479909834520e+00 
2.4622690000000000e+00,	 6.0165329999999995e-01,	 2.2144858516663139e-02,	 9.6436910079981135e+02,	 4.4018394860325163e+00,	 6.4210048976783401e+02,	 4.0907774056833291e+03,	 4.8626325641560152e+02,	 1.9832449482226460e+00 
2.4697380000000000e+00,	 6.0165250000000003e-01,	 1.5726570286147934e-02,	 8.2608816489655555e+02,	 9.1507793296152855e+01,	 5.6591764031562229e+02,	 2.5604552466156924e+03,	 4.5650608345107958e+02,	 1.8206569691058427e+00 
2.4772059999999998e+00,	 6.0165179999999996e-01,	 1.3860241135168729e-02,	 7.6601452551696889e+02,	 1.1541367561118804e+02,	 5.3172102474597432e+02,	 2.1202377201126842e+03,	 4.4249856851388688e+02,	 1.7506503936861990e+00 
2.4846750000000002e+00,	 6.0165109999999999e-01,	 1.7451847740124555e-02,	 8.5165492882156968e+02,	 6.8557279854446406e+01,	 5.7669698374881909e+02,	 2.8954697544359778e+03,	 4.6083323601122777e+02,	 1.8540543494199979e+00 
2.4921430000000000e+00,	 6.0165029999999997e-01,	 2.0522642651425040e-02,	 9.3031487091446854e+02,	 2.9490642418518313e+01,	 6.2286601311891809e+02,	 3.6775438062799308e+03,	 4.7892473831441299e+02,	 1.9434831830460484e+00 
2.4996119999999999e+00,	 6.0164960000000001e-01,	 2.3159055441857566e-02,	 1.0054679705049160e+03,	 -5.0643422313974353e+00,	 6.6297080194945249e+02,	 4.4171808618420991e+03,	 4.9410261747362574e+02,	 2.0349633636986106e+00 
2.5070800000000002e+00,	 6.0164890000000004e-01,	 2.1524062127206818e-02,	 9.7406935456381404e+02,	 9.4472781266601373e+00,	 6.4046522229000334e+02,	 3.9659727569320662e+03,	 4.8564366694185628e+02,	 2.0058228559354214e+00 
2.5145490000000001e+00,	 6.0164810000000002e-01,	 1.4525847158262762e-02,	 8.0434773473949963e+02,	 7.2324520021379200e+01,	 5.4811800120703253e+02,	 2.2905800453232910e+03,	 4.4926955173507770e+02,	 1.7975684907945724e+00 
2.5220170000000000e+00,	 6.0164740000000005e-01,	 1.4663138396709532e-02,	 8.0432232131110527e+02,	 6.3411601592475989e+01,	 5.4565432901724762e+02,	 2.3018365203798062e+03,	 4.4825872973392484e+02,	 1.7998937552936434e+00 
2.5294859999999999e+00,	 6.0164669999999998e-01,	 2.0718161377167393e-02,	 9.3286833241307386e+02,	 1.1856822175360325e+01,	 6.0414898994728833e+02,	 3.6010172580077779e+03,	 4.7167404676576911e+02,	 1.9779415176424469e+00 
2.5369540000000002e+00,	 6.0164589999999996e-01,	 2.3782487939093787e-02,	 1.0150842922798338e+03,	 -4.8625907651169049e+00,	 6.5690253067450112e+02,	 4.4945700924735429e+03,	 4.9183612144039120e+02,	 2.0638905819936024e+00 
2.5444230000000001e+00,	 6.0164519999999999e-01,	 1.8329613944840159e-02,	 8.8634833864003087e+02,	 6.4175983926652634e+01,	 5.9162610511676917e+02,	 3.1198275166722933e+03,	 4.6675998575192978e+02,	 1.9039091981726062e+00 
2.5518909999999999e+00,	 6.0164439999999997e-01,	 1.4258375348235543e-02,	 7.6467123816635876e+02,	 1.0476384251885479e+02,	 5.2321334705243316e+02,	 2.1462425215680614e+03,	 4.3894424631625787e+02,	 1.7583428177974170e+00 
2.5593599999999999e+00,	 6.0164370000000000e-01,	 1.5939929262234101e-02,	 8.1897021236461831e+02,	 6.1695479315469839e+01,	 5.4734540566837779e+02,	 2.5100235965427169e+03,	 4.4895280784857562e+02,	 1.8293476796687309e+00 
2.5668280000000001e+00,	 6.0164300000000004e-01,	 1.7574647181291779e-02,	 8.7974706899596163e+02,	 2.6346148604737401e+01,	 5.7554863521141897e+02,	 2.9100374697783045e+03,	 4.6037419002068560e+02,	 1.9117958807336921e+00 
2.5742970000000001e+00,	 6.0164220000000002e-01,	 1.6614103883513739e-02,	 8.6950798578311628e+02,	 2.0690180631850644e+01,	 5.6866701025299130e+02,	 2.7180966396304166e+03,	 4.5761365043771741e+02,	 1.9006297438299256e+00 
2.5817649999999999e+00,	 6.0164150000000005e-01,	 1.5599574611561046e-02,	 8.5331518845018843e+02,	 2.1650288898903060e+01,	 5.6482683893281148e+02,	 2.5348835790661988e+03,	 4.5606591546963324e+02,	 1.8716369072301915e+00 
2.5892339999999998e+00,	 6.0164079999999998e-01,	 1.6364974472567566e-02,	 8.7462585584502426e+02,	 1.5201296793523428e+01,	 5.8349888999837344e+02,	 2.7471685367439927e+03,	 4.6354293971631677e+02,	 1.8871130866037988e+00 
2.5967020000000001e+00,	 6.0163999999999995e-01,	 1.8755833871281300e-02,	 9.3824303121542130e+02,	 -9.6930889108668623e+00,	 6.2306158906111796e+02,	 3.3619967803987588e+03,	 4.7899992206459092e+02,	 1.9588585651608432e+00 
2.6041710000000000e+00,	 6.0163929999999999e-01,	 2.2751984000660072e-02,	 1.0367572669835472e+03,	 -4.3954639433735807e+01,	 6.7979007195194731e+02,	 4.4496313229640655e+03,	 5.0033094262736427e+02,	 2.0740044570548570e+00 
2.6116389999999998e+00,	 6.0163860000000002e-01,	 2.2802828259084938e-02,	 1.0314888438315988e+03,	 -3.8165462894770656e+01,	 6.7706847612856666e+02,	 4.4417207146392084e+03,	 4.9932837998825283e+02,	 2.0671660408691270e+00 
2.6191080000000002e+00,	 6.0163780000000000e-01,	 1.5778056907190682e-02,	 8.4264756389517629e+02,	 1.7004330178397765e+01,	 5.7559690521135371e+02,	 2.6127743615377212e+03,	 4.6039349490201903e+02,	 1.8306494910393540e+00 
2.6265760000000000e+00,	 6.0163710000000004e-01,	 1.5073928819957005e-02,	 8.0760767284023200e+02,	 2.2436130374047497e+01,	 5.5499605584960750e+02,	 2.4068348673692867e+03,	 4.5207959158351417e+02,	 1.7871173054191436e+00 
2.6340450000000000e+00,	 6.0163630000000001e-01,	 2.0708946911646028e-02,	 9.1825427109633097e+02,	 -3.4113926814576834e+00,	 6.0332889811079463e+02,	 3.5945297285832798e+03,	 4.7135380507036791e+02,	 1.9481344968548493e+00 
2.6415130000000002e+00,	 6.0163560000000005e-01,	 2.4631136836228161e-02,	 9.9300218136017338e+02,	 -1.3991710686266810e+01,	 6.4643306367913237e+02,	 4.5807644047303547e+03,	 4.8790102932726040e+02,	 2.0354553291736122e+00 
2.6489820000000002e+00,	 6.0163489999999997e-01,	 2.8456077210731515e-02,	 1.0524367725851066e+03,	 -3.6809737302973517e+01,	 6.7594039948591217e+02,	 5.5336714733284307e+03,	 4.9891223633279861e+02,	 2.1107525988369167e+00 
2.6564500000000000e+00,	 6.0163409999999995e-01,	 2.6765169243981864e-02,	 1.0069266703813980e+03,	 -7.4627456232713740e+01,	 6.4978176565335457e+02,	 5.0034256572726608e+03,	 4.8916312803883642e+02,	 2.0641137861293992e+00 
2.6639189999999999e+00,	 6.0163339999999998e-01,	 2.0431783237049268e-02,	 8.8885473818603259e+02,	 -7.4264772674034390e+01,	 5.7866309875728030e+02,	 3.4014336067649092e+03,	 4.6161811978716327e+02,	 1.9322287304994121e+00 
2.6713870000000002e+00,	 6.0163270000000002e-01,	 1.9008220846122789e-02,	 8.8322015807135654e+02,	 6.4868260611713957e-01,	 5.5402083851102793e+02,	 3.0296852103523852e+03,	 4.5168222867050491e+02,	 1.9554021394290080e+00 
2.6788560000000001e+00,	 6.0163190000000000e-01,	 1.4267836271063426e-02,	 8.0509716253270267e+02,	 1.2338716198817941e+02,	 5.0445220320926069e+02,	 2.0706565840347221e+03,	 4.3100267454655244e+02,	 1.8897731650692640e+00 
2.6863239999999999e+00,	 6.0163120000000003e-01,	 1.4468918667179153e-02,	 7.9359169668313189e+02,	 1.0830115226727114e+02,	 5.0697085236157244e+02,	 2.1103233471853978e+03,	 4.3207729856301870e+02,	 1.8537134835386049e+00 
2.6937929999999999e+00,	 6.0163040000000001e-01,	 1.7246116782845489e-02,	 8.6921762783914210e+02,	 6.9202747001248980e+01,	 5.4827833068669270e+02,	 2.7203347037569711e+03,	 4.4933525463721497e+02,	 1.9405734472426932e+00 
2.7012619999999998e+00,	 6.0162970000000005e-01,	 1.7934643880932195e-02,	 8.9217005375707618e+02,	 5.9493945664079305e+01,	 5.6320029952127379e+02,	 2.9059328343336756e+03,	 4.5540877247074894e+02,	 1.9634042436448542e+00 
2.7087300000000001e+00,	 6.0162899999999997e-01,	 1.7358811687013184e-02,	 8.8167933829058416e+02,	 5.8725240873884673e+01,	 5.5832140132219592e+02,	 2.7882660106075023e+03,	 4.5343192164330520e+02,	 1.9487664235322599e+00 
2.7161990000000000e+00,	 6.0162819999999995e-01,	 1.7878061451069086e-02,	 9.1115566988774447e+02,	 2.4094500504840251e+01,	 5.7402713641345679e+02,	 2.9524515993825676e+03,	 4.5976527335110313e+02,	 1.9824772404696414e+00 
2.7236669999999998e+00,	 6.0162749999999998e-01,	 1.8832527726469841e-02,	 9.4955612753108949e+02,	 4.6844253186678220e-01,	 5.9315432449869547e+02,	 3.2137068170344787e+03,	 4.6736243686837150e+02,	 2.0317341920792882e+00 
2.7311359999999998e+00,	 6.0162669999999996e-01,	 1.6506429127223415e-02,	 8.8999726994922253e+02,	 5.3311446168756902e+01,	 5.5626826719721680e+02,	 2.6416018187993345e+03,	 4.5259744352172117e+02,	 1.9699460283640802e+00 
2.7386040000000000e+00,	 6.0162599999999999e-01,	 1.2570949160887981e-02,	 7.8386009546699552e+02,	 1.1470583393798717e+02,	 5.0592589761226509e+02,	 1.8297211929967173e+03,	 4.3163177578913758e+02,	 1.8353800608668331e+00 
2.7460730000000000e+00,	 6.0162519999999997e-01,	 1.3620165362868617e-02,	 8.1734182290787498e+02,	 9.3231893892951888e+01,	 5.2407469629907678e+02,	 2.0535510763830202e+03,	 4.3930540760827427e+02,	 1.8725970006671309e+00 
2.7535409999999998e+00,	 6.0162450000000001e-01,	 1.6560443704338554e-02,	 9.0722659167364986e+02,	 5.3788369382080674e+01,	 5.6652168721301211e+02,	 2.6990967112743042e+03,	 4.5674965028875363e+02,	 1.9897545976166027e+00 
2.7610100000000002e+00,	 6.0162369999999998e-01,	 1.8107430041826075e-02,	 9.6151046061804777e+02,	 2.9039861133853556e+01,	 5.9837145918951057e+02,	 3.1171494446909328e+03,	 4.6941329832556033e+02,	 2.0492578712567195e+00 
2.7684780000000000e+00,	 6.0162300000000002e-01,	 2.1356855221176113e-02,	 1.0425606252947468e+03,	 1.9676223649951827e+00,	 6.4397620745896575e+02,	 3.9567358973804317e+03,	 4.8697297979393494e+02,	 2.1409041677814042e+00 
2.7759469999999999e+00,	 6.0162220000000000e-01,	 2.2023735035107593e-02,	 1.0459272368829147e+03,	 1.9898661431651174e+01,	 6.5364120980686789e+02,	 4.1415254653567081e+03,	 4.9061369408205951e+02,	 2.1322611199035504e+00 
2.7834150000000002e+00,	 6.0162150000000003e-01,	 1.4440872511611736e-02,	 8.5647371569826805e+02,	 9.1791214541329992e+01,	 5.4912104218639172e+02,	 2.2813475758966224e+03,	 4.4968043935034257e+02,	 1.9155346451256585e+00 
2.7908840000000001e+00,	 6.0162070000000001e-01,	 1.2848820581601274e-02,	 8.0045361955604858e+02,	 8.4022826977066572e+01,	 5.1796979723894049e+02,	 1.9146863406551072e+03,	 4.3673919771378559e+02,	 1.8428651224125563e+00 
2.7983530000000001e+00,	 6.0162000000000004e-01,	 1.7171015011668303e-02,	 9.1022078642775500e+02,	 2.3877033730906174e+01,	 5.6307605169928092e+02,	 2.7815890115865222e+03,	 4.5535853575281965e+02,	 1.9995977539782652e+00 
2.8058209999999999e+00,	 6.0161920000000002e-01,	 2.1130918062295622e-02,	 1.0097006835011384e+03,	 -2.0100024707002881e+01,	 6.2230452298222190e+02,	 3.7831299626898367e+03,	 4.7870882338099381e+02,	 2.1096346653560616e+00 
2.8132899999999998e+00,	 6.0161849999999994e-01,	 2.1191726277747305e-02,	 9.8940745614140462e+02,	 1.0883844144829640e+01,	 6.1977038537304361e+02,	 3.7785667067871705e+03,	 4.7773313421694746e+02,	 2.0711716366228874e+00 
2.8207580000000001e+00,	 6.0161770000000003e-01,	 1.4301802831882749e-02,	 8.0777920932351049e+02,	 8.2903141442817088e+01,	 5.2387556449310773e+02,	 2.1555041618919186e+03,	 4.3922193859969241e+02,	 1.8487744072250933e+00 
2.8282270000000000e+00,	 6.0161699999999996e-01,	 1.3743073371007074e-02,	 7.8656371273389072e+02,	 7.1844037009254123e+01,	 5.0800565732276118e+02,	 2.0085486309549140e+03,	 4.3251804165975210e+02,	 1.8261388132075691e+00 
2.8356949999999999e+00,	 6.0161620000000005e-01,	 1.7224734331241439e-02,	 8.7959569216757859e+02,	 1.9351411120210471e+01,	 5.4945973879346423e+02,	 2.7228163201755756e+03,	 4.4981909890737535e+02,	 1.9559163615776571e+00 
2.8431639999999998e+00,	 6.0161540000000002e-01,	 1.9193101157720337e-02,	 9.3830394973118757e+02,	 -2.4740975751750170e+01,	 5.8775737987448201e+02,	 3.2454369812062691e+03,	 4.6523137853385498e+02,	 2.0175553895368754e+00 
2.8506330000000002e+00,	 6.0161469999999995e-01,	 2.1953533611601832e-02,	 1.0092665420695428e+03,	 -6.2130997210205663e+01,	 6.3239807595449656e+02,	 3.9941549694255932e+03,	 4.8257544911304291e+02,	 2.0953762659862170e+00 
2.8581010000000000e+00,	 6.0161390000000003e-01,	 2.1288691729338609e-02,	 9.9855067872052200e+02,	 -2.8126183658030627e+01,	 6.2474840974929839e+02,	 3.8263445125825524e+03,	 4.7964788437170785e+02,	 2.0826667810585140e+00 
2.8655700000000000e+00,	 6.0161319999999996e-01,	 1.2833945336191407e-02,	 8.2077965859264827e+02,	 8.6259303987784278e+01,	 5.2054808696144278e+02,	 1.9219893523906746e+03,	 4.3782482316885944e+02,	 1.8850002343353189e+00 
2.8730380000000002e+00,	 6.0161240000000005e-01,	 1.2368389522904390e-02,	 7.9500346307173618e+02,	 8.0711157673221834e+01,	 5.0136745961530664e+02,	 1.7840180130330502e+03,	 4.2968285524111548e+02,	 1.8597204216125325e+00 
2.8805070000000002e+00,	 6.0161160000000002e-01,	 1.6398436969796520e-02,	 9.0408936671623860e+02,	 8.9496306051509738e+00,	 5.5477631901584641e+02,	 2.6172807262483648e+03,	 4.5199008790901416e+02,	 2.0003395788119724e+00 
2.8879760000000001e+00,	 6.0161089999999995e-01,	 2.0060977146117414e-02,	 1.0042591339953822e+03,	 -5.0052188778909084e+01,	 6.1141444938967186e+02,	 3.5287242231586788e+03,	 4.7450173264629501e+02,	 2.1190768960113573e+00 
2.8954439999999999e+00,	 6.0161010000000004e-01,	 2.2625063184992342e-02,	 1.0815570750058669e+03,	 -8.0262426224943226e+01,	 6.6244400377171587e+02,	 4.3119022960660041e+03,	 4.9390627090336955e+02,	 2.1958237625790686e+00 
2.9029129999999999e+00,	 6.0160930000000001e-01,	 1.7045514053399869e-02,	 9.4524489942767309e+02,	 3.5887176284135975e+01,	 5.7412605763253782e+02,	 2.8154466287746404e+03,	 4.5980488696796624e+02,	 2.0572332468654899e+00 
2.9103810000000001e+00,	 6.0160849999999999e-01,	 1.1080459828667236e-02,	 7.8974966462592693e+02,	 1.3637064343634685e+02,	 4.7934080927460826e+02,	 1.5280308617807943e+03,	 4.2013818595732272e+02,	 1.9075560474262925e+00 
2.9178500000000001e+00,	 6.0160780000000003e-01,	 1.3920386632277203e-02,	 8.6369228646748138e+02,	 7.7310853737910008e+01,	 5.1594682333686637e+02,	 2.0662657553544436e+03,	 4.3588550281717249e+02,	 1.9893882760793544e+00 
2.9253179999999999e+00,	 6.0160700000000000e-01,	 1.8279664406726424e-02,	 9.8769688443789619e+02,	 1.3183003027779490e+01,	 5.7865090371768861e+02,	 3.0430899623917380e+03,	 4.6161325557436061e+02,	 2.1398537558917501e+00 
2.9327869999999998e+00,	 6.0160619999999998e-01,	 1.8641498881773667e-02,	 1.0109326637250538e+03,	 5.0014933934758616e+00,	 5.9208413035148283e+02,	 3.1753689038179978e+03,	 4.6694062897288245e+02,	 2.1650397783546955e+00 
2.9402550000000001e+00,	 6.0160550000000002e-01,	 1.2781414302416635e-02,	 8.3796621160444045e+02,	 9.1786041314381237e+01,	 5.0343548612810400e+02,	 1.8511971575790042e+03,	 4.3056811523468139e+02,	 1.9578274693816413e+00 
2.9477240000000000e+00,	 6.0160469999999999e-01,	 1.0412407267573413e-02,	 7.4233244672395551e+02,	 1.2579765119087767e+02,	 4.5033148609585663e+02,	 1.3490044955125147e+03,	 4.0722657342439561e+02,	 1.8488872143460369e+00 
2.9551919999999998e+00,	 6.0160400000000003e-01,	 1.3149413142477341e-02,	 8.3368548173915815e+02,	 9.2768655078249992e+01,	 4.9114112717414525e+02,	 1.8579867424850265e+03,	 4.2527818409317990e+02,	 1.9724290281091803e+00 
2.9626600000000001e+00,	 6.0160329999999995e-01,	 1.5356974042133960e-02,	 9.0538448682994806e+02,	 6.9436450788754371e+01,	 5.2890550173053430e+02,	 2.3367576453141401e+03,	 4.4132547353005197e+02,	 2.0575363867019867e+00 
2.9701290000000000e+00,	 6.0160259999999999e-01,	 1.6436159472272345e-02,	 9.3923003190550605e+02,	 6.1018361467412788e+01,	 5.4681368645243538e+02,	 2.5856495396528285e+03,	 4.4873468704577630e+02,	 2.0974755076147464e+00 
2.9775969999999998e+00,	 6.0160199999999997e-01,	 1.8369378998423093e-02,	 9.9878223712943782e+02,	 4.3025072821809658e+01,	 5.7705585934963176e+02,	 3.0495957047386423e+03,	 4.6097660080074991e+02,	 2.1686751840112009e+00 
2.9850650000000001e+00,	 6.0160150000000001e-01,	 1.7027472933297216e-02,	 9.5077508827081681e+02,	 6.0752594785228411e+01,	 5.5219726299187096e+02,	 2.7050443243510190e+03,	 4.5093825344072303e+02,	 2.1127373591298357e+00 
2.9925329999999999e+00,	 6.0160119999999995e-01,	 1.0556312718184378e-02,	 7.8291000644411940e+02,	 1.2412063066213365e+02,	 4.6037342281729241e+02,	 1.3981456914103117e+03,	 4.1174191072455528e+02,	 1.9252056148582779e+00 
3.0000000000000000e+00,	 6.0160110000000000e-01,	 1.1666625030996546e-02,	 7.7199031028613763e+02,	 1.2812304357042564e+02,	 4.6046498222346156e+02,	 1.5455098789930605e+03,	 4.1178285245659862e+02,	 1.9003948996364002e+00 
2.2755559999999999e+00,	 6.0743780000000003e-01,	 1.7642644133196224e-02,	 7.7685106278340152e+02,	 8.7420455982589573e+01,	 5.5172877760812935e+02,	 2.8003947094376063e+03,	 4.5074692434347730e+02,	 1.7343532196952955e+00 
2.2830240000000002e+00,	 6.0743709999999995e-01,	 1.7696403790018193e-02,	 7.7940480177244922e+02,	 8.0545915217655065e+01,	 5.5423315464572522e+02,	 2.8216780438122541e+03,	 4.5176876895217686e+02,	 1.7344175268498092e+00 
2.2904930000000001e+00,	 6.0743650000000005e-01,	 1.8035666194942977e-02,	 7.9880044313542430e+02,	 7.3452747837727145e+01,	 5.6109118723886718e+02,	 2.9113577404933635e+03,	 4.5455524916042788e+02,	 1.7647369950802321e+00 
2.2979609999999999e+00,	 6.0743579999999997e-01,	 1.7524881134448979e-02,	 7.9775790876962878e+02,	 8.3567967678283281e+01,	 5.6278231201837912e+02,	 2.8374319701635613e+03,	 4.5523974689706876e+02,	 1.7619792481604117e+00 
2.3054299999999999e+00,	 6.0743519999999995e-01,	 1.6662661987006951e-02,	 7.8077738205002584e+02,	 1.0123619048685529e+02,	 5.6359670594135696e+02,	 2.7017351188287375e+03,	 4.5556901315837905e+02,	 1.7281974512846681e+00 
2.3128980000000001e+00,	 6.0743449999999999e-01,	 1.6785314575451623e-02,	 7.8922832539213186e+02,	 9.8665766441606564e+01,	 5.7537229570591944e+02,	 2.7784869989359777e+03,	 4.6030365872997550e+02,	 1.7279284535844046e+00 
2.3203670000000001e+00,	 6.0743389999999997e-01,	 1.7536093016503607e-02,	 8.2057421361344427e+02,	 7.8195034065587009e+01,	 5.9077502865091924e+02,	 2.9804710502915505e+03,	 4.6642413900454761e+02,	 1.7672574103684018e+00 
2.3278349999999999e+00,	 6.0743320000000001e-01,	 1.8016466592251517e-02,	 8.4886986933431001e+02,	 5.4734078757332469e+01,	 6.0325667111013354e+02,	 3.1268114342857680e+03,	 4.7132559036802297e+02,	 1.8047664910974099e+00 
2.3353039999999998e+00,	 6.0743250000000004e-01,	 1.8522449349816568e-02,	 8.7846678101211319e+02,	 2.7293365245907236e+01,	 6.2430290352124348e+02,	 3.3267771364467453e+03,	 4.7947683613473106e+02,	 1.8330200869996536e+00 
2.3427720000000001e+00,	 6.0743190000000002e-01,	 2.0642973132496009e-02,	 9.3418568362750398e+02,	 -1.7837390100250918e+01,	 6.6610344853477613e+02,	 3.9558869034319564e+03,	 4.9526859998720641e+02,	 1.8865641031164031e+00 
2.3502410000000000e+00,	 6.0743119999999995e-01,	 2.3311621411170332e-02,	 9.9870086324053932e+02,	 -6.5786174940331449e+01,	 7.1242780876602910e+02,	 4.7779684991461127e+03,	 5.1220095656362980e+02,	 1.9540479774135366e+00 
2.3577089999999998e+00,	 6.0743060000000004e-01,	 2.0299546621011619e-02,	 9.2199932904739637e+02,	 -2.5144516907104801e+01,	 6.6105058839388539e+02,	 3.8605659143794996e+03,	 4.9338654480052264e+02,	 1.8694107941925526e+00 
2.3651779999999998e+00,	 6.0742989999999997e-01,	 1.4366007244881735e-02,	 7.7725513275834305e+02,	 5.4079247293896955e+01,	 5.7178915330977907e+02,	 2.3632079079075752e+03,	 4.5886814523010617e+02,	 1.6979478989005568e+00 
2.3726460000000000e+00,	 6.0742929999999995e-01,	 1.5707999264276004e-02,	 8.0838220353426971e+02,	 3.7392079926439287e+01,	 5.8613222880667388e+02,	 2.6487831906298657e+03,	 4.6458775017955008e+02,	 1.7418593900179447e+00 
2.3801150000000000e+00,	 6.0742859999999999e-01,	 2.0237881733833077e-02,	 9.0473991711471967e+02,	 -1.2422122648208594e+01,	 6.4020044867393290e+02,	 3.7274426081452539e+03,	 4.8554327201198299e+02,	 1.8635315190711388e+00 
2.3875829999999998e+00,	 6.0742799999999997e-01,	 2.5065461665444086e-02,	 9.9656401682490127e+02,	 -6.4093170610768098e+01,	 6.9615923339447625e+02,	 5.0201215563607575e+03,	 5.0631902622397240e+02,	 1.9723195993117106e+00 
2.3950520000000002e+00,	 6.0742730000000000e-01,	 2.6248275027833889e-02,	 1.0242611041850541e+03,	 -7.1545615744492991e+01,	 7.1051760265235293e+02,	 5.3654425266226099e+03,	 5.1151382299690943e+02,	 2.0072904821818440e+00 
2.4025200000000000e+00,	 6.0742660000000004e-01,	 1.9341740533053667e-02,	 8.9229165105713605e+02,	 2.1158027705361217e+01,	 6.1964158377512081e+02,	 3.4479903824296862e+03,	 4.7768349003435077e+02,	 1.8684808750966768e+00 
2.4099889999999999e+00,	 6.0742600000000002e-01,	 1.7123155156950006e-02,	 8.3849146746716735e+02,	 5.1822755963276748e+01,	 5.8094647517102158e+02,	 2.8618696594072703e+03,	 4.6252798441319038e+02,	 1.8163039116147648e+00 
2.4174570000000002e+00,	 6.0742529999999995e-01,	 1.8677263217886299e-02,	 8.7525728094073781e+02,	 2.3442553834375094e+01,	 6.0149892446757201e+02,	 3.2320497112219473e+03,	 4.7063842403696236e+02,	 1.8603903083694078e+00 
2.4249260000000001e+00,	 6.0742470000000004e-01,	 1.7535936808383862e-02,	 8.5248988943879340e+02,	 4.8555123064328150e+01,	 5.8186524520341254e+02,	 2.9354948773857986e+03,	 4.6289358519072198e+02,	 1.8446389626012196e+00 
2.4323939999999999e+00,	 6.0742399999999996e-01,	 1.4144121001242351e-02,	 7.7156747110685114e+02,	 1.0665223435032512e+02,	 5.3377364523734298e+02,	 2.1720160365456290e+03,	 4.4335184185389983e+02,	 1.7568524200387419e+00 
2.4398629999999999e+00,	 6.0742339999999995e-01,	 1.5172942620884851e-02,	 7.9813865165508878e+02,	 9.2880987597895782e+01,	 5.4538985869208886e+02,	 2.3807117262658439e+03,	 4.4815008448530665e+02,	 1.7929815884525908e+00 
2.4473310000000001e+00,	 6.0742269999999998e-01,	 1.8291242889496719e-02,	 8.7136735418403703e+02,	 5.1784474851633689e+01,	 5.8449968536032918e+02,	 3.0757953495136644e+03,	 4.6394029511968370e+02,	 1.8815023321607023e+00 
2.4548000000000001e+00,	 6.0742209999999996e-01,	 2.1028871609188499e-02,	 9.3301059640002950e+02,	 1.6300564671402952e+01,	 6.2116593705334412e+02,	 3.7579719935143353e+03,	 4.7827069329454781e+02,	 1.9510979695123527e+00 
2.4622679999999999e+00,	 6.0742140000000000e-01,	 2.2846758747009682e-02,	 9.7661758911409618e+02,	 -5.4374964942264405e+00,	 6.4831381064407822e+02,	 4.2612773967139883e+03,	 4.8861026897315060e+02,	 1.9987969720239973e+00 
2.4697369999999998e+00,	 6.0742079999999998e-01,	 1.8135093644656215e-02,	 8.7562812366224034e+02,	 5.9568367290093235e+01,	 5.9115297379439517e+02,	 3.0842503210562772e+03,	 4.6657331131602035e+02,	 1.8810591189253882e+00 
2.4772050000000001e+00,	 6.0742010000000002e-01,	 1.3903106976684208e-02,	 7.7410581678748042e+02,	 1.1700592970838090e+02,	 5.3397755327593381e+02,	 2.1358207572766360e+03,	 4.4343651667174720e+02,	 1.7655257543537763e+00 
2.4846740000000000e+00,	 6.0741940000000005e-01,	 1.6020739388771792e-02,	 8.2676306134037202e+02,	 8.6249359945400315e+01,	 5.5998876271182462e+02,	 2.5810225881228907e+03,	 4.5410847753572983e+02,	 1.8305091623606080e+00 
2.4921419999999999e+00,	 6.0741880000000004e-01,	 1.9488685487742272e-02,	 9.1227309688921616e+02,	 3.8964238124895864e+01,	 6.0751484337608906e+02,	 3.4061939866209686e+03,	 4.7298612430837733e+02,	 1.9305108007081200e+00 
2.4996109999999998e+00,	 6.0741809999999996e-01,	 2.2378914897837582e-02,	 9.8813137423412491e+02,	 -5.9100428740618325e+00,	 6.5091406066684272e+02,	 4.1907583137332949e+03,	 4.8958914483136675e+02,	 2.0183230338710527e+00 
2.5070790000000001e+00,	 6.0741750000000005e-01,	 2.2297087538796997e-02,	 9.8988027325869018e+02,	 -1.1080182264851866e+01,	 6.4957559992235360e+02,	 4.1668491617927812e+03,	 4.8908551992492539e+02,	 2.0240678649413613e+00 
2.5145480000000000e+00,	 6.0741679999999998e-01,	 1.5697878241979615e-02,	 8.3857115539228766e+02,	 5.8134691758562326e+01,	 5.6436075368450020e+02,	 2.5487526977859338e+03,	 4.5587770781884552e+02,	 1.8438801573227757e+00 
2.5220159999999998e+00,	 6.0741619999999996e-01,	 1.4074116975415076e-02,	 7.9621743813466492e+02,	 8.1456217893290244e+01,	 5.3789435685834405e+02,	 2.1779508853186617e+03,	 4.4505988111402911e+02,	 1.7983495581948739e+00 
2.5294850000000002e+00,	 6.0741550000000000e-01,	 1.9683951804132870e-02,	 9.1543864821374200e+02,	 3.7671938444747624e+01,	 5.9066011661938364e+02,	 3.3448748822861185e+03,	 4.6637877456854636e+02,	 1.9645264838880410e+00 