TITLE = "Final State"
VARIABLES = "X", "Y", "rho", "u", "v", "T", "p", "c", "M"
ZONE I=51, J=48, DATAPACKING=POINT
0.0000000000000000e+00,	 0.0000000000000000e+00,	 1.1586407740522199e-02,	 1.0000000000000000e+03,	 -9.7238430732570608e-15,	 2.9999999999999989e+02,	 9.9999999999999966e+02,	 3.3237670711487277e+02,	 3.0086344156914397e+00 
1.1911760000000000e-02,	 0.0000000000000000e+00,	 1.1586407740522199e-02,	 1.0000000000000000e+03,	 -2.2232888307365352e-14,	 2.9999999999999989e+02,	 9.9999999999999966e+02,	 3.3237670711487277e+02,	 3.0086344156914397e+00 
2.3823529999999999e-02,	 0.0000000000000000e+00,	 1.1586407740522199e-02,	 1.0000000000000000e+03,	 -2.8562889074502615e-14,	 2.9999999999999994e+02,	 9.9999999999999989e+02,	 3.3237670711487277e+02,	 3.0086344156914397e+00 
3.5735290000000003e-02,	 0.0000000000000000e+00,	 1.1586407740522199e-02,	 1.0000000000000000e+03,	 -1.3422598286131573e-14,	 3.0000000000000000e+02,	 1.0000000000000000e+03,	 3.3237670711487283e+02,	 3.0086344156914393e+00 
4.7647059999999998e-02,	 0.0000000000000000e+00,	 1.1586407740522199e-02,	 1.0000000000000000e+03,	 -2.2356578604812193e-14,	 3.0000000000000000e+02,	 1.0000000000000000e+03,	 3.3237670711487283e+02,	 3.0086344156914393e+00 
5.9558819999999998e-02,	 0.0000000000000000e+00,	 1.1586407740522199e-02,	 1.0000000000000000e+03,	 -1.5966928905291579e-14,	 3.0000000000000000e+02,	 1.0000000000000000e+03,	 3.3237670711487283e+02,	 3.0086344156914393e+00 
7.1470590000000001e-02,	 0.0000000000000000e+00,	 1.1586407740522199e-02,	 1.0000000000000000e+03,	 1.6225642673500953e-14,	 3.0000000000000000e+02,	 1.0000000000000000e+03,	 3.3237670711487283e+02,	 3.0086344156914393e+00 
8.3382349999999994e-02,	 0.0000000000000000e+00,	 1.1586407740522199e-02,	 1.0000000000000000e+03,	 -1.9032080760971674e-15,	 3.0000000000000000e+02,	 1.0000000000000000e+03,	 3.3237670711487283e+02,	 3.0086344156914393e+00 
9.5294119999999996e-02,	 0.0000000000000000e+00,	 1.1586407740522199e-02,	 1.0000000000000000e+03,	 -2.3426480527526999e-14,	 3.0000000000000000e+02,	 1.0000000000000000e+03,	 3.3237670711487283e+02,	 3.0086344156914393e+00 
1.0720590000000001e-01,	 0.0000000000000000e+00,	 1.1586407740522199e-02,	 1.0000000000000000e+03,	 -3.3866846638416540e-14,	 3.0000000000000000e+02,	 1.0000000000000000e+03,	 3.3237670711487283e+02,	 3.0086344156914393e+00 
1.1911760000000000e-01,	 0.0000000000000000e+00,	 1.1586407740522199e-02,	 1.0000000000000000e+03,	 -4.4754537813024866e-14,	 3.0000000000000000e+02,	 1.0000000000000000e+03,	 3.3237670711487283e+02,	 3.0086344156914393e+00 
1.3102939999999999e-01,	 0.0000000000000000e+00,	 1.1586407740522199e-02,	 1.0000000000000000e+03,	 -2.7548223731299317e-14,	 3.0000000000000000e+02,	 1.0000000000000000e+03,	 3.3237670711487283e+02,	 3.0086344156914393e+00 
1.4294119999999999e-01,	 0.0000000000000000e+00,	 1.1586407740522199e-02,	 1.0000000000000000e+03,	 -2.5007313726664634e-14,	 3.0000000000000000e+02,	 1.0000000000000000e+03,	 3.3237670711487283e+02,	 3.0086344156914393e+00 
1.5485289999999999e-01,	 0.0000000000000000e+00,	 1.1586407740522199e-02,	 1.0000000000000000e+03,	 -1.8265356034374009e-14,	 3.0000000000000000e+02,	 1.0000000000000000e+03,	 3.3237670711487283e+02,	 3.0086344156914393e+00 
1.6676469999999999e-01,	 0.0000000000000000e+00,	 1.1586407740522199e-02,	 1.0000000000000000e+03,	 -2.1635146625376844e-14,	 3.0000000000000000e+02,	 1.0000000000000000e+03,	 3.3237670711487283e+02,	 3.0086344156914393e+00 
1.7867649999999999e-01,	 0.0000000000000000e+00,	 1.1586407740522199e-02,	 1.0000000000000000e+03,	 -2.9616714709028954e-14,	 3.0000000000000000e+02,	 1.0000000000000000e+03,	 3.3237670711487283e+02,	 3.0086344156914393e+00 
1.9058820000000001e-01,	 0.0000000000000000e+00,	 1.1586407740522199e-02,	 1.0000000000000000e+03,	 -4.2203053991791914e-14,	 3.0000000000000000e+02,	 1.0000000000000000e+03,	 3.3237670711487283e+02,	 3.0086344156914393e+00 
2.0250000000000001e-01,	 0.0000000000000000e+00,	 1.1586407740522199e-02,	 1.0000000000000000e+03,	 -4.4709924019646985e-14,	 3.0000000000000000e+02,	 1.0000000000000000e+03,	 3.3237670711487283e+02,	 3.0086344156914393e+00 
2.1441180000000001e-01,	 0.0000000000000000e+00,	 1.1586407740522199e-02,	 1.0000000000000000e+03,	 -2.5263061219042984e-14,	 3.0000000000000000e+02,	 1.0000000000000000e+03,	 3.3237670711487283e+02,	 3.0086344156914393e+00 
2.2632350000000001e-01,	 0.0000000000000000e+00,	 1.1586407740522199e-02,	 1.0000000000000000e+03,	 -1.0405637619620180e-14,	 3.0000000000000000e+02,	 1.0000000000000000e+03,	 3.3237670711487283e+02,	 3.0086344156914393e+00 
2.3823530000000001e-01,	 0.0000000000000000e+00,	 1.1586407740522199e-02,	 1.0000000000000000e+03,	 -6.7547457274814254e-15,	 3.0000000000000000e+02,	 1.0000000000000000e+03,	 3.3237670711487283e+02,	 3.0086344156914393e+00 
2.5014710000000001e-01,	 0.0000000000000000e+00,	 1.1586407740522199e-02,	 1.0000000000000000e+03,	 -3.7546006770096695e-15,	 3.0000000000000000e+02,	 1.0000000000000000e+03,	 3.3237670711487283e+02,	 3.0086344156914393e+00 
2.6205879999999998e-01,	 0.0000000000000000e+00,	 1.1586407740522199e-02,	 1.0000000000000000e+03,	 -5.3119946415360515e-15,	 3.0000000000000000e+02,	 1.0000000000000000e+03,	 3.3237670711487283e+02,	 3.0086344156914393e+00 
2.7397060000000001e-01,	 0.0000000000000000e+00,	 1.1586407740522196e-02,	 1.0000000000000000e+03,	 -1.6954221072278336e-14,	 3.0000000000000000e+02,	 9.9999999999999977e+02,	 3.3237670711487283e+02,	 3.0086344156914393e+00 
2.8588239999999998e-01,	 0.0000000000000000e+00,	 1.1586407740522178e-02,	 9.9999999999999989e+02,	 6.2308588104449908e-14,	 3.0000000000000006e+02,	 9.9999999999999852e+02,	 3.3237670711487289e+02,	 3.0086344156914384e+00 
2.9779410000000001e-01,	 0.0000000000000000e+00,	 1.9498341688277979e-02,	 7.6560258310635288e+02,	 -2.5602939418067594e+00,	 4.5121332837191517e+02,	 2.5311013410225032e+03,	 4.0762509538948382e+02,	 1.8782132718623163e+00 
3.0970589999999998e-01,	 0.0000000000000000e+00,	 4.3414752122072658e-02,	 2.6678156764852775e+02,	 -2.6261689583445156e+00,	 7.6565148002285878e+02,	 9.5630932271427009e+03,	 5.3098899075017380e+02,	 5.0244825758134037e-01 
3.2161760000000000e-01,	 0.0000000000000000e+00,	 4.3545395944306432e-02,	 2.5409580117761141e+02,	 9.8859346516727498e-01,	 7.6583978360804724e+02,	 9.5942295357230232e+03,	 5.3105428219565113e+02,	 4.7847787470398928e-01 
3.3352939999999998e-01,	 0.0000000000000000e+00,	 4.3804973913226450e-02,	 2.4446671299603912e+02,	 5.2238125235765331e-01,	 7.6797861531175022e+02,	 9.6783760083493562e+03,	 5.3179532740281513e+02,	 4.5970180352386630e-01 
3.4544120000000000e-01,	 0.0000000000000000e+00,	 4.4144113510348491e-02,	 2.3411029882148742e+02,	 5.0783083362662684e-01,	 7.7042441433754755e+02,	 9.7843679016851293e+03,	 5.3264146461908354e+02,	 4.3952802243861128e-01 
3.5735289999999997e-01,	 0.0000000000000000e+00,	 4.4469900098444939e-02,	 2.2403280623895313e+02,	 5.1591507273229742e-01,	 7.7271619848639716e+02,	 9.8858976025159609e+03,	 5.3343310153120615e+02,	 4.1998406104512676e-01 
3.6926470000000000e-01,	 0.0000000000000000e+00,	 4.4778358901862360e-02,	 2.1419103964260913e+02,	 5.1671006926850249e-01,	 7.7486771380261598e+02,	 9.9821864168100656e+03,	 5.3417521856410212e+02,	 4.0097641269815582e-01 
3.8117649999999997e-01,	 0.0000000000000000e+00,	 4.5068903189312712e-02,	 2.0457324503642161e+02,	 5.1896679415337399e-01,	 7.7688033689542476e+02,	 1.0073051538014923e+04,	 5.3486849572674930e+02,	 3.8247514096285029e-01 
3.9308820000000000e-01,	 0.0000000000000000e+00,	 4.5342903411211936e-02,	 1.9517427331508026e+02,	 5.0989039010932613e-01,	 7.7876045982737924e+02,	 1.0158817441154652e+04,	 5.3551532046223315e+02,	 3.6446191527567490e-01 
4.0500000000000003e-01,	 0.0000000000000000e+00,	 4.5614283188190302e-02,	 1.8609676007378800e+02,	 5.2706041604542331e-01,	 7.8052495207869492e+02,	 1.0242773830882412e+04,	 5.3612165453343664e+02,	 3.4711805588322037e-01 
4.1475000000000001e-01,	 0.0000000000000000e+00,	 4.5848863914744437e-02,	 1.7833513111326812e+02,	 5.3941832831962766e-01,	 7.8192970106658481e+02,	 1.0313978602621621e+04,	 5.3660387986081059e+02,	 3.3234188869293124e-01 
4.2449999999999999e-01,	 0.0000000000000000e+00,	 4.6038352926628640e-02,	 1.7095432646304226e+02,	 5.5155626891034504e-01,	 7.8320969413266153e+02,	 1.0373558719708128e+04,	 5.3704290167247052e+02,	 3.1832692636199766e-01 
4.3425000000000002e-01,	 0.0000000000000000e+00,	 4.6218806543007279e-02,	 1.6363484898833099e+02,	 5.6574179481541287e-01,	 7.8443101500551666e+02,	 1.0430459017386747e+04,	 5.3746146531491092e+02,	 3.0446057536653187e-01 
4.4400000000000001e-01,	 0.0000000000000000e+00,	 4.6391535933915921e-02,	 1.5632631319678831e+02,	 5.8370235341939436e-01,	 7.8559991517746118e+02,	 1.0485040607013287e+04,	 5.3786175859937555e+02,	 2.9064606365554679e-01 
4.5374999999999999e-01,	 0.0000000000000000e+00,	 4.6557423035965627e-02,	 1.4897524848825026e+02,	 6.0844972574686795e-01,	 7.8672431212237530e+02,	 1.0537593541340846e+04,	 5.3824653071144451e+02,	 2.7678114489949840e-01 
4.6350000000000002e-01,	 0.0000000000000000e+00,	 4.6717448590596858e-02,	 1.4151277692547524e+02,	 6.4197573231480942e-01,	 7.8781180993859584e+02,	 1.0588429291203429e+04,	 5.3861841434096686e+02,	 2.6273560152866160e-01 
4.7325000000000000e-01,	 0.0000000000000000e+00,	 4.6872633046987619e-02,	 1.3384996259972809e+02,	 6.8700162033170087e-01,	 7.8887026342985882e+02,	 1.0637874771748626e+04,	 5.3898011949322563e+02,	 2.4834260264497962e-01 
4.8299999999999998e-01,	 0.0000000000000000e+00,	 4.7024239944276111e-02,	 1.2587327301770188e+02,	 7.4812076667315974e-01,	 7.8990762854792115e+02,	 1.0686316440928065e+04,	 5.3933438274245793e+02,	 2.3339045355313334e-01 
4.9275000000000002e-01,	 0.0000000000000000e+00,	 4.7172436053285097e-02,	 1.1744128169744775e+02,	 8.2890347562714073e-01,	 7.9093377250390631e+02,	 1.0733920193784610e+04,	 5.3968458514359224e+02,	 2.1761638205842601e-01 
5.0249999999999995e-01,	 0.0000000000000000e+00,	 4.7318048899704597e-02,	 1.0836289898838605e+02,	 9.2857133712105622e-01,	 7.9195614744247018e+02,	 1.0780971563211913e+04,	 5.4003327540390694e+02,	 2.0066703730352051e-01 
5.1224999999999998e-01,	 0.0000000000000000e+00,	 4.7460675163626717e-02,	 9.8447416498567264e+01,	 1.0299040436378375e+00,	 7.9296457162524962e+02,	 1.0827236762534936e+04,	 5.4037698721652578e+02,	 1.8219281322476974e-01 
5.2200000000000002e-01,	 0.0000000000000000e+00,	 4.7595697836322629e-02,	 8.7591514285459169e+01,	 1.1865021127422344e+00,	 7.9391059464116506e+02,	 1.0870993442727764e+04,	 5.4069923155480978e+02,	 1.6201160441607845e-01 
5.3174999999999994e-01,	 0.0000000000000000e+00,	 4.7703086425020802e-02,	 7.6284265392796783e+01,	 1.4246535132866778e+00,	 7.9483972829400682e+02,	 1.0908272607577614e+04,	 5.4101553603159493e+02,	 1.4102657367982152e-01 
5.4149999999999998e-01,	 0.0000000000000000e+00,	 4.7791266364210022e-02,	 6.4844119232677656e+01,	 1.6549365760738119e+00,	 7.9565166859597832e+02,	 1.0939600285257688e+04,	 5.4129179310491725e+02,	 1.1983413581162441e-01 
5.5125000000000002e-01,	 0.0000000000000000e+00,	 4.7872021673068504e-02,	 5.4161209927059161e+01,	 2.1367836667411351e+00,	 7.9607606926880590e+02,	 1.0963930522418003e+04,	 5.4143613640528486e+02,	 1.0011031845903758e-01 
5.6100000000000005e-01,	 0.0000000000000000e+00,	 4.7933826050031915e-02,	 4.5662878630517362e+01,	 1.1036116095040702e+00,	 7.9663687001930373e+02,	 1.0985818903126270e+04,	 5.4162681186162956e+02,	 8.4331521450682248e-02 
0.0000000000000000e+00,	 7.1942450000000002e-03,	 1.1586407740522197e-02,	 1.0000000000000000e+03,	 -1.4191012172505104e-15,	 3.0000000000000006e+02,	 1.0000000000000001e+03,	 3.3237670711487289e+02,	 3.0086344156914384e+00 
1.1893000000000001e-02,	 7.1968090000000002e-03,	 1.1586407740522197e-02,	 1.0000000000000000e+03,	 -1.5035534359534431e-14,	 2.9999999999999989e+02,	 9.9999999999999955e+02,	 3.3237670711487277e+02,	 3.0086344156914397e+00 
2.3780860000000001e-02,	 7.2016620000000002e-03,	 1.1586407740522201e-02,	 1.0000000000000000e+03,	 -4.0669860196680800e-14,	 2.9999999999999989e+02,	 9.9999999999999977e+02,	 3.3237670711487277e+02,	 3.0086344156914397e+00 
3.5663519999999997e-02,	 7.2084610000000002e-03,	 1.1586407740522201e-02,	 1.0000000000000000e+03,	 -5.1862780465677672e-14,	 2.9999999999999994e+02,	 1.0000000000000000e+03,	 3.3237670711487277e+02,	 3.0086344156914397e+00 
4.7543320000000000e-02,	 7.2157790000000003e-03,	 1.1586407740522201e-02,	 1.0000000000000000e+03,	 -4.6724254567214454e-14,	 2.9999999999999994e+02,	 1.0000000000000000e+03,	 3.3237670711487277e+02,	 3.0086344156914397e+00 
5.9420819999999999e-02,	 7.2232470000000003e-03,	 1.1586407740522199e-02,	 1.0000000000000000e+03,	 -3.8779508574408122e-14,	 3.0000000000000000e+02,	 1.0000000000000000e+03,	 3.3237670711487283e+02,	 3.0086344156914393e+00 
7.1297159999999998e-02,	 7.2306990000000002e-03,	 1.1586407740522199e-02,	 1.0000000000000000e+03,	 -6.1483131996291216e-14,	 3.0000000000000000e+02,	 1.0000000000000000e+03,	 3.3237670711487283e+02,	 3.0086344156914393e+00 
8.3172609999999994e-02,	 7.2383220000000002e-03,	 1.1586407740522199e-02,	 1.0000000000000000e+03,	 -5.2959456633698351e-14,	 3.0000000000000000e+02,	 1.0000000000000000e+03,	 3.3237670711487283e+02,	 3.0086344156914393e+00 
9.5047480000000004e-02,	 7.2462650000000000e-03,	 1.1586407740522199e-02,	 1.0000000000000000e+03,	 -4.6015926864102273e-14,	 3.0000000000000000e+02,	 1.0000000000000000e+03,	 3.3237670711487283e+02,	 3.0086344156914393e+00 
1.0692160000000001e-01,	 7.2545850000000000e-03,	 1.1586407740522199e-02,	 1.0000000000000000e+03,	 -4.2255763388473998e-14,	 3.0000000000000000e+02,	 1.0000000000000000e+03,	 3.3237670711487283e+02,	 3.0086344156914393e+00 
1.1879480000000001e-01,	 7.2632419999999996e-03,	 1.1586407740522199e-02,	 1.0000000000000000e+03,	 -4.6130887343543780e-14,	 3.0000000000000000e+02,	 1.0000000000000000e+03,	 3.3237670711487283e+02,	 3.0086344156914393e+00 
1.3066720000000001e-01,	 7.2724549999999997e-03,	 1.1586407740522199e-02,	 1.0000000000000000e+03,	 -5.8483128797175082e-14,	 3.0000000000000000e+02,	 1.0000000000000000e+03,	 3.3237670711487283e+02,	 3.0086344156914393e+00 
1.4253869999999999e-01,	 7.2823610000000002e-03,	 1.1586407740522199e-02,	 1.0000000000000000e+03,	 -7.9934324084909868e-14,	 3.0000000000000000e+02,	 1.0000000000000000e+03,	 3.3237670711487283e+02,	 3.0086344156914393e+00 
1.5440920000000000e-01,	 7.2930809999999999e-03,	 1.1586407740522199e-02,	 1.0000000000000000e+03,	 -8.4628734250029024e-14,	 3.0000000000000000e+02,	 1.0000000000000000e+03,	 3.3237670711487283e+02,	 3.0086344156914393e+00 
1.6627870000000000e-01,	 7.3046140000000001e-03,	 1.1586407740522199e-02,	 1.0000000000000000e+03,	 -7.3101927260880087e-14,	 3.0000000000000000e+02,	 1.0000000000000000e+03,	 3.3237670711487283e+02,	 3.0086344156914393e+00 
1.7814700000000000e-01,	 7.3169630000000001e-03,	 1.1586407740522199e-02,	 1.0000000000000000e+03,	 -5.0164891247864502e-14,	 3.0000000000000000e+02,	 1.0000000000000000e+03,	 3.3237670711487283e+02,	 3.0086344156914393e+00 
1.9001409999999999e-01,	 7.3302180000000003e-03,	 1.1586407740522199e-02,	 1.0000000000000000e+03,	 -4.1718321230205204e-14,	 3.0000000000000000e+02,	 1.0000000000000000e+03,	 3.3237670711487283e+02,	 3.0086344156914393e+00 
2.0187980000000000e-01,	 7.3445220000000000e-03,	 1.1586407740522199e-02,	 1.0000000000000000e+03,	 -2.1164745814569496e-14,	 3.0000000000000000e+02,	 1.0000000000000000e+03,	 3.3237670711487283e+02,	 3.0086344156914393e+00 
2.1374420000000000e-01,	 7.3599410000000001e-03,	 1.1586407740522199e-02,	 1.0000000000000000e+03,	 -1.2971943275622146e-14,	 3.0000000000000000e+02,	 1.0000000000000000e+03,	 3.3237670711487283e+02,	 3.0086344156914393e+00 
2.2560700000000000e-01,	 7.3765139999999998e-03,	 1.1586407740522199e-02,	 1.0000000000000000e+03,	 -1.2740080557936551e-14,	 3.0000000000000000e+02,	 1.0000000000000000e+03,	 3.3237670711487283e+02,	 3.0086344156914393e+00 
2.3746829999999999e-01,	 7.3942480000000000e-03,	 1.1586407740522199e-02,	 1.0000000000000000e+03,	 -7.9030996550273161e-15,	 3.0000000000000000e+02,	 1.0000000000000000e+03,	 3.3237670711487283e+02,	 3.0086344156914393e+00 
2.4932799999999999e-01,	 7.4132440000000003e-03,	 1.1586407740522199e-02,	 1.0000000000000000e+03,	 -3.0904924349156256e-15,	 3.0000000000000000e+02,	 1.0000000000000000e+03,	 3.3237670711487283e+02,	 3.0086344156914393e+00 
2.6118580000000002e-01,	 7.4336740000000004e-03,	 1.1586407740522199e-02,	 1.0000000000000000e+03,	 -4.1100442923835251e-15,	 3.0000000000000000e+02,	 1.0000000000000000e+03,	 3.3237670711487283e+02,	 3.0086344156914393e+00 
2.7304170000000000e-01,	 7.4556529999999996e-03,	 1.1586407740522199e-02,	 1.0000000000000000e+03,	 -3.0006363216759332e-14,	 3.0000000000000006e+02,	 1.0000000000000002e+03,	 3.3237670711487289e+02,	 3.0086344156914384e+00 
2.8489560000000003e-01,	 7.4794309999999999e-03,	 1.1586407740522199e-02,	 1.0000000000000002e+03,	 2.5644799236914736e-13,	 2.9999999999999966e+02,	 9.9999999999999886e+02,	 3.3237670711487266e+02,	 3.0086344156914415e+00 
2.9674719999999999e-01,	 7.5051470000000002e-03,	 1.8462073011041920e-02,	 7.8626620649299275e+02,	 5.2584635059308027e-01,	 4.3384863131656641e+02,	 2.3043510080908127e+03,	 3.9970452917161515e+02,	 1.9671190215499581e+00 
3.0859660000000000e-01,	 7.5330509999999998e-03,	 4.2233084150812367e-02,	 2.7397060637438528e+02,	 2.3972556390816471e+00,	 7.6081189815778339e+02,	 9.2440020057470065e+03,	 5.2930817485161970e+02,	 5.1762112742735322e-01 
3.2044370000000000e-01,	 7.5632670000000003e-03,	 4.3388195958871917e-02,	 2.5263501684525266e+02,	 4.2975889713593132e+00,	 7.6619610202084345e+02,	 9.5640418675345409e+03,	 5.3117780830270135e+02,	 4.7568170868550425e-01 
3.3228849999999999e-01,	 7.5961609999999997e-03,	 4.3712932477699334e-02,	 2.4265660555188691e+02,	 5.2166522911776365e+00,	 7.6865282232197251e+02,	 9.6665189284512035e+03,	 5.3202870726176059e+02,	 4.5620221198292571e-01 
3.4413040000000000e-01,	 7.6318719999999996e-03,	 4.4053565428044367e-02,	 2.3233748485872641e+02,	 5.2674363488719731e+00,	 7.7107591494751796e+02,	 9.7725553452683544e+03,	 5.3286662811407462e+02,	 4.3612636865392435e-01 
3.5596949999999999e-01,	 7.6707809999999998e-03,	 4.4383031102109088e-02,	 2.2222277322418921e+02,	 5.2991097590567700e+00,	 7.7335869701578656e+02,	 9.8747900331218152e+03,	 5.3365482508909383e+02,	 4.1653506144325170e-01 
3.6780429999999997e-01,	 7.7127239999999998e-03,	 4.4693263066975894e-02,	 2.1234888081466292e+02,	 5.2995760425517382e+00,	 7.7549169239127798e+02,	 9.9712395738444375e+03,	 5.3439025321971633e+02,	 3.9749041045098260e-01 
3.7963120000000000e-01,	 7.7581860000000002e-03,	 4.4985311411070601e-02,	 2.0269932469532435e+02,	 5.2972134053770858e+00,	 7.7748368796277316e+02,	 1.0062177050703569e+04,	 5.3507615373357669e+02,	 3.7895265645027554e-01 
3.9143309999999998e-01,	 7.8078910000000000e-03,	 4.5260384949205090e-02,	 1.9327267509383560e+02,	 5.2819811201951001e+00,	 7.7933999661822486e+02,	 1.0147875868344359e+04,	 5.3571454289881410e+02,	 3.6091019042838818e-01 
4.0312029999999999e-01,	 7.8655070000000007e-03,	 4.5531538391992206e-02,	 1.8414108107476835e+02,	 5.2898728288562289e+00,	 7.8108135557218793e+02,	 1.0231481728405992e+04,	 5.3631270980866077e+02,	 3.4348812525067524e-01 
4.1299279999999999e-01,	 7.9389800000000000e-03,	 4.5767486744634434e-02,	 1.7632353644441906e+02,	 5.3320824398862436e+00,	 7.8247827462601776e+02,	 1.0302895387976005e+04,	 5.3679207778245745e+02,	 3.2862657124867983e-01 
4.2272470000000001e-01,	 8.0122670000000000e-03,	 4.5960837521277782e-02,	 1.6889334694549862e+02,	 5.3946779561039495e+00,	 7.8375634481576708e+02,	 1.0363320776972334e+04,	 5.3723028677705440e+02,	 3.1453826363142551e-01 
4.3242049999999999e-01,	 8.0881470000000004e-03,	 4.6142896580065366e-02,	 1.6154535415225132e+02,	 5.4790602064592626e+00,	 7.8496279200315234e+02,	 1.0420387331362341e+04,	 5.3764361085524808e+02,	 3.0064198583980845e-01 
4.4210129999999997e-01,	 8.1703969999999994e-03,	 4.6316534233281720e-02,	 1.5422050651793899e+02,	 5.5960105172562127e+00,	 7.8611113469518386e+02,	 1.0474901308692833e+04,	 5.3803673361240328e+02,	 2.8682428404512805e-01 
4.5177210000000001e-01,	 8.2603099999999999e-03,	 4.6482871808037757e-02,	 1.4687259875096785e+02,	 5.7624874660130123e+00,	 7.8721014662769312e+02,	 1.0527216934174192e+04,	 5.3841269970728752e+02,	 2.7299801769532434e-01 
4.6143350000000000e-01,	 8.3585910000000003e-03,	 4.6642920679560357e-02,	 1.3944715114124801e+02,	 5.9969743165283482e+00,	 7.8826574022254795e+02,	 1.0577628896149467e+04,	 5.3877356560794544e+02,	 2.5906252921438711e-01 
4.7108410000000001e-01,	 8.4664159999999992e-03,	 4.6797595959953885e-02,	 1.3187944860555871e+02,	 6.3224339928949469e+00,	 7.8928260353027918e+02,	 1.0626396379109230e+04,	 5.3912096273008854e+02,	 2.4490035203550606e-01 
4.8072090000000001e-01,	 8.5855540000000004e-03,	 4.6947587981457359e-02,	 1.2409663378363106e+02,	 6.7485496729155283e+00,	 7.9026568741644314e+02,	 1.0673733314526642e+04,	 5.3945660689413069e+02,	 2.3037996855711676e-01 
4.9033830000000000e-01,	 8.7186290000000003e-03,	 4.7093021798871731e-02,	 1.1600373723804653e+02,	 7.3533495921277723e+00,	 7.9121972330244512e+02,	 1.0719723924687854e+04,	 5.3978213395085402e+02,	 2.1533977628834633e-01 
4.9992779999999998e-01,	 8.8699790000000001e-03,	 4.7235043222048571e-02,	 1.0749141581237441e+02,	 8.1663383701387779e+00,	 7.9212694505159061e+02,	 1.0764380506537347e+04,	 5.4009150553449354e+02,	 1.9959798466717274e-01 
5.0947399999999998e-01,	 9.0498560000000002e-03,	 4.7373241080439880e-02,	 9.8450686387132620e+01,	 9.1998923984568215e+00,	 7.9299138846112055e+02,	 1.0807655850310539e+04,	 5.4038612449641050e+02,	 1.8297953520502330e-01 
5.1893619999999996e-01,	 9.3160589999999998e-03,	 4.7504705600132938e-02,	 8.8831722591554509e+01,	 1.0421327759353771e+01,	 7.9386456838771244e+02,	 1.0849581524663079e+04,	 5.4068355805155716e+02,	 1.6542194295756441e-01 
5.2809899999999999e-01,	 1.0093440000000000e-02,	 4.7609380045615809e-02,	 7.8807565999812681e+01,	 1.1863777819721747e+01,	 7.9470034558421935e+02,	 1.0884935642585426e+04,	 5.4096809784063544e+02,	 1.4732025150675448e-01 
5.3789909999999996e-01,	 1.1641749999999999e-02,	 4.7698159119874357e-02,	 6.8810141218894984e+01,	 1.2985049806819736e+01,	 7.9540946614767233e+02,	 1.0914964077282984e+04,	 5.4120940015498741e+02,	 1.2938544204651606e-01 
5.4704310000000000e-01,	 1.2462290000000001e-02,	 4.7784036385488698e-02,	 5.9564511427243453e+01,	 1.3805730145626839e+01,	 7.9587152126616616e+02,	 1.0940967664306372e+04,	 5.4136657220181189e+02,	 1.1294290475152496e-01 
5.5569170000000001e-01,	 1.3366340000000001e-02,	 4.7840305317383841e-02,	 5.2506972954966500e+01,	 1.3307990875253317e+01,	 7.9637732282682828e+02,	 1.0960812912596240e+04,	 5.4153857268031140e+02,	 1.0002462619085163e-01 
0.0000000000000000e+00,	 1.4388490000000000e-02,	 1.1586407740522196e-02,	 1.0000000000000000e+03,	 2.3981452097627345e-15,	 3.0000000000000000e+02,	 9.9999999999999977e+02,	 3.3237670711487283e+02,	 3.0086344156914393e+00 
1.1884189999999999e-02,	 1.4387779999999999e-02,	 1.1586407740522199e-02,	 1.0000000000000000e+03,	 -1.3106208851585624e-14,	 2.9999999999999994e+02,	 9.9999999999999989e+02,	 3.3237670711487277e+02,	 3.0086344156914397e+00 
2.3754830000000001e-02,	 1.4393750000000000e-02,	 1.1586407740522203e-02,	 1.0000000000000000e+03,	 -3.9569146883326119e-14,	 2.9999999999999989e+02,	 1.0000000000000001e+03,	 3.3237670711487277e+02,	 3.0086344156914397e+00 
3.5613760000000001e-02,	 1.4401030000000000e-02,	 1.1586407740522203e-02,	 1.0000000000000000e+03,	 -6.3768231784691579e-14,	 2.9999999999999989e+02,	 1.0000000000000001e+03,	 3.3237670711487277e+02,	 3.0086344156914397e+00 
4.7466370000000001e-02,	 1.4407069999999999e-02,	 1.1586407740522203e-02,	 1.0000000000000000e+03,	 -8.8217267282722114e-14,	 2.9999999999999989e+02,	 1.0000000000000001e+03,	 3.3237670711487277e+02,	 3.0086344156914397e+00 
5.9313600000000001e-02,	 1.4411500000000001e-02,	 1.1586407740522201e-02,	 1.0000000000000000e+03,	 -7.7776065749551884e-14,	 2.9999999999999994e+02,	 1.0000000000000000e+03,	 3.3237670711487277e+02,	 3.0086344156914397e+00 
7.1158050000000000e-02,	 1.4414800000000000e-02,	 1.1586407740522199e-02,	 1.0000000000000000e+03,	 -7.4597172370584939e-14,	 3.0000000000000000e+02,	 1.0000000000000000e+03,	 3.3237670711487283e+02,	 3.0086344156914393e+00 
8.3000299999999999e-02,	 1.4417289999999999e-02,	 1.1586407740522199e-02,	 1.0000000000000000e+03,	 -7.4534224197484331e-14,	 3.0000000000000000e+02,	 1.0000000000000000e+03,	 3.3237670711487283e+02,	 3.0086344156914393e+00 
9.4840939999999999e-02,	 1.4419599999999999e-02,	 1.1586407740522199e-02,	 1.0000000000000000e+03,	 -6.9862352755401778e-14,	 3.0000000000000000e+02,	 1.0000000000000000e+03,	 3.3237670711487283e+02,	 3.0086344156914393e+00 
1.0667950000000000e-01,	 1.4422180000000000e-02,	 1.1586407740522199e-02,	 1.0000000000000000e+03,	 -6.0094630590625599e-14,	 3.0000000000000000e+02,	 1.0000000000000000e+03,	 3.3237670711487283e+02,	 3.0086344156914393e+00 
1.1851600000000000e-01,	 1.4425420000000000e-02,	 1.1586407740522199e-02,	 1.0000000000000000e+03,	 -5.9898908548826609e-14,	 3.0000000000000000e+02,	 1.0000000000000000e+03,	 3.3237670711487283e+02,	 3.0086344156914393e+00 
1.3035040000000001e-01,	 1.4429869999999999e-02,	 1.1586407740522199e-02,	 1.0000000000000000e+03,	 -5.1001331302600200e-14,	 3.0000000000000000e+02,	 1.0000000000000000e+03,	 3.3237670711487283e+02,	 3.0086344156914393e+00 
1.4218270000000000e-01,	 1.4435920000000000e-02,	 1.1586407740522199e-02,	 1.0000000000000000e+03,	 -6.1019918924791791e-14,	 3.0000000000000000e+02,	 1.0000000000000000e+03,	 3.3237670711487283e+02,	 3.0086344156914393e+00 
1.5401270000000000e-01,	 1.4443950000000001e-02,	 1.1586407740522199e-02,	 1.0000000000000000e+03,	 -7.3641349417581292e-14,	 3.0000000000000000e+02,	 1.0000000000000000e+03,	 3.3237670711487283e+02,	 3.0086344156914393e+00 
1.6584009999999999e-01,	 1.4454140000000001e-02,	 1.1586407740522199e-02,	 1.0000000000000000e+03,	 -6.2722715283205199e-14,	 3.0000000000000000e+02,	 1.0000000000000000e+03,	 3.3237670711487283e+02,	 3.0086344156914393e+00 
1.7766470000000001e-01,	 1.4466750000000000e-02,	 1.1586407740522199e-02,	 1.0000000000000000e+03,	 -4.4014493173424215e-14,	 3.0000000000000000e+02,	 1.0000000000000000e+03,	 3.3237670711487283e+02,	 3.0086344156914393e+00 
1.8948599999999999e-01,	 1.4481950000000000e-02,	 1.1586407740522199e-02,	 1.0000000000000000e+03,	 -3.1940157667332444e-14,	 3.0000000000000000e+02,	 1.0000000000000000e+03,	 3.3237670711487283e+02,	 3.0086344156914393e+00 
2.0130410000000001e-01,	 1.4500120000000000e-02,	 1.1586407740522199e-02,	 1.0000000000000000e+03,	 -8.7997282638048554e-15,	 3.0000000000000000e+02,	 1.0000000000000000e+03,	 3.3237670711487283e+02,	 3.0086344156914393e+00 
2.1311859999999999e-01,	 1.4521420000000000e-02,	 1.1586407740522199e-02,	 1.0000000000000000e+03,	 -9.3130457800729832e-15,	 3.0000000000000000e+02,	 1.0000000000000000e+03,	 3.3237670711487283e+02,	 3.0086344156914393e+00 
2.2492909999999999e-01,	 1.4546190000000001e-02,	 1.1586407740522199e-02,	 1.0000000000000000e+03,	 -1.0568158178675824e-14,	 3.0000000000000000e+02,	 1.0000000000000000e+03,	 3.3237670711487283e+02,	 3.0086344156914393e+00 
2.3673549999999999e-01,	 1.4574560000000000e-02,	 1.1586407740522199e-02,	 1.0000000000000000e+03,	 -7.7827195723082422e-15,	 3.0000000000000000e+02,	 1.0000000000000000e+03,	 3.3237670711487283e+02,	 3.0086344156914393e+00 
2.4853729999999999e-01,	 1.4607040000000000e-02,	 1.1586407740522199e-02,	 1.0000000000000000e+03,	 -6.2548597958588195e-15,	 3.0000000000000000e+02,	 1.0000000000000000e+03,	 3.3237670711487283e+02,	 3.0086344156914393e+00 
2.6033430000000002e-01,	 1.4643959999999999e-02,	 1.1586407740522201e-02,	 1.0000000000000000e+03,	 -1.3475890629353399e-14,	 3.0000000000000000e+02,	 1.0000000000000002e+03,	 3.3237670711487283e+02,	 3.0086344156914393e+00 
2.7212579999999997e-01,	 1.4685920000000000e-02,	 1.1586407740522208e-02,	 1.0000000000000000e+03,	 -4.7716129568627759e-14,	 3.0000000000000006e+02,	 1.0000000000000010e+03,	 3.3237670711487289e+02,	 3.0086344156914384e+00 
2.8391159999999999e-01,	 1.4733410000000001e-02,	 1.1586407740522147e-02,	 1.0000000000000001e+03,	 1.7036838017497134e-13,	 2.9999999999999966e+02,	 9.9999999999999454e+02,	 3.3237670711487266e+02,	 3.0086344156914411e+00 
2.9569099999999998e-01,	 1.4787130000000001e-02,	 1.7064974813862818e-02,	 8.2807818288638907e+02,	 3.8219821159386300e+00,	 4.1225999474276352e+02,	 2.0239826368396623e+03,	 3.8963283660827733e+02,	 2.1253008606709880e+00 
3.0746420000000002e-01,	 1.4847559999999999e-02,	 4.0639019818140838e-02,	 2.8654878383246933e+02,	 8.9648598136144386e+00,	 7.5698192526819548e+02,	 8.8503138481706610e+03,	 5.2797420931178829e+02,	 5.4299808613821643e-01 
3.1923030000000002e-01,	 1.4915579999999999e-02,	 4.3148757781186445e-02,	 2.4793695606782796e+02,	 8.8465277545411531e+00,	 7.6728743714377106e+02,	 9.5248100231774242e+03,	 5.3155596653265002e+02,	 4.6673303657672510e-01 
3.3098939999999999e-01,	 1.4991970000000000e-02,	 4.3545338512600583e-02,	 2.3719368303884201e+02,	 1.0475048361909080e+01,	 7.6992369647625219e+02,	 9.6453789482641114e+03,	 5.3246834806257414e+02,	 4.4589480859479330e-01 
3.4273989999999999e-01,	 1.5077820000000000e-02,	 4.3907545555594403e-02,	 2.2686833436610448e+02,	 1.0548705922323588e+01,	 7.7232489248743980e+02,	 9.7559402246859099e+03,	 5.3329801829762880e+02,	 4.2586590604804803e-01 
3.5448200000000002e-01,	 1.5174000000000000e-02,	 4.4243913728164323e-02,	 2.1684875806159636e+02,	 1.0592666012996082e+01,	 7.7454192264991377e+02,	 9.8588986831290931e+03,	 5.3406291045426724e+02,	 4.0652012312016367e-01 