TITLE = "Final State"
VARIABLES = "X", "Y", "rho", "u", "v", "T", "p", "c", "M"
ZONE I=101, J=71, DATAPACKING=POINT
1.5295010000000000e+00,	 2.0000000000000001e-01,	 2.0263802963484959e-02,	 -6.0738828183562930e+01,	 -7.9641140270997202e-01,	 8.5672731658099156e+02,	 4.9945171173620884e+03,	 5.6168297565601108e+02,	 1.0814650236970519e-01 
1.5369660000000001e+00,	 2.0000000000000001e-01,	 2.0303675142978254e-02,	 -5.0591522188848288e+01,	 -8.4994803933760910e-01,	 8.5490635153085532e+02,	 4.9937079227885415e+03,	 5.6108573245103867e+02,	 9.0179910858808290e-02 
1.5444300000000000e+00,	 2.0000000000000001e-01,	 2.0379819883141172e-02,	 -3.9587569408961755e+01,	 -3.7688955101943566e-01,	 8.5229703176125645e+02,	 4.9971369853435426e+03,	 5.6022881348343537e+02,	 7.0666417873176790e-02 
1.5518950000000000e+00,	 2.0000000000000001e-01,	 2.0528490855204487e-02,	 -2.6983399888788771e+01,	 -3.5755289606602991e-01,	 8.5080221984852665e+02,	 5.0247629178638990e+03,	 5.5973731569415850e+02,	 4.8211487723763831e-02 
1.5593589999999999e+00,	 2.0000000000000001e-01,	 2.0699935974052813e-02,	 -1.3315832504605520e+01,	 -5.0179194381844106e-01,	 8.4940090528926555e+02,	 5.0583824165785982e+03,	 5.5927616780848450e+02,	 2.3825946188314573e-02 
1.5668230000000001e+00,	 2.0000000000000001e-01,	 2.0876270904768852e-02,	 1.1523759071461166e+00,	 -6.3876757028807907e-01,	 8.4779597079208656e+02,	 5.0918336826485092e+03,	 5.5874754462658325e+02,	 2.3580798775357085e-03 
1.5742879999999999e+00,	 2.0000000000000001e-01,	 2.1029953931635658e-02,	 1.5841511184614781e+01,	 -8.6622284517076320e-01,	 8.4587748417325065e+02,	 5.1177106031915500e+03,	 5.5811498865594535e+02,	 2.8426357667961148e-02 
1.5817520000000000e+00,	 2.0000000000000001e-01,	 2.1113508280461907e-02,	 2.9732693633342272e+01,	 -1.0246626755384716e+00,	 8.4317811795147031e+02,	 5.1216472997092196e+03,	 5.5722374812173246e+02,	 5.3390302743285781e-02 
1.5892170000000001e+00,	 2.0000000000000001e-01,	 2.1178876511340233e-02,	 4.2887981337769759e+01,	 -5.9254298874142508e-01,	 8.4035174747278063e+02,	 5.1202829742099311e+03,	 5.5628904480348604e+02,	 7.7103935172402771e-02 
1.5966810000000000e+00,	 2.0000000000000001e-01,	 2.1348065927600690e-02,	 5.6692023335775332e+01,	 2.4995154508229978e-01,	 8.3935704313862198e+02,	 5.1550776550730079e+03,	 5.5595971427771246e+02,	 1.0197245031868432e-01 
1.6041460000000001e+00,	 2.0000000000000001e-01,	 2.1629074370726115e-02,	 7.1943939690784731e+01,	 4.6423259252057902e-01,	 8.4027662059041995e+02,	 5.2286569820283476e+03,	 5.5626417831403978e+02,	 1.2933681559337371e-01 
1.6116100000000000e+00,	 2.0000000000000001e-01,	 2.1869475760396162e-02,	 8.6931983129839494e+01,	 -7.3554826804882678e-02,	 8.4079944347392552e+02,	 5.2900615560933293e+03,	 5.5643720610641230e+02,	 1.5622969365439529e-01 
1.6190750000000000e+00,	 2.0000000000000001e-01,	 2.1946067980746914e-02,	 1.0016414582884218e+02,	 -8.3402455523314423e-01,	 8.3900152585574813e+02,	 5.2972370541802857e+03,	 5.5584196091964088e+02,	 1.8020880951145576e-01 
1.6265390000000000e+00,	 2.0000000000000001e-01,	 2.1927499224698652e-02,	 1.1258245501581635e+02,	 -9.9690370359176406e-01,	 8.3596426419768727e+02,	 5.2735947631008103e+03,	 5.5483494955624474e+02,	 2.0291956869118696e-01 
1.6340040000000000e+00,	 2.0000000000000001e-01,	 2.1960178438739271e-02,	 1.2587603740441230e+02,	 -5.7905041764810639e-01,	 8.3405398446627009e+02,	 5.2693853972710449e+03,	 5.5420065441294946e+02,	 2.2713320213263213e-01 
1.6414679999999999e+00,	 2.0000000000000001e-01,	 2.2073843995469626e-02,	 1.4006092843799377e+02,	 -2.4338889059042579e-01,	 8.3387605284421693e+02,	 5.2955297029251724e+03,	 5.5414153648834633e+02,	 2.5275336838709400e-01 
1.6489330000000000e+00,	 2.0000000000000001e-01,	 2.2188763892243737e-02,	 1.5366230562450039e+02,	 -1.6889084455207692e-01,	 8.3424710022563590e+02,	 5.3254676655749927e+03,	 5.5426481014377043e+02,	 2.7723643216481619e-01 
1.6563969999999999e+00,	 2.0000000000000001e-01,	 2.2215428001823662e-02,	 1.6566922870167414e+02,	 -3.0475990311785583e-01,	 8.3389523790224143e+02,	 5.3296184154042567e+03,	 5.5414791104266249e+02,	 2.9896261578084216e-01 
1.6638610000000000e+00,	 2.0000000000000001e-01,	 2.2114433197154591e-02,	 1.7577972724692575e+02,	 -8.4757142079253578e-01,	 8.3194126789363725e+02,	 5.2929576347306938e+03,	 5.5349829500781220e+02,	 3.1758321971818770e-01 
1.6713260000000001e+00,	 2.0000000000000001e-01,	 2.1870775586451126e-02,	 1.8366892770852974e+02,	 -1.2127881508909275e+00,	 8.2799920908574188e+02,	 5.2098358965736161e+03,	 5.5218539363288698e+02,	 3.3262910224757269e-01 
1.6787900000000000e+00,	 2.0000000000000001e-01,	 2.1634495351916957e-02,	 1.9101992560135585e+02,	 -7.6073525716841472e-01,	 8.2431155292266021e+02,	 5.1305992503226562e+03,	 5.5095438873464889e+02,	 3.4671008038426065e-01 
1.6862550000000001e+00,	 2.0000000000000001e-01,	 2.1605243005364830e-02,	 2.0065218519558093e+02,	 3.0114006140413169e-01,	 8.2428110983368379e+02,	 5.1234728604749052e+03,	 5.5094421484573365e+02,	 3.6419732845018810e-01 
1.6937190000000000e+00,	 2.0000000000000001e-01,	 2.1813465040230622e-02,	 2.1364787579072993e+02,	 7.8964716779789601e-01,	 8.2820017388101417e+02,	 5.1974451281918482e+03,	 5.5225240039495543e+02,	 3.8686900212557185e-01 
1.7011840000000000e+00,	 2.0000000000000001e-01,	 2.1979738371234164e-02,	 2.2582570283607743e+02,	 2.2599274661997470e-01,	 8.3193951344999630e+02,	 5.2607081377403183e+03,	 5.5349771138363508e+02,	 4.0799774104121606e-01 
1.7086479999999999e+00,	 2.0000000000000001e-01,	 2.1886882453209019e-02,	 2.3297378033908288e+02,	 -6.4833435821906860e-01,	 8.3212530498193678e+02,	 5.2396535504798649e+03,	 5.5355951241924345e+02,	 4.2086655043167276e-01 
1.7161130000000000e+00,	 2.0000000000000001e-01,	 2.1617849410316164e-02,	 2.3669571379541287e+02,	 -8.3029188713321611e-01,	 8.2859147983832099e+02,	 5.1532698874300495e+03,	 5.5238284840830863e+02,	 4.2850202670234550e-01 
1.7235769999999999e+00,	 2.0000000000000001e-01,	 2.1419481328418269e-02,	 2.4191540735583177e+02,	 -5.2704173704060686e-01,	 8.2612183357369827e+02,	 5.0907642775663207e+03,	 5.5155903577357913e+02,	 4.3860396762004239e-01 
1.7310420000000000e+00,	 2.0000000000000001e-01,	 2.1335261997423173e-02,	 2.4913688983808782e+02,	 -4.3420109720550748e-01,	 8.2542441906819943e+02,	 5.0664671438814576e+03,	 5.5132617272921425e+02,	 4.5188725028594284e-01 
1.7385060000000001e+00,	 2.0000000000000001e-01,	 2.1274887005143232e-02,	 2.5611456734702824e+02,	 -3.2101175235287482e-01,	 8.2504284923120053e+02,	 5.0497944904892256e+03,	 5.5119872692645561e+02,	 4.6465050808758324e-01 
1.7459709999999999e+00,	 2.0000000000000001e-01,	 2.1186366691450118e-02,	 2.6151502361636392e+02,	 -8.2938420137090851e-02,	 8.2424134589309892e+02,	 5.0238980557858758e+03,	 5.5093092570384931e+02,	 4.7467844799972309e-01 
1.7534350000000001e+00,	 2.0000000000000001e-01,	 2.1075179627391836e-02,	 2.6601637163085877e+02,	 -7.3323352645595863e-02,	 8.2305819687714882e+02,	 4.9903587408767644e+03,	 5.5053536955344453e+02,	 4.8319580620562819e-01 
1.7608990000000000e+00,	 2.0000000000000001e-01,	 2.0935671518865162e-02,	 2.7021113574869935e+02,	 -4.6468216080223068e-01,	 8.2126829381856737e+02,	 4.9465441499211511e+03,	 5.4993641964416531e+02,	 4.9135050099111488e-01 
1.7683640000000000e+00,	 2.0000000000000001e-01,	 2.0740542088203105e-02,	 2.7384943566960271e+02,	 -1.3495770558799063e+00,	 8.1829903287236539e+02,	 4.8827229031674160e+03,	 5.4894138346369709e+02,	 4.9887432314763863e-01 
1.7758280000000000e+00,	 2.0000000000000001e-01,	 2.0502769934856335e-02,	 2.7705117697336891e+02,	 -1.8395188207234126e+00,	 8.1433591661951436e+02,	 4.8033702714567626e+03,	 5.4761047697313313e+02,	 5.0593861042373800e-01 
1.7832930000000000e+00,	 2.0000000000000001e-01,	 2.0282182363541911e-02,	 2.8008634910670878e+02,	 -1.1244523157097901e+00,	 8.1046005029801108e+02,	 4.7290753403000690e+03,	 5.4630573498631486e+02,	 5.1269570921346852e-01 
1.7907569999999999e+00,	 2.0000000000000001e-01,	 2.0146847262902726e-02,	 2.8355135841722978e+02,	 2.1977344160060405e-01,	 8.0802102602484615e+02,	 4.6833831966751377e+03,	 5.4548308065524532e+02,	 5.1981711925328633e-01 
1.7982220000000000e+00,	 2.0000000000000001e-01,	 2.0154508546475967e-02,	 2.8821877581325663e+02,	 1.4090740059892932e+00,	 8.0803496385338383e+02,	 4.6852449725429842e+03,	 5.4548778524622617e+02,	 5.2837520472899913e-01 
1.8056859999999999e+00,	 2.0000000000000001e-01,	 2.0312448642095728e-02,	 2.9498769228589100e+02,	 1.6802619066275031e+00,	 8.1065642020766450e+02,	 4.7372798859430950e+03,	 5.4637191438057107e+02,	 5.3991149600292243e-01 
1.8131510000000000e+00,	 2.0000000000000001e-01,	 2.0514706054360194e-02,	 3.0292255530645127e+02,	 1.0394102457696142e+00,	 8.1410201118694522e+02,	 4.8047861574194640e+03,	 5.4753182499297066e+02,	 5.5325430363010375e-01 
1.8206150000000001e+00,	 2.0000000000000001e-01,	 2.0604351513262564e-02,	 3.0929068574882490e+02,	 -1.4183931250421539e-01,	 8.1593619723233519e+02,	 4.8366547528998726e+03,	 5.4814827734963831e+02,	 5.6424644763587439e-01 
1.8280799999999999e+00,	 2.0000000000000001e-01,	 2.0539274129965552e-02,	 3.1320050653578653e+02,	 -9.1873676002466298e-01,	 8.1490415541645712e+02,	 4.8152801721304704e+03,	 5.4780150333427537e+02,	 5.7174332697066732e-01 
1.8355440000000001e+00,	 2.0000000000000001e-01,	 2.0398188616754038e-02,	 3.1588448271538573e+02,	 -5.0171049710766102e-01,	 8.1253099078926925e+02,	 4.7682769840477913e+03,	 5.4700326773526353e+02,	 5.7748262172063802e-01 
1.8430089999999999e+00,	 2.0000000000000001e-01,	 2.0292286565721185e-02,	 3.1924218819250439e+02,	 1.9052925286229594e-02,	 8.1064016824671853e+02,	 4.7324827976997176e+03,	 5.4636643754766260e+02,	 5.8430051119897142e-01 
1.8504730000000000e+00,	 2.0000000000000001e-01,	 2.0202288758841953e-02,	 3.2313995136948358e+02,	 -1.8858850384027626e-01,	 8.0901120040788567e+02,	 4.7020262149117279e+03,	 5.4581720438824334e+02,	 5.9202971947899286e-01 
1.8579369999999999e+00,	 2.0000000000000001e-01,	 2.0040430495305045e-02,	 3.2595881773989237e+02,	 -1.1081460784662009e+00,	 8.0613268098059189e+02,	 4.6477580526488391e+03,	 5.4484531087214862e+02,	 5.9826283696448779e-01 
1.8654020000000000e+00,	 2.0000000000000001e-01,	 1.9827174519413945e-02,	 3.2793654235594806e+02,	 -1.6081078210263442e+00,	 8.0226216892856098e+02,	 4.5762219518762940e+03,	 5.4353574497393004e+02,	 6.0334667630805316e-01 
1.8728659999999999e+00,	 2.0000000000000001e-01,	 1.9690348005479072e-02,	 3.3072755294026115e+02,	 -5.7771996898402644e-01,	 7.9961512772398783e+02,	 4.5296467170653032e+03,	 5.4263831373575238e+02,	 6.0948158129134189e-01 
1.8803310000000000e+00,	 2.0000000000000001e-01,	 1.9714986418221100e-02,	 3.3576477864046183e+02,	 1.2248855080809975e+00,	 7.9981437336999284e+02,	 4.5364447322585338e+03,	 5.4270591600046077e+02,	 6.1869053377401717e-01 
1.8877949999999999e+00,	 2.0000000000000001e-01,	 1.9834354651941256e-02,	 3.4180292840472657e+02,	 1.5812820986482556e+00,	 8.0180150090628786e+02,	 4.5752504962673775e+03,	 5.4337967037586145e+02,	 6.2903823010085302e-01 
1.8952599999999999e+00,	 2.0000000000000001e-01,	 1.9869788897350638e-02,	 3.4649759625078877e+02,	 1.3598781168876867e-01,	 8.0222593076368094e+02,	 4.5858504347602484e+03,	 5.4352346908635991e+02,	 6.3750259674783105e-01 
1.9027240000000001e+00,	 2.0000000000000001e-01,	 1.9699139474270579e-02,	 3.4816728935742481e+02,	 -1.6378955255575698e+00,	 7.9911092248301327e+02,	 4.5288116529712324e+03,	 5.4246720377527072e+02,	 6.4182892443554596e-01 
1.9101889999999999e+00,	 2.0000000000000001e-01,	 1.9427437834486760e-02,	 3.4875054238558459e+02,	 -2.4096874467083080e+00,	 7.9393741186450029e+02,	 4.4374322219896039e+03,	 5.4070836352111792e+02,	 6.4500364830221968e-01 
1.9176530000000001e+00,	 2.0000000000000001e-01,	 1.9274375693949380e-02,	 3.5162654751629043e+02,	 -9.4535812303005273e-01,	 7.9064205067333478e+02,	 4.3841980665025894e+03,	 5.3958504944269635e+02,	 6.5166338223875853e-01 
1.9251180000000001e+00,	 2.0000000000000001e-01,	 1.9350181250572872e-02,	 3.5793060915503838e+02,	 9.6253318363482909e-01,	 7.9095747898646425e+02,	 4.4031969536039778e+03,	 5.3969267300618105e+02,	 6.6321430928922132e-01 
1.9325820000000000e+00,	 2.0000000000000001e-01,	 1.9496800871925839e-02,	 3.6501617840865987e+02,	 1.2092407240098706e+00,	 7.9284709434135993e+02,	 4.4471597715876123e+03,	 5.4033695745076602e+02,	 6.7553806265013339e-01 
1.9400470000000001e+00,	 2.0000000000000001e-01,	 1.9507846108590465e-02,	 3.6903215721246227e+02,	 -2.6777169807428997e-01,	 7.9249251109774514e+02,	 4.4476891356746673e+03,	 5.4021611709026979e+02,	 6.8311966764047749e-01 
1.9475110000000000e+00,	 2.0000000000000001e-01,	 1.9355366241341959e-02,	 3.7014846154188331e+02,	 -1.3595339452248567e+00,	 7.8951234900319798e+02,	 4.3963297366028892e+03,	 5.3919942105915959e+02,	 6.8648248462738082e-01 
1.9549749999999999e+00,	 2.0000000000000001e-01,	 1.9229728508366024e-02,	 3.7215200907796782e+02,	 -6.3587095540080907e-01,	 7.8704068839746640e+02,	 4.3541188094014797e+03,	 5.3835474607556728e+02,	 6.9127755448480865e-01 
1.9624400000000000e+00,	 2.0000000000000001e-01,	 1.9294587462442385e-02,	 3.7734221664332978e+02,	 1.2772806566401460e+00,	 7.8771538924664401e+02,	 4.3725498053998863e+03,	 5.3858545244022685e+02,	 7.0062118589812672e-01 
1.9699040000000001e+00,	 2.0000000000000001e-01,	 1.9446167674853181e-02,	 3.8393080334451673e+02,	 1.4961719756888927e+00,	 7.9012074541251047e+02,	 4.4203578430770158e+03,	 5.3940713397103673e+02,	 7.1176981992373201e-01 
1.9773689999999999e+00,	 2.0000000000000001e-01,	 1.9437668920822541e-02,	 3.8777001377648787e+02,	 -4.8111640066745964e-01,	 7.8984964232860648e+02,	 4.4169099369538799e+03,	 5.3931458641777465e+02,	 7.1900579366648742e-01 
1.9848330000000001e+00,	 2.0000000000000001e-01,	 1.9105117389854404e-02,	 3.8692068284413051e+02,	 -2.2844589530163084e+00,	 7.8401186750328611e+02,	 4.3092558968336380e+03,	 5.3731785438703810e+02,	 7.2010900732773220e-01 
1.9922979999999999e+00,	 2.0000000000000001e-01,	 1.8697684930072976e-02,	 3.8416140043510347e+02,	 -2.1508177252135932e+00,	 7.7645917984120081e+02,	 4.1767300187323690e+03,	 5.3472349644743190e+02,	 7.1844125771364620e-01 
1.9997620000000000e+00,	 2.0000000000000001e-01,	 1.8581856991500126e-02,	 3.8543446882121714e+02,	 8.0262162649717750e-02,	 7.7363258476521446e+02,	 4.1357454861512606e+03,	 5.3374931460667722e+02,	 7.2212641146353151e-01 
2.0072269999999999e+00,	 2.0000000000000001e-01,	 1.8834238416692694e-02,	 3.9449305922353835e+02,	 2.0773306492929287e+00,	 7.7724638655550916e+02,	 4.2114991061758192e+03,	 5.3499449027464721e+02,	 7.3738802134377657e-01 
2.0146910000000000e+00,	 2.0000000000000001e-01,	 1.9088056264814170e-02,	 4.0333023638748682e+02,	 1.2108556156829211e+00,	 7.8134022099588969e+02,	 4.2907363047970020e+03,	 5.3640157463356570e+02,	 7.5192183065575846e-01 
2.0221559999999998e+00,	 2.0000000000000001e-01,	 1.9037379629973740e-02,	 4.0685819264497502e+02,	 -1.8773067015279747e+00,	 7.8058161679092200e+02,	 4.2751900628801559e+03,	 5.3614111491573669e+02,	 7.5887208123886452e-01 
2.0296200000000000e+00,	 2.0000000000000001e-01,	 1.8727118138169158e-02,	 4.0606265632258675e+02,	 -2.6178873801094147e+00,	 7.7574641529996370e+02,	 4.1794647342895660e+03,	 5.3447801061609903e+02,	 7.5975266883554982e-01 
2.0370849999999998e+00,	 2.0000000000000001e-01,	 1.8514446112387825e-02,	 4.0578374409609597e+02,	 -9.5739187958972904e-02,	 7.7265328528494206e+02,	 4.1155256901977282e+03,	 5.3341138549408174e+02,	 7.6073320972407610e-01 
2.0445489999999999e+00,	 2.0000000000000001e-01,	 1.8657579239135254e-02,	 4.1022970861175565e+02,	 4.0893828078233625e+00,	 7.7591173176296138e+02,	 4.1648326044754604e+03,	 5.3453495790300315e+02,	 7.6748973025219192e-01 
2.0520130000000001e+00,	 2.0000000000000001e-01,	 1.9181322680486057e-02,	 4.1947348318680645e+02,	 9.4481964588461107e+00,	 7.8617724458102032e+02,	 4.3383936735984134e+03,	 5.3805935687625879e+02,	 7.7980220889689511e-01 
2.0594779999999999e+00,	 2.0000000000000001e-01,	 1.9879279835151184e-02,	 4.3109813483371272e+02,	 8.3707440190271001e+00,	 7.9960872679821364e+02,	 4.5730727459951058e+03,	 5.4263614181928961e+02,	 7.9460132194760769e-01 
2.0669420000000001e+00,	 2.0000000000000001e-01,	 2.0020137191335545e-02,	 4.3788183364370479e+02,	 -2.0539846529939485e+00,	 8.0451901246466900e+02,	 4.6337574634254279e+03,	 5.4429971821208221e+02,	 8.0449545775517950e-01 
2.0744069999999999e+00,	 2.0000000000000001e-01,	 1.9055731412385722e-02,	 4.3212891256975604e+02,	 -1.8980908385963247e+01,	 7.8855506720145672e+02,	 4.3230234084009808e+03,	 5.3887243291811888e+02,	 8.0268639792746477e-01 
2.0818710000000000e+00,	 2.0000000000000001e-01,	 1.7346539385079202e-02,	 4.1444331957260391e+02,	 -1.9695938288958494e+01,	 7.5893381679989216e+02,	 3.7874480853241785e+03,	 5.2865446658540418e+02,	 7.8484358907114882e-01 
2.0893359999999999e+00,	 2.0000000000000001e-01,	 1.6315465511504992e-02,	 4.0239002468541622e+02,	 -9.6127497673307705e-01,	 7.3889250583120406e+02,	 3.4682521869817483e+03,	 5.2162762645468888e+02,	 7.7141461164563840e-01 
2.0968000000000000e+00,	 2.0000000000000001e-01,	 1.6721731082598806e-02,	 4.0967825388145161e+02,	 1.1705767365792868e+01,	 7.4198603228719230e+02,	 3.5694960212035803e+03,	 5.2271843694919346e+02,	 7.8406542733943085e-01 
2.1042649999999998e+00,	 2.0000000000000001e-01,	 1.7830051857651470e-02,	 4.3016725581293258e+02,	 1.2216947838686618e+01,	 7.5988122215548606e+02,	 3.8978781287268521e+03,	 5.2898433320345009e+02,	 8.1352258904598451e-01 
2.1117290000000000e+00,	 2.0000000000000001e-01,	 1.8683996079198864e-02,	 4.4710587500174177e+02,	 3.3211452572500737e+00,	 7.7383765166177523e+02,	 4.1595807700945015e+03,	 5.3382005042193146e+02,	 8.3758227022515797e-01 
2.1191939999999998e+00,	 2.0000000000000001e-01,	 1.8658954602038612e-02,	 4.5124439667891431e+02,	 -7.6935721617952630e+00,	 7.7157038463743152e+02,	 4.1418350138200949e+03,	 5.3303745705786821e+02,	 8.4667591818509336e-01 
2.1266579999999999e+00,	 2.0000000000000001e-01,	 1.7805902465203138e-02,	 4.4244475334289029e+02,	 -1.1786380809053115e+01,	 7.5462614690658597e+02,	 3.8656788973275366e+03,	 5.2715202361982824e+02,	 8.3960925052798119e-01 
2.1341230000000002e+00,	 2.0000000000000001e-01,	 1.7135422619620450e-02,	 4.3460568038562752e+02,	 -2.1883771616353784e+00,	 7.4197946406903657e+02,	 3.6577721000433230e+03,	 5.2271612333668816e+02,	 8.3144783666181654e-01 
2.1415869999999999e+00,	 2.0000000000000001e-01,	 1.7395070980142095e-02,	 4.4248487143841947e+02,	 5.6774106391004651e+00,	 7.4555479625804514e+02,	 3.7310898801810340e+03,	 5.2397400034687485e+02,	 8.4454818817572308e-01 
2.1490510000000000e+00,	 2.0000000000000001e-01,	 1.8131267797134313e-02,	 4.5881820420256656e+02,	 7.0943111893736557e+00,	 7.5760628987268990e+02,	 3.9518611906011429e+03,	 5.2819190305800043e+02,	 8.6876198761022749e-01 
2.1565159999999999e+00,	 2.0000000000000001e-01,	 1.8642569378835530e-02,	 4.7148073875804903e+02,	 3.8090275987057169e+00,	 7.6662191124814831e+02,	 4.1116575237249999e+03,	 5.3132538735956462e+02,	 8.8739619078501575e-01 
2.1639800000000000e+00,	 2.0000000000000001e-01,	 1.8516171698697435e-02,	 4.7485140232904183e+02,	 -2.6434740192457591e+00,	 7.6480529579063796e+02,	 4.0741031762027628e+03,	 5.3069548989801876e+02,	 8.9478574692079194e-01 
2.1714449999999998e+00,	 2.0000000000000001e-01,	 1.7745049790757469e-02,	 4.6785229735491100e+02,	 -6.3293495443962824e+00,	 7.5112741863556244e+02,	 3.8346062447739750e+03,	 5.2592856717513564e+02,	 8.8965524591647049e-01 
2.1789090000000000e+00,	 2.0000000000000001e-01,	 1.7007947584848127e-02,	 4.5976879862763866e+02,	 -3.1365418466131407e+00,	 7.3726958659302386e+02,	 3.6075151636002661e+03,	 5.2105445453523146e+02,	 8.8240200854717254e-01 
2.1863739999999998e+00,	 2.0000000000000001e-01,	 1.6767986623692478e-02,	 4.6095001800947938e+02,	 4.3494054217303058e-01,	 7.3204661870930795e+02,	 3.5314218134831358e+03,	 5.1920554627475940e+02,	 8.8779911254037047e-01 
2.1938380000000000e+00,	 2.0000000000000001e-01,	 1.6785092505597517e-02,	 4.6647666884016394e+02,	 3.1704596773192922e-01,	 7.3159363681967238e+02,	 3.5328369659611922e+03,	 5.1904488225553882e+02,	 8.9872146423047150e-01 
2.2013029999999998e+00,	 2.0000000000000001e-01,	 1.6760012027844821e-02,	 4.6972043804228275e+02,	 -1.3095862414969539e-01,	 7.3101773702852563e+02,	 3.5247813183478274e+03,	 5.1884054977276389e+02,	 9.0532718867813344e-01 
2.2087669999999999e+00,	 2.0000000000000001e-01,	 1.6797387974410848e-02,	 4.7337739429564448e+02,	 6.0366136764026357e-01,	 7.3186515968598155e+02,	 3.5367369845514972e+03,	 5.1914119219668532e+02,	 9.1184784854701539e-01 
2.2162320000000002e+00,	 2.0000000000000001e-01,	 1.7116495195130220e-02,	 4.8229277880779568e+02,	 2.0765941089139819e+00,	 7.3781277869027144e+02,	 3.6332137806583960e+03,	 5.2124636571288238e+02,	 9.2527695362085938e-01 
2.2236959999999999e+00,	 2.0000000000000001e-01,	 1.7690044289059969e-02,	 4.9636514345289902e+02,	 4.4125272236720470e+00,	 7.4834630899057015e+02,	 3.8085659352088064e+03,	 5.2495401785406693e+02,	 9.4557759186564883e-01 
2.2311600000000000e+00,	 2.0000000000000001e-01,	 1.8098741952682965e-02,	 5.0834057822396119e+02,	 3.1824454664772128e+00,	 7.5681979057654712e+02,	 3.9406766966615619e+03,	 5.2791766402517760e+02,	 9.6293527296552428e-01 
2.2386249999999999e+00,	 2.0000000000000001e-01,	 1.7815876048765049e-02,	 5.1070612650802229e+02,	 -4.2632488605610384e+00,	 7.5301214254570255e+02,	 3.8595715759509417e+03,	 5.2658798201133311e+02,	 9.6987386328608738e-01 
2.2460890000000000e+00,	 2.0000000000000001e-01,	 1.6745720656381823e-02,	 4.9703872998431564e+02,	 -7.5544653286389920e+00,	 7.3394889695790562e+02,	 3.5358969693232179e+03,	 5.1987970594464207e+02,	 9.5617530544897578e-01 
2.2535539999999998e+00,	 2.0000000000000001e-01,	 1.5962968559384873e-02,	 4.8556858903680245e+02,	 -1.8947863368886571e+00,	 7.1932850599222411e+02,	 3.3034738008468203e+03,	 5.1467561142092973e+02,	 9.4345307056792393e-01 
2.2610180000000000e+00,	 2.0000000000000001e-01,	 1.6117356329062520e-02,	 4.9410894975129150e+02,	 3.4492547917833281e+00,	 7.2163165207791894e+02,	 3.3461031049892636e+03,	 5.1549889716171958e+02,	 9.5852967199532568e-01 
2.2684829999999998e+00,	 2.0000000000000001e-01,	 1.6725768122594582e-02,	 5.1558220000160986e+02,	 3.6195526453686329e+00,	 7.3210557139464163e+02,	 3.5228140601280406e+03,	 5.1922645200958459e+02,	 9.9300585141726372e-01 
2.2759469999999999e+00,	 2.0000000000000001e-01,	 1.7216124483895302e-02,	 5.2755508382566484e+02,	 -4.7230063111576781e-01,	 7.4086110306650005e+02,	 3.6694597270962827e+03,	 5.2232203845716208e+02,	 1.0100192149666822e+00 
1.5295010000000000e+00,	 2.0634110000000000e-01,	 2.0362483435557473e-02,	 4.0402625684170324e+01,	 -1.2441370246917982e+01,	 8.5217785985848286e+02,	 4.9921879568214072e+03,	 5.6018964529138566e+02,	 7.5465181920955762e-02 
1.5369649999999999e+00,	 2.0633779999999999e-01,	 2.0508291654882816e-02,	 5.1325272481740157e+01,	 -1.2772869096727081e+01,	 8.5031206600071278e+02,	 5.0169267984069284e+03,	 5.5957605793124890e+02,	 9.4519294745154553e-02 
1.5444300000000000e+00,	 2.0633440000000000e-01,	 2.0614834073071929e-02,	 6.1380755695635948e+01,	 -1.1760918406302666e+01,	 8.4663713095278104e+02,	 5.0211950547457127e+03,	 5.5836554214445425e+02,	 1.1192906115803201e-01 
1.5518940000000001e+00,	 2.0633099999999999e-01,	 2.0716579424581723e-02,	 7.1967990405936789e+01,	 -1.0918412359823847e+01,	 8.4314637521014549e+02,	 5.0251723800753916e+03,	 5.5721325924910025e+02,	 1.3063491395588056e-01 
1.5593589999999999e+00,	 2.0632760000000000e-01,	 2.0880848750850240e-02,	 8.4265751118542681e+01,	 -1.1283009392846783e+01,	 8.4081734140110689e+02,	 5.0510276426416731e+03,	 5.5644312845785680e+02,	 1.5278790734767461e-01 
1.5668230000000001e+00,	 2.0632420000000001e-01,	 2.1080056878824735e-02,	 9.7306407987758490e+01,	 -1.2036646486953998e+01,	 8.3903300475166952e+02,	 5.0883943379961620e+03,	 5.5585238827083037e+02,	 1.7639222350237554e-01 
1.5742879999999999e+00,	 2.0632090000000000e-01,	 2.1275349108590694e-02,	 1.1003183471146140e+02,	 -1.2736605125998228e+01,	 8.3705901978643885e+02,	 5.1234524882597698e+03,	 5.5519812891485640e+02,	 1.9950812406765847e-01 
1.5817520000000000e+00,	 2.0631749999999999e-01,	 2.1453936137149812e-02,	 1.2210270770430186e+02,	 -1.2480388539477133e+01,	 8.3469604048387589e+02,	 5.1518744916491833e+03,	 5.5441392562733768e+02,	 2.2138490553833642e-01 
1.5892170000000001e+00,	 2.0631410000000000e-01,	 2.1603485459128238e-02,	 1.3329326781528113e+02,	 -1.0026415139530320e+01,	 8.3175101228837343e+02,	 5.1694828693519985e+03,	 5.5343500197351705e+02,	 2.4152760936757536e-01 
1.5966810000000000e+00,	 2.0631070000000001e-01,	 2.1742621571392361e-02,	 1.4424659300390499e+02,	 -6.5702099674608920e+00,	 8.2867974004577832e+02,	 5.1835652013408544e+03,	 5.5241226708311285e+02,	 2.6139199932393437e-01 
1.6041460000000001e+00,	 2.0630730000000000e-01,	 2.1911471164444519e-02,	 1.5628072064871768e+02,	 -5.7396165039411970e+00,	 8.2622096959826786e+02,	 5.2083203457720729e+03,	 5.5159212879182053e+02,	 2.8351761107340351e-01 
1.6116100000000000e+00,	 2.0630399999999999e-01,	 2.2099779671879947e-02,	 1.6926724014269433e+02,	 -8.3041850260996704e+00,	 8.2429093298012731e+02,	 5.2408098674329785e+03,	 5.5094749770003909e+02,	 3.0759885193061415e-01 
1.6190750000000000e+00,	 2.0630060000000000e-01,	 2.2257365164505789e-02,	 1.8161498283314990e+02,	 -1.1493473560000080e+01,	 8.2213900810954351e+02,	 5.2644007614431312e+03,	 5.5022786560271982e+02,	 3.3073261474314897e-01 
1.6265390000000000e+00,	 2.0629719999999999e-01,	 2.2371273936917985e-02,	 1.9271507488074522e+02,	 -1.2038892932606151e+01,	 8.1958057664519333e+02,	 5.2748766785244825e+03,	 5.4937106574533493e+02,	 3.5147599688449721e-01 
1.6340040000000000e+00,	 2.0629380000000000e-01,	 2.2479392802404546e-02,	 2.0339924722398550e+02,	 -1.0160353162611864e+01,	 8.1713701503032405e+02,	 5.2845668665155881e+03,	 5.4855148547355191e+02,	 3.7125568580955470e-01 
1.6414679999999999e+00,	 2.0629049999999999e-01,	 2.2609551738056413e-02,	 2.1453984583969822e+02,	 -8.4662862317018117e+00,	 8.1522524863431886e+02,	 5.3027299602401226e+03,	 5.4790941665320679e+02,	 3.9186556187453714e-01 
1.6489320000000001e+00,	 2.0628710000000000e-01,	 2.2730005731265199e-02,	 2.2553674151327181e+02,	 -8.3609993218316561e+00,	 8.1355077336227930e+02,	 5.3200307795504323e+03,	 5.4734642355875792e+02,	 4.1233788372779939e-01 
1.6563969999999999e+00,	 2.0628369999999999e-01,	 2.2765821303434915e-02,	 2.3527135497565106e+02,	 -9.6736883311263266e+00,	 8.1138082540370920e+02,	 5.3142012876494446e+03,	 5.4661597972226548e+02,	 4.3077801781799452e-01 
1.6638610000000000e+00,	 2.0628030000000000e-01,	 2.2705204433113708e-02,	 2.4326110350104884e+02,	 -1.1646683658804490e+01,	 8.0842184139613619e+02,	 5.2807230645202617e+03,	 5.4561835615524808e+02,	 4.4635549192953211e-01 
1.6713260000000001e+00,	 2.0627699999999999e-01,	 2.2567517638161463e-02,	 2.4980294408143357e+02,	 -1.1980404994822196e+01,	 8.0513973754753488e+02,	 5.2273910473968763e+03,	 5.4450965442159679e+02,	 4.5929408908859515e-01 
1.6787900000000000e+00,	 2.0627360000000000e-01,	 2.2423968756822815e-02,	 2.5573628435180478e+02,	 -8.5743588593601103e+00,	 8.0223013325188958e+02,	 5.1753698087996008e+03,	 5.4352489271771549e+02,	 4.7077877850145256e-01 
1.6862550000000001e+00,	 2.0627019999999999e-01,	 2.2375602454201254e-02,	 2.6299382530563912e+02,	 -3.2863025053748318e+00,	 8.0091866513269156e+02,	 5.1557647116922390e+03,	 5.4308043974755708e+02,	 4.8430092053685714e-01 
1.6937190000000000e+00,	 2.0626680000000000e-01,	 2.2468996457045233e-02,	 2.7301616419896226e+02,	 -9.9894822206045997e-01,	 8.0162588566291447e+02,	 5.1818560702646182e+03,	 5.4332016002404873e+02,	 5.0249928462758375e-01 
1.7011840000000000e+00,	 2.0626349999999999e-01,	 2.2572891116236320e-02,	 2.8369054805012991e+02,	 -3.6653985015343609e+00,	 8.0273294509905963e+02,	 5.2130058401000470e+03,	 5.4369519792998062e+02,	 5.2182588216684811e-01 
1.7086479999999999e+00,	 2.0626010000000000e-01,	 2.2535687764126993e-02,	 2.9123935843893832e+02,	 -7.8447845315214462e+00,	 8.0243875014625769e+02,	 5.2025066866029219e+03,	 5.4359555891425248e+02,	 5.3595911066501256e-01 
1.7161130000000000e+00,	 2.0625679999999999e-01,	 2.2356647311706061e-02,	 2.9542495376823052e+02,	 -9.1871647891351387e+00,	 8.0038266474007855e+02,	 5.1479496063349989e+03,	 5.4289868593171389e+02,	 5.4442528366148946e-01 
1.7235769999999999e+00,	 2.0625340000000000e-01,	 2.2181613237952549e-02,	 2.9944697178228421e+02,	 -7.8113517051077102e+00,	 7.9880855034509636e+02,	 5.0976001972134654e+03,	 5.4236456315127180e+02,	 5.5230163985789893e-01 
1.7310420000000000e+00,	 2.0625009999999999e-01,	 2.2097876572834289e-02,	 3.0519539467996697e+02,	 -6.6197913628510268e+00,	 7.9858753891918218e+02,	 5.0769514482965578e+03,	 5.4228952823973032e+02,	 5.6292287255825946e-01 
1.7385060000000001e+00,	 2.0624670000000001e-01,	 2.2040668799497346e-02,	 3.1133953228748925e+02,	 -6.0540129120056436e+00,	 7.9866046348282293e+02,	 5.0642704661927082e+03,	 5.4231428778237137e+02,	 5.7420280828528192e-01 
1.7459709999999999e+00,	 2.0624339999999999e-01,	 2.1921815843888630e-02,	 3.1606003155143367e+02,	 -5.5321621245295551e+00,	 7.9779640213032349e+02,	 5.0315122685384440e+03,	 5.4202084667173574e+02,	 5.8320347996116428e-01 
1.7534350000000001e+00,	 2.0624020000000001e-01,	 2.1745727728531321e-02,	 3.1948397994922311e+02,	 -5.5966682078031660e+00,	 7.9607156595037839e+02,	 4.9803056343450362e+03,	 5.4143460497953754e+02,	 5.9015990852874711e-01 