TITLE = "Final State"
VARIABLES = "X", "Y", "rho", "u", "v", "T", "p", "c", "M"
ZONE I=77, J=25, DATAPACKING=POINT
2.1589400000000000e-01,	 1.8936299999999998e-01,	 1.1586407754591528e-02,	 1.7360000000259565e+03,	 8.2927936954661777e-08,	 3.0000000002163904e+02,	 1.0000000012864263e+03,	 3.3237670712686003e+02,	 5.2229893455300642e+00 
2.2017450000000000e-01,	 1.8988320000000000e-01,	 1.1586407749994868e-02,	 1.7360000000044238e+03,	 1.2511838809839423e-07,	 3.0000000002170714e+02,	 1.0000000008899246e+03,	 3.3237670712689777e+02,	 5.2229893454646872e+00 
2.2445490000000001e-01,	 1.9040340000000000e-01,	 1.1586407741822288e-02,	 1.7359999999860895e+03,	 1.0659678588287675e-07,	 2.9999999999442161e+02,	 1.0000000000936135e+03,	 3.3237670711178259e+02,	 5.2229893456470471e+00 
2.2873540000000001e-01,	 1.9092370000000000e-01,	 1.1586407738475028e-02,	 1.7360000000042296e+03,	 1.0190085339903307e-07,	 2.9999999998091403e+02,	 9.9999999975969286e+02,	 3.3237670710429995e+02,	 5.2229893458192063e+00 
2.3301580000000000e-01,	 1.9144390000000000e-01,	 1.1586407736886496e-02,	 1.7360000000033087e+03,	 1.1268304466209804e-07,	 2.9999999998340542e+02,	 9.9999999963089442e+02,	 3.3237670710568005e+02,	 5.2229893457947485e+00 
2.3729629999999999e-01,	 1.9196410000000000e-01,	 1.1586407736557478e-02,	 1.7359999999938259e+03,	 1.0108351877250922e-07,	 2.9999999998232948e+02,	 9.9999999959891113e+02,	 3.3237670710508405e+02,	 5.2229893457755843e+00 
2.4157670000000001e-01,	 1.9248430000000000e-01,	 1.1586407737043121e-02,	 1.7359999999962020e+03,	 5.6930347940426703e-08,	 2.9999999996776569e+02,	 9.9999999959228001e+02,	 3.3237670709701626e+02,	 5.2229893459095109e+00 
2.4585720000000000e-01,	 1.9300460000000000e-01,	 1.1586407737564816e-02,	 1.7360000000114046e+03,	 -3.5964105758138723e-09,	 2.9999999994622152e+02,	 9.9999999956549266e+02,	 3.3237670708508165e+02,	 5.2229893461427910e+00 
2.5013760000000002e-01,	 1.9352480000000000e-01,	 1.1586407737615942e-02,	 1.7360000000422865e+03,	 -7.7091444764172010e-08,	 2.9999999991743789e+02,	 9.9999999947395975e+02,	 3.3237670706913661e+02,	 5.2229893464862647e+00 
2.5441799999999998e-01,	 1.9404500000000000e-01,	 1.1586407736996478e-02,	 1.7360000000838013e+03,	 -1.6321615231748073e-07,	 2.9999999988323179e+02,	 9.9999999930647459e+02,	 3.3237670705018780e+02,	 5.2229893469089301e+00 
2.5869850000000000e-01,	 1.9456530000000000e-01,	 1.1586407736133973e-02,	 1.7360000001247058e+03,	 -2.6109622619997987e-07,	 2.9999999984347141e+02,	 9.9999999909949906e+02,	 3.3237670702816206e+02,	 5.2229893473781113e+00 
2.6297890000000002e-01,	 1.9508550000000000e-01,	 1.1586407734978842e-02,	 1.7360000001594826e+03,	 -3.6975413484970279e-07,	 2.9999999979744672e+02,	 9.9999999884638623e+02,	 3.3237670700266619e+02,	 5.2229893478833853e+00 
2.6725939999999998e-01,	 1.9560569999999999e-01,	 1.1586407733540690e-02,	 1.7360000001926401e+03,	 -4.8852038892964419e-07,	 2.9999999974481682e+02,	 9.9999999854682915e+02,	 3.3237670697351126e+02,	 5.2229893484412866e+00 
2.7153980000000000e-01,	 1.9612589999999999e-01,	 1.1586407731793428e-02,	 1.7360000002322840e+03,	 -6.1631766841351689e-07,	 2.9999999968650468e+02,	 9.9999999820165272e+02,	 3.3237670694120862e+02,	 5.2229893490681665e+00 
2.7582030000000002e-01,	 1.9664619999999999e-01,	 1.1586407729723545e-02,	 1.7360000002823019e+03,	 -7.5229586903847491e-07,	 2.9999999962398152e+02,	 9.9999999781459462e+02,	 3.3237670690657319e+02,	 5.2229893497629156e+00 
2.8010069999999998e-01,	 1.9716639999999999e-01,	 1.1586407727320020e-02,	 1.7360000003399159e+03,	 -8.9591401263055057e-07,	 2.9999999955823444e+02,	 9.9999999738799420e+02,	 3.3237670687015185e+02,	 5.2229893505085823e+00 
2.8438120000000000e-01,	 1.9768659999999999e-01,	 1.1586407724583796e-02,	 1.7360000003976315e+03,	 -1.0464491518579401e-06,	 2.9999999948952268e+02,	 9.9999999692279687e+02,	 3.3237670683208819e+02,	 5.2229893512803622e+00 
2.8866160000000002e-01,	 1.9820689999999999e-01,	 1.1586407721528493e-02,	 1.7360000004477340e+03,	 -1.2030938030217959e-06,	 2.9999999941755243e+02,	 9.9999999641919896e+02,	 3.3237670679221947e+02,	 5.2229893520576027e+00 
2.9294209999999998e-01,	 1.9872709999999999e-01,	 1.1586407718175980e-02,	 1.7360000004879889e+03,	 -1.3648695935094488e-06,	 2.9999999934213861e+02,	 9.9999999587847071e+02,	 3.3237670675044313e+02,	 5.2229893528351905e+00 
2.9722250000000000e-01,	 1.9924729999999999e-01,	 1.1586407714565365e-02,	 1.7360000005274858e+03,	 -1.5306982525294219e-06,	 2.9999999926399926e+02,	 9.9999999530638104e+02,	 3.3237670670715698e+02,	 5.2229893536342233e+00 
3.0150290000000002e-01,	 1.9976749999999999e-01,	 1.1586407710695076e-02,	 1.7360000005789543e+03,	 -1.6968900455412015e-06,	 2.9999999918665310e+02,	 9.9999999471452361e+02,	 3.3237670666431023e+02,	 5.2229893544623707e+00 
3.0578339999999998e-01,	 2.0028779999999999e-01,	 1.1586407706590848e-02,	 1.7360000006446999e+03,	 -1.8577704712260252e-06,	 2.9999999911516346e+02,	 9.9999999412199702e+02,	 3.3237670662470777e+02,	 5.2229893552824906e+00 
3.1006380000000000e-01,	 2.0080799999999999e-01,	 1.1586407702301084e-02,	 1.7360000007116355e+03,	 -2.0146143853152218e-06,	 2.9999999904968791e+02,	 9.9999999353350404e+02,	 3.3237670658843683e+02,	 5.2229893560538390e+00 
3.1434430000000002e-01,	 2.0132819999999998e-01,	 1.1586407697834493e-02,	 1.7360000007598546e+03,	 -2.1681608229337270e-06,	 2.9999999898819470e+02,	 9.9999999294302404e+02,	 3.3237670655437199e+02,	 5.2229893567342103e+00 
3.1862469999999998e-01,	 2.0184849999999999e-01,	 1.1586407693210263e-02,	 1.7360000007816566e+03,	 -2.3194749876019516e-06,	 2.9999999892756381e+02,	 9.9999999234181303e+02,	 3.3237670652078481e+02,	 5.2229893573275952e+00 
3.2290520000000000e-01,	 2.0236869999999998e-01,	 1.1586407688444822e-02,	 1.7360000007876984e+03,	 -2.4691425534057469e-06,	 2.9999999886624937e+02,	 9.9999999172613559e+02,	 3.3237670648681899e+02,	 5.2229893578795137e+00 
3.2718560000000002e-01,	 2.0288889999999998e-01,	 1.1586407683564812e-02,	 1.7360000007953658e+03,	 -2.6166441194152606e-06,	 2.9999999880522785e+02,	 9.9999999110154647e+02,	 3.3237670645301546e+02,	 5.2229893584337734e+00 
3.3146609999999999e-01,	 2.0340909999999998e-01,	 1.1586407678606036e-02,	 1.7360000008148616e+03,	 -2.7604805897748114e-06,	 2.9999999874689900e+02,	 9.9999999047913479e+02,	 3.3237670642070350e+02,	 5.2229893590001808e+00 
3.3574650000000000e-01,	 2.0392939999999998e-01,	 1.1586407673618650e-02,	 1.7360000008467437e+03,	 -2.8992062692666848e-06,	 2.9999999869339649e+02,	 9.9999998987034178e+02,	 3.3237670639106523e+02,	 5.2229893595618408e+00 
3.4002700000000002e-01,	 2.0444959999999998e-01,	 1.1586407668644907e-02,	 1.7360000008855586e+03,	 -3.0320740195901652e-06,	 2.9999999864590643e+02,	 9.9999998928276761e+02,	 3.3237670636475758e+02,	 5.2229893600920203e+00 
3.4430739999999999e-01,	 2.0496979999999998e-01,	 1.1586407663718420e-02,	 1.7360000009212235e+03,	 -3.1587552594292278e-06,	 2.9999999860448281e+02,	 9.9999998871949356e+02,	 3.3237670634181046e+02,	 5.2229893605599162e+00 
3.4858790000000001e-01,	 2.0549009999999998e-01,	 1.1586407658864024e-02,	 1.7360000009438570e+03,	 -3.2806029388762986e-06,	 2.9999999856721388e+02,	 9.9999998817629034e+02,	 3.3237670632116493e+02,	 5.2229893609524369e+00 
3.5286830000000002e-01,	 2.0601029999999998e-01,	 1.1586407654045845e-02,	 1.7360000009476003e+03,	 -3.3962622606235733e-06,	 2.9999999853291479e+02,	 9.9999998764611257e+02,	 3.3237670630216456e+02,	 5.2229893612622718e+00 
3.5714869999999999e-01,	 2.0653049999999998e-01,	 1.1586407649317615e-02,	 1.7360000009402729e+03,	 -3.5051184257594310e-06,	 2.9999999850074198e+02,	 9.9999998713078560e+02,	 3.3237670628434211e+02,	 5.2229893615202903e+00 
3.6142920000000001e-01,	 2.0705069999999998e-01,	 1.1586407644699485e-02,	 1.7360000009383082e+03,	 -3.6107135250812790e-06,	 2.9999999846948583e+02,	 9.9999998662801681e+02,	 3.3237670626702737e+02,	 5.2229893617864640e+00 
3.6570960000000002e-01,	 2.0757099999999998e-01,	 1.1586407640169926e-02,	 1.7360000009471682e+03,	 -3.7072346102419082e-06,	 2.9999999844353636e+02,	 9.9999998615058121e+02,	 3.3237670625265241e+02,	 5.2229893620390095e+00 
3.6999009999999999e-01,	 2.0809119999999998e-01,	 1.1586407635795468e-02,	 1.7360000009596270e+03,	 -3.7957528626568000e-06,	 2.9999999842303805e+02,	 9.9999998570470279e+02,	 3.3237670624129714e+02,	 5.2229893622549302e+00 
3.7427050000000001e-01,	 2.0861140000000000e-01,	 1.1586407631603606e-02,	 1.7360000009653909e+03,	 -3.8792073305150741e-06,	 2.9999999840560014e+02,	 9.9999998528478500e+02,	 3.3237670623163723e+02,	 5.2229893624240686e+00 
3.7855100000000003e-01,	 2.0913169999999998e-01,	 1.1586407627615501e-02,	 1.7360000009633677e+03,	 -3.9581383520924558e-06,	 2.9999999838987048e+02,	 9.9999998488814742e+02,	 3.3237670622292359e+02,	 5.2229893625549080e+00 
3.8283139999999999e-01,	 2.0965190000000000e-01,	 1.1586407623844721e-02,	 1.7360000009620903e+03,	 -4.0302862954709581e-06,	 2.9999999837702984e+02,	 9.9999998451989666e+02,	 3.3237670621581037e+02,	 5.2229893626628430e+00 
3.8711190000000001e-01,	 2.1017210000000000e-01,	 1.1586407620301279e-02,	 1.7360000009673563e+03,	 -4.0926458524549985e-06,	 2.9999999836956488e+02,	 9.9999998418918597e+02,	 3.3237670621167507e+02,	 5.2229893627436681e+00 
3.9139230000000003e-01,	 2.1069230000000000e-01,	 1.1586407616990323e-02,	 1.7360000009738069e+03,	 -4.1438565415765195e-06,	 2.9999999836861991e+02,	 9.9999998390027395e+02,	 3.3237670621115160e+02,	 5.2229893627713020e+00 
3.9567279999999999e-01,	 2.1121260000000000e-01,	 1.1586407613920807e-02,	 1.7360000009650225e+03,	 -4.1848772608276160e-06,	 2.9999999837277267e+02,	 9.9999998364919247e+02,	 3.3237670621345205e+02,	 5.2229893627087236e+00 
3.9995320000000001e-01,	 2.1173280000000000e-01,	 1.1586407611094428e-02,	 1.7360000009460439e+03,	 -4.2185042861588441e-06,	 2.9999999837875816e+02,	 9.9999998342520507e+02,	 3.3237670621676779e+02,	 5.2229893625995203e+00 
4.0423360000000003e-01,	 2.1225300000000000e-01,	 1.1586407608492090e-02,	 1.7360000009293994e+03,	 -4.2463067380849557e-06,	 2.9999999838557022e+02,	 9.9999998322330919e+02,	 3.3237670622054139e+02,	 5.2229893624901438e+00 
4.0851409999999999e-01,	 2.1277330000000000e-01,	 1.1586407606038547e-02,	 1.7360000009212727e+03,	 -4.2669865325624754e-06,	 2.9999999839514936e+02,	 9.9999998304347935e+02,	 3.3237670622584790e+02,	 5.2229893623823074e+00 
4.1279450000000001e-01,	 2.1329350000000000e-01,	 1.1586407603866020e-02,	 1.7360000009039904e+03,	 -4.2784175707181412e-06,	 2.9999999841020872e+02,	 9.9999998290617066e+02,	 3.3237670623419018e+02,	 5.2229893621992201e+00 
4.1707499999999997e-01,	 2.1381370000000000e-01,	 1.1586407602110863e-02,	 1.7360000008817401e+03,	 -4.2801776722883753e-06,	 2.9999999842928457e+02,	 9.9999998281827266e+02,	 3.3237670624475749e+02,	 5.2229893619662215e+00 
4.2135539999999999e-01,	 2.1433389999999999e-01,	 1.1586407600681560e-02,	 1.7360000008638210e+03,	 -4.2733400639614667e-06,	 2.9999999845100785e+02,	 9.9999998276732322e+02,	 3.3237670625679129e+02,	 5.2229893617232097e+00 
4.2563590000000001e-01,	 2.1485420000000000e-01,	 1.1586407599441935e-02,	 1.7360000008486386e+03,	 -4.2591316380931154e-06,	 2.9999999847520758e+02,	 9.9999998274099949e+02,	 3.3237670627019702e+02,	 5.2229893614668725e+00 
4.2991629999999997e-01,	 2.1537439999999999e-01,	 1.1586407598410040e-02,	 1.7360000008258505e+03,	 -4.2373837777792011e-06,	 2.9999999850323314e+02,	 9.9999998274535710e+02,	 3.3237670628572209e+02,	 5.2229893611543492e+00 
4.3419679999999999e-01,	 2.1589459999999999e-01,	 1.1586407597807932e-02,	 1.7360000007897747e+03,	 -4.2064855167664461e-06,	 2.9999999853649479e+02,	 9.9999998280426246e+02,	 3.3237670630414777e+02,	 5.2229893607562685e+00 
4.3847720000000001e-01,	 2.1641489999999999e-01,	 1.1586407597779336e-02,	 1.7360000007679241e+03,	 -4.1651442486102200e-06,	 2.9999999857393476e+02,	 9.9999998292659438e+02,	 3.3237670632488806e+02,	 5.2229893603646138e+00 
4.4275769999999998e-01,	 2.1693509999999999e-01,	 1.1586407598256156e-02,	 1.7360000007634208e+03,	 -4.1150742452300620e-06,	 2.9999999860976726e+02,	 9.9999998308718943e+02,	 3.3237670634473784e+02,	 5.2229893600391435e+00 
4.4703809999999999e-01,	 2.1745529999999999e-01,	 1.1586407598906619e-02,	 1.7360000007574938e+03,	 -4.0611050694647098e-06,	 2.9999999864724361e+02,	 9.9999998326825073e+02,	 3.3237670636549831e+02,	 5.2229893596950809e+00 
4.5131850000000001e-01,	 2.1797549999999999e-01,	 1.1586407599570865e-02,	 1.7360000007531150e+03,	 -4.0076718564898715e-06,	 2.9999999868492239e+02,	 9.9999998345117649e+02,	 3.3237670638637087e+02,	 5.2229893593539138e+00 
4.5559899999999998e-01,	 2.1849579999999999e-01,	 1.1586407599760595e-02,	 1.7360000007523577e+03,	 -3.9832678722148922e-06,	 2.9999999871774384e+02,	 9.9999998357695654e+02,	 3.3237670640455269e+02,	 5.2229893590659247e+00 
4.5987939999999999e-01,	 2.1901599999999999e-01,	 1.1586407600259776e-02,	 1.7360000007516046e+03,	 -3.9225810165371503e-06,	 2.9999999875102844e+02,	 9.9999998373098856e+02,	 3.3237670642299111e+02,	 5.2229893587739165e+00 
4.6415990000000001e-01,	 2.1953619999999999e-01,	 1.1586407603871487e-02,	 1.7360000007434578e+03,	 -3.8100017202328022e-06,	 2.9999999879274566e+02,	 9.9999998418176563e+02,	 3.3237670644610080e+02,	 5.2229893583862586e+00 
4.6844029999999998e-01,	 2.2005649999999999e-01,	 1.1586407610550738e-02,	 1.7360000007302087e+03,	 -3.6815796242928238e-06,	 2.9999999883790008e+02,	 9.9999998490875339e+02,	 3.3237670647111457e+02,	 5.2229893579533284e+00 
4.7272080000000000e-01,	 2.2057669999999999e-01,	 1.1586407618303950e-02,	 1.7360000007147505e+03,	 -3.5284960878295350e-06,	 2.9999999888465925e+02,	 9.9999998573378161e+02,	 3.3237670649701738e+02,	 5.2229893574997819e+00 
4.7700120000000001e-01,	 2.2109689999999999e-01,	 1.1586407625942166e-02,	 1.7360000006959533e+03,	 -3.3730869883484907e-06,	 2.9999999893221764e+02,	 9.9999998655154889e+02,	 3.3237670652336288e+02,	 5.2229893570292329e+00 
4.8128169999999998e-01,	 2.2161709999999998e-01,	 1.1586407632144496e-02,	 1.7360000006730336e+03,	 -3.2350310098650897e-06,	 2.9999999897869662e+02,	 9.9999998724178977e+02,	 3.3237670654911039e+02,	 5.2229893565556784e+00 
4.8556210000000000e-01,	 2.2213739999999998e-01,	 1.1586407636412005e-02,	 1.7360000006464120e+03,	 -3.1157481638669488e-06,	 2.9999999902437060e+02,	 9.9999998776235657e+02,	 3.3237670657441203e+02,	 5.2229893560779921e+00 
4.8984260000000002e-01,	 2.2265759999999998e-01,	 1.1586407639892642e-02,	 1.7360000006162768e+03,	 -2.9994407426272552e-06,	 2.9999999907059822e+02,	 9.9999998821685563e+02,	 3.3237670660002033e+02,	 5.2229893555849154e+00 
4.9412299999999998e-01,	 2.2317779999999998e-01,	 1.1586407644397657e-02,	 1.7360000005839884e+03,	 -2.8667761135722706e-06,	 2.9999999911846237e+02,	 9.9999998876522170e+02,	 3.3237670662653522e+02,	 5.2229893550711148e+00 
4.9840350000000000e-01,	 2.2369809999999998e-01,	 1.1586407650719206e-02,	 1.7360000005514958e+03,	 -2.7092428426656201e-06,	 2.9999999916798492e+02,	 9.9999998947589734e+02,	 3.3237670665396877e+02,	 5.2229893545422641e+00 
5.0268389999999996e-01,	 2.2421829999999998e-01,	 1.1586407658221066e-02,	 1.7360000005193951e+03,	 -2.5317702658364544e-06,	 2.9999999921896483e+02,	 9.9999999029330115e+02,	 3.3237670668220966e+02,	 5.2229893540019061e+00 
5.0696430000000003e-01,	 2.2473849999999998e-01,	 1.1586407665804939e-02,	 1.7360000004870303e+03,	 -2.3429321881888667e-06,	 2.9999999927264389e+02,	 9.9999999112678040e+02,	 3.3237670671194576e+02,	 5.2229893534372565e+00 
5.1124480000000005e-01,	 2.2525869999999998e-01,	 1.1586407673033036e-02,	 1.7360000004536867e+03,	 -2.1463166901860739e-06,	 2.9999999933191503e+02,	 9.9999999194819361e+02,	 3.3237670674477971e+02,	 5.2229893528209832e+00 
5.1552520000000002e-01,	 2.2577899999999998e-01,	 1.1586407679903519e-02,	 1.7360000004175527e+03,	 -1.9392869094222633e-06,	 2.9999999939992074e+02,	 9.9999999276785718e+02,	 3.3237670678245223e+02,	 5.2229893521202806e+00 
5.1980570000000004e-01,	 2.2629919999999998e-01,	 1.1586407686661106e-02,	 1.7360000003765690e+03,	 -1.7172728759058535e-06,	 2.9999999948002335e+02,	 9.9999999361809989e+02,	 3.3237670682682597e+02,	 5.2229893512996837e+00 
5.2408610000000000e-01,	 2.2681939999999998e-01,	 1.1586407693923214e-02,	 1.7360000003283444e+03,	 -1.4687120729909245e-06,	 2.9999999957685998e+02,	 9.9999999456766682e+02,	 3.3237670688046967e+02,	 5.2229893503116331e+00 
5.2836660000000002e-01,	 2.2733969999999998e-01,	 1.1586407701052376e-02,	 1.7360000002718980e+03,	 -1.1691509809597563e-06,	 2.9999999970080660e+02,	 9.9999999559612615e+02,	 3.3237670694913129e+02,	 5.2229893490628534e+00 
5.3264699999999998e-01,	 2.2785989999999998e-01,	 1.1586407718876025e-02,	 1.7360000002044931e+03,	 -7.7133105727146075e-07,	 2.9999999986150306e+02,	 9.9999999767010490e+02,	 3.3237670703815087e+02,	 5.2229893474611968e+00 
5.3692750000000000e-01,	 2.2838010000000000e-01,	 1.1586407738166108e-02,	 1.7360000001381077e+03,	 -1.5408719661603419e-07,	 3.0000000006859818e+02,	 1.0000000000253112e+03,	 3.3237670715287356e+02,	 5.2229893454587080e+00 
5.4120789999999996e-01,	 2.2890030000000000e-01,	 1.1586407768946956e-02,	 1.7360000000892162e+03,	 4.2911066760089914e-07,	 3.0000000025906030e+02,	 1.0000000033168192e+03,	 3.3237670725838217e+02,	 5.2229893436536416e+00 
2.1455240000000000e-01,	 1.9405780000000000e-01,	 1.1586407721396668e-02,	 1.7359999998224393e+03,	 7.7723964692094756e-08,	 3.0000000000198310e+02,	 9.9999999835592359e+02,	 3.3237670711597139e+02,	 5.2229893450888607e+00 
2.1884200000000001e-01,	 1.9455639999999999e-01,	 1.1586407735339071e-02,	 1.7359999999448587e+03,	 1.2864604072088281e-07,	 3.0000000000515621e+02,	 9.9999999956984186e+02,	 3.3237670711772915e+02,	 5.2229893454295535e+00 
2.2313150000000001e-01,	 1.9505499999999998e-01,	 1.1586407735523496e-02,	 1.7359999999817333e+03,	 1.4579472561428536e-07,	 3.0000000000110987e+02,	 9.9999999957227146e+02,	 3.3237670711548765e+02,	 5.2229893455757193e+00 
2.2742100000000001e-01,	 1.9555349999999999e-01,	 1.1586407735509032e-02,	 1.7359999999977795e+03,	 1.3834673600989611e-07,	 2.9999999999535379e+02,	 9.9999999955183614e+02,	 3.3237670711229902e+02,	 5.2229893456741028e+00 
2.3171050000000001e-01,	 1.9605209999999998e-01,	 1.1586407736196423e-02,	 1.7359999999962538e+03,	 1.2383807091662874e-07,	 2.9999999999647611e+02,	 9.9999999961490460e+02,	 3.3237670711292071e+02,	 5.2229893456597427e+00 
2.3599999999999999e-01,	 1.9655059999999999e-01,	 1.1586407736777608e-02,	 1.7359999999976185e+03,	 1.0519664366997315e-07,	 2.9999999999994384e+02,	 9.9999999967662461e+02,	 3.3237670711484174e+02,	 5.2229893456336614e+00 
2.4028949999999999e-01,	 1.9704919999999998e-01,	 1.1586407736498059e-02,	 1.7359999999955728e+03,	 7.4512873018239732e-08,	 2.9999999999879378e+02,	 9.9999999964866367e+02,	 3.3237670711420463e+02,	 5.2229893456375187e+00 
2.4457899999999999e-01,	 1.9754769999999999e-01,	 1.1586407735892999e-02,	 1.7359999999959673e+03,	 3.9849841874584350e-08,	 2.9999999999253055e+02,	 9.9999999957556474e+02,	 3.3237670711073503e+02,	 5.2229893456932270e+00 
2.4886849999999999e-01,	 1.9804629999999998e-01,	 1.1586407734602778e-02,	 1.7360000000000480e+03,	 2.5688480205184641e-09,	 2.9999999998212718e+02,	 9.9999999942953036e+02,	 3.3237670710497196e+02,	 5.2229893457960657e+00 
2.5315799999999999e-01,	 1.9854479999999999e-01,	 1.1586407733008397e-02,	 1.7360000000068583e+03,	 -4.5028125686542797e-08,	 2.9999999996834975e+02,	 9.9999999924599786e+02,	 3.3237670709733982e+02,	 5.2229893459364876e+00 
2.5744760000000000e-01,	 1.9904339999999998e-01,	 1.1586407730974965e-02,	 1.7360000000138511e+03,	 -1.0132942009148828e-07,	 2.9999999995044720e+02,	 9.9999999901082106e+02,	 3.3237670708742252e+02,	 5.2229893461133674e+00 
2.6173710000000000e-01,	 1.9954189999999999e-01,	 1.1586407728539054e-02,	 1.7360000000202554e+03,	 -1.6597001074442481e-07,	 2.9999999992749497e+02,	 9.9999999872407500e+02,	 3.3237670707470784e+02,	 5.2229893463324348e+00 
2.6602660000000000e-01,	 2.0004049999999998e-01,	 1.1586407725683109e-02,	 1.7360000000268585e+03,	 -2.3847186091228155e-07,	 2.9999999989919621e+02,	 9.9999999838325482e+02,	 3.3237670705903145e+02,	 5.2229893465986406e+00 
2.7031610000000000e-01,	 2.0053900000000000e-01,	 1.1586407722422429e-02,	 1.7360000000349983e+03,	 -3.1842616606374959e-07,	 2.9999999986614921e+02,	 9.9999999799167529e+02,	 3.3237670704072468e+02,	 5.2229893469108042e+00 
2.7460560000000001e-01,	 2.0103759999999998e-01,	 1.1586407718779758e-02,	 1.7360000000457133e+03,	 -4.0578597352929674e-07,	 2.9999999982917774e+02,	 9.9999999755404531e+02,	 3.3237670702024394e+02,	 5.2229893472648774e+00 
2.7889510000000001e-01,	 2.0153610000000000e-01,	 1.1586407714781709e-02,	 1.7360000000596769e+03,	 -5.0069045317906681e-07,	 2.9999999978862411e+02,	 9.9999999707380289e+02,	 3.3237670699777880e+02,	 5.2229893476599081e+00 
2.8318460000000001e-01,	 2.0203469999999998e-01,	 1.1586407710445971e-02,	 1.7360000000766349e+03,	 -6.0309133230276292e-07,	 2.9999999974438856e+02,	 9.9999999655214208e+02,	 3.3237670697327405e+02,	 5.2229893480959975e+00 
2.8747410000000001e-01,	 2.0253320000000000e-01,	 1.1586407705787958e-02,	 1.7360000000945424e+03,	 -7.1268989736985043e-07,	 2.9999999969624861e+02,	 9.9999999598965155e+02,	 3.3237670694660636e+02,	 5.2229893485689320e+00 
2.9176360000000001e-01,	 2.0303179999999998e-01,	 1.1586407700837477e-02,	 1.7360000001110222e+03,	 -8.2915550092604013e-07,	 2.9999999964415940e+02,	 9.9999999538875466e+02,	 3.3237670691775094e+02,	 5.2229893490719501e+00 
2.9605310000000001e-01,	 2.0353030000000000e-01,	 1.1586407695661558e-02,	 1.7360000001278502e+03,	 -9.5186145584897094e-07,	 2.9999999958868256e+02,	 9.9999999475710854e+02,	 3.3237670688701894e+02,	 5.2229893496055038e+00 
3.0034270000000002e-01,	 2.0402889999999999e-01,	 1.1586407690352634e-02,	 1.7360000001504700e+03,	 -1.0798221801061538e-06,	 2.9999999953140929e+02,	 9.9999999410799478e+02,	 3.3237670685529179e+02,	 5.2229893501721207e+00 
3.0463220000000002e-01,	 2.0452740000000000e-01,	 1.1586407684990953e-02,	 1.7360000001814112e+03,	 -1.2098084248306470e-06,	 2.9999999947539675e+02,	 9.9999999345853030e+02,	 3.3237670682426301e+02,	 5.2229893507528002e+00 
3.0892170000000002e-01,	 2.0502599999999999e-01,	 1.1586407679613666e-02,	 1.7360000002156050e+03,	 -1.3406318858670986e-06,	 2.9999999942164914e+02,	 9.9999999281526857e+02,	 3.3237670679448888e+02,	 5.2229893513235490e+00 
3.1321120000000002e-01,	 2.0552460000000000e-01,	 1.1586407674219470e-02,	 1.7360000002440963e+03,	 -1.4724288799223942e-06,	 2.9999999936886923e+02,	 9.9999999217377308e+02,	 3.3237670676525090e+02,	 5.2229893518687165e+00 
3.1750070000000002e-01,	 2.0602309999999999e-01,	 1.1586407668797233e-02,	 1.7360000002632542e+03,	 -1.6059535550673092e-06,	 2.9999999931497155e+02,	 9.9999999152613157e+02,	 3.3237670673539367e+02,	 5.2229893523955342e+00 
3.2179020000000003e-01,	 2.0652170000000000e-01,	 1.1586407663353664e-02,	 1.7360000002775491e+03,	 -1.7415350738113113e-06,	 2.9999999925906428e+02,	 9.9999999086995024e+02,	 3.3237670670442321e+02,	 5.2229893529252145e+00 
3.2607969999999997e-01,	 2.0702019999999999e-01,	 1.1586407657928555e-02,	 1.7360000002940337e+03,	 -1.8786397368001948e-06,	 2.9999999920197797e+02,	 9.9999999021143219e+02,	 3.3237670667279963e+02,	 5.2229893534717453e+00 
3.3036919999999997e-01,	 2.0751879999999998e-01,	 1.1586407652583936e-02,	 1.7360000003171303e+03,	 -2.0159917521184499e-06,	 2.9999999914541382e+02,	 9.9999998956160152e+02,	 3.3237670664146526e+02,	 5.2229893540336247e+00 
3.3465869999999998e-01,	 2.0801729999999999e-01,	 1.1586407647381445e-02,	 1.7360000003485006e+03,	 -2.1522503859981259e-06,	 2.9999999909097494e+02,	 9.9999998893112183e+02,	 3.3237670661130824e+02,	 5.2229893546018964e+00 
3.3894829999999998e-01,	 2.0851589999999998e-01,	 1.1586407642362587e-02,	 1.7360000003873347e+03,	 -2.2866189775548320e-06,	 2.9999999903974697e+02,	 9.9999998832719416e+02,	 3.3237670658292996e+02,	 5.2229893551646720e+00 
3.4323779999999998e-01,	 2.0901439999999999e-01,	 1.1586407637541834e-02,	 1.7360000004283415e+03,	 -2.4185732766396832e-06,	 2.9999999899210724e+02,	 9.9999998775232541e+02,	 3.3237670655653938e+02,	 5.2229893557027500e+00 
3.4752729999999998e-01,	 2.0951299999999998e-01,	 1.1586407632919028e-02,	 1.7360000004633462e+03,	 -2.5482238326719132e-06,	 2.9999999894714369e+02,	 9.9999998720346161e+02,	 3.3237670653163133e+02,	 5.2229893561994727e+00 
3.5181679999999999e-01,	 2.1001149999999999e-01,	 1.1586407628480802e-02,	 1.7360000004867277e+03,	 -2.6757237353102672e-06,	 2.9999999890331731e+02,	 9.9999998667431919e+02,	 3.3237670650735316e+02,	 5.2229893566513281e+00 
3.5610629999999999e-01,	 2.1051009999999998e-01,	 1.1586407624223631e-02,	 1.7360000005020997e+03,	 -2.7991933420940173e-06,	 2.9999999886062420e+02,	 9.9999998616458072e+02,	 3.3237670648370289e+02,	 5.2229893570692187e+00 
3.6039579999999999e-01,	 2.1100859999999999e-01,	 1.1586407620169825e-02,	 1.7360000005192373e+03,	 -2.9197821008613794e-06,	 2.9999999881874646e+02,	 9.9999998567511227e+02,	 3.3237670646050424e+02,	 5.2229893574853241e+00 
3.6468529999999999e-01,	 2.1150719999999998e-01,	 1.1586407616355984e-02,	 1.7360000005431373e+03,	 -3.0361333608769048e-06,	 2.9999999877945294e+02,	 9.9999998521496877e+02,	 3.3237670643873713e+02,	 5.2229893578992801e+00 
3.6897479999999999e-01,	 2.1200569999999999e-01,	 1.1586407612805416e-02,	 1.7360000005708082e+03,	 -3.1476070656695671e-06,	 2.9999999874357184e+02,	 9.9999998478892257e+02,	 3.3237670641886041e+02,	 5.2229893582948765e+00 
3.7326429999999999e-01,	 2.1250429999999998e-01,	 1.1586407609519194e-02,	 1.7360000005965344e+03,	 -3.2549964062502204e-06,	 2.9999999871021510e+02,	 9.9999998439410615e+02,	 3.3237670640038209e+02,	 5.2229893586626464e+00 
3.7755379999999999e-01,	 2.1300279999999999e-01,	 1.1586407606504590e-02,	 1.7360000006192790e+03,	 -3.3585167054883315e-06,	 2.9999999867853973e+02,	 9.9999998402833694e+02,	 3.3237670638283515e+02,	 5.2229893590068102e+00 
3.8184340000000000e-01,	 2.1350139999999998e-01,	 1.1586407603782017e-02,	 1.7360000006429009e+03,	 -3.4567486113031613e-06,	 2.9999999864919391e+02,	 9.9999998369553782e+02,	 3.3237670636657867e+02,	 5.2229893593333356e+00 
3.8613290000000000e-01,	 2.1399989999999999e-01,	 1.1586407601377132e-02,	 1.7360000006693388e+03,	 -3.5479391513403944e-06,	 2.9999999862368861e+02,	 9.9999998340295929e+02,	 3.3237670635244973e+02,	 5.2229893596349006e+00 
3.9042240000000000e-01,	 2.1449849999999998e-01,	 1.1586407599299776e-02,	 1.7360000006945193e+03,	 -3.6312051132066094e-06,	 2.9999999860270680e+02,	 9.9999998315372727e+02,	 3.3237670634082667e+02,	 5.2229893598933046e+00 
3.9471190000000000e-01,	 2.1499699999999999e-01,	 1.1586407597537231e-02,	 1.7360000007106212e+03,	 -3.7071530658582923e-06,	 2.9999999858527667e+02,	 9.9999998294350507e+02,	 3.3237670633117102e+02,	 5.2229893600934796e+00 
3.9900140000000001e-01,	 2.1549559999999998e-01,	 1.1586407596061471e-02,	 1.7360000007198446e+03,	 -3.7770117318140595e-06,	 2.9999999856955952e+02,	 9.9999998276374470e+02,	 3.3237670632246432e+02,	 5.2229893602580466e+00 
4.0329090000000001e-01,	 2.1599420000000000e-01,	 1.1586407594834707e-02,	 1.7360000007285698e+03,	 -3.8413502370811152e-06,	 2.9999999855514477e+02,	 9.9999998260981602e+02,	 3.3237670631447912e+02,	 5.2229893604097777e+00 
4.0758040000000001e-01,	 2.1649269999999998e-01,	 1.1586407593762236e-02,	 1.7360000007432750e+03,	 -3.8993891673539392e-06,	 2.9999999854329502e+02,	 9.9999998247775386e+02,	 3.3237670630791484e+02,	 5.2229893605571718e+00 
4.1186990000000001e-01,	 2.1699130000000000e-01,	 1.1586407592892426e-02,	 1.7360000007597248e+03,	 -3.9498805913278294e-06,	 2.9999999853573217e+02,	 9.9999998237747286e+02,	 3.3237670630372531e+02,	 5.2229893606724973e+00 
4.1615940000000001e-01,	 2.1748979999999998e-01,	 1.1586407592367357e-02,	 1.7360000007739034e+03,	 -3.9922197444644241e-06,	 2.9999999853194208e+02,	 9.9999998231952156e+02,	 3.3237670630162575e+02,	 5.2229893607481488e+00 
4.2044900000000002e-01,	 2.1798840000000000e-01,	 1.1586407592176296e-02,	 1.7360000007778476e+03,	 -4.0265882097805201e-06,	 2.9999999853089383e+02,	 9.9999998229953724e+02,	 3.3237670630104503e+02,	 5.2229893607691409e+00 
4.2473850000000002e-01,	 2.1848689999999998e-01,	 1.1586407592210253e-02,	 1.7360000007738438e+03,	 -4.0534247672995767e-06,	 2.9999999853182567e+02,	 9.9999998230557424e+02,	 3.3237670630156123e+02,	 5.2229893607489828e+00 
4.2902800000000002e-01,	 2.1898550000000000e-01,	 1.1586407592478528e-02,	 1.7360000007777430e+03,	 -4.0719352237656588e-06,	 2.9999999853578373e+02,	 9.9999998234192208e+02,	 3.3237670630375385e+02,	 5.2229893607262596e+00 
4.3331750000000002e-01,	 2.1948399999999998e-01,	 1.1586407593205963e-02,	 1.7360000007974131e+03,	 -4.0805106060535256e-06,	 2.9999999854536452e+02,	 9.9999998243664152e+02,	 3.3237670630906126e+02,	 5.2229893607020390e+00 
4.3760700000000002e-01,	 2.1998260000000000e-01,	 1.1586407594631892e-02,	 1.7360000008032691e+03,	 -4.0780156851074391e-06,	 2.9999999856116074e+02,	 9.9999998261236453e+02,	 3.3237670631781174e+02,	 5.2229893605821518e+00 
4.4189650000000003e-01,	 2.2048109999999999e-01,	 1.1586407596756079e-02,	 1.7360000007811843e+03,	 -4.0658278756416644e-06,	 2.9999999858054872e+02,	 9.9999998286032564e+02,	 3.3237670632855190e+02,	 5.2229893603469346e+00 
4.4618600000000003e-01,	 2.2097970000000000e-01,	 1.1586407599100538e-02,	 1.7360000007579283e+03,	 -4.0485134761857048e-06,	 2.9999999859764142e+02,	 9.9999998311964691e+02,	 3.3237670633802060e+02,	 5.2229893601281745e+00 