TITLE = "Final State"
VARIABLES = "X", "Y", "rho", "u", "v", "T", "p", "c", "M"
ZONE I=72, J=24, DATAPACKING=POINT
5.4302407499999994e-01,	 2.3067877500000000e-01,	 1.1586417120237806e-02,	 1.7359999022799532e+03,	 3.6097172383138515e-04,	 3.0000016847496516e+02,	 1.0000013711284262e+03,	 3.4760797834790998e+02,	 4.9941313502950804e+00 
5.4730907499999992e-01,	 2.3118817500000000e-01,	 1.1586424870399112e-02,	 1.7359998219810084e+03,	 6.5819814984127960e-04,	 3.0000030691480185e+02,	 1.0000025014967429e+03,	 3.4760805855250862e+02,	 4.9941299669808954e+00 
5.5159402499999999e-01,	 2.3169755000000000e-01,	 1.1586438912482955e-02,	 1.7359996768615313e+03,	 1.1958667197316494e-03,	 3.0000055710859124e+02,	 1.0000045474240856e+03,	 3.4760820350129239e+02,	 4.9941274670046409e+00 
5.5587900000000001e-01,	 2.3220695000000000e-01,	 1.1586464262375404e-02,	 1.7359994155103816e+03,	 2.1649962732746240e-03,	 3.0000100769126038e+02,	 1.0000082372769250e+03,	 3.4760846454442986e+02,	 4.9941229647180920e+00 
5.6016397500000004e-01,	 2.3271634999999999e-01,	 1.1586509896716109e-02,	 1.7359989462579490e+03,	 3.9068377820645492e-03,	 3.0000181670379180e+02,	 1.0000148726323102e+03,	 3.4760893324187930e+02,	 4.9941148809727860e+00 
5.6444894999999995e-01,	 2.3322572499999999e-01,	 1.1586591765658906e-02,	 1.7359981065100094e+03,	 7.0268321240497542e-03,	 3.0000326445933575e+02,	 1.0000267645505420e+03,	 3.4760977199038854e+02,	 4.9941004149107506e+00 
5.6873392499999997e-01,	 2.3373509999999997e-01,	 1.1586738172975222e-02,	 1.7359966085414123e+03,	 1.2597602777205516e-02,	 3.0000584698507333e+02,	 1.0000480094793802e+03,	 3.4761126815619275e+02,	 4.9940746103980800e+00 
5.7301889999999989e-01,	 2.3424449999999999e-01,	 1.1586999127424353e-02,	 1.7359939449455430e+03,	 2.2511559852695897e-02,	 3.0001043899210345e+02,	 1.0000858398535371e+03,	 3.4761392848314148e+02,	 4.9940287279820401e+00 
5.7730387499999991e-01,	 2.3475390000000002e-01,	 1.1587463015499512e-02,	 1.7359892221756002e+03,	 4.0107465236954132e-02,	 3.0001858073230852e+02,	 1.0001530201173455e+03,	 3.4761864525750713e+02,	 4.9939473797584562e+00 
5.8158887500000001e-01,	 2.3526330000000001e-01,	 1.1588284888275726e-02,	 1.7359808754383464e+03,	 7.1233242160701718e-02,	 3.0003296914224040e+02,	 1.0002719278658321e+03,	 3.4762698077390922e+02,	 4.9938036254696563e+00 
5.8587387499999988e-01,	 2.3577270000000000e-01,	 1.1589735855928325e-02,	 1.7359661730804287e+03,	 1.2609971099239536e-01,	 3.0005831108944545e+02,	 1.0004816692062736e+03,	 3.4764166142484697e+02,	 4.9935504580932362e+00 
5.9015884999999990e-01,	 2.3628209999999999e-01,	 1.1592290685698623e-02,	 1.7359403471048486e+03,	 2.2255756369239044e-01,	 3.0010281865712528e+02,	 1.0008506482712198e+03,	 3.4766744326537622e+02,	 4.9931058975987535e+00 
5.9444382500000004e-01,	 2.3679147499999997e-01,	 1.1596770349085099e-02,	 1.7358951574615628e+03,	 3.9142589791657639e-01,	 3.0018067302355627e+02,	 1.0014971583507937e+03,	 3.4771253726578686e+02,	 4.9923284769736549e+00 
5.9872877499999999e-01,	 2.3730085000000001e-01,	 1.1604591244252479e-02,	 1.7358164058991283e+03,	 6.8578842107988336e-01,	 3.0031627650882928e+02,	 1.0026252919019621e+03,	 3.4779106615250248e+02,	 4.9909750718238453e+00 
6.0301375000000002e-01,	 2.3781025000000000e-01,	 1.1618166611803690e-02,	 1.7356798751533724e+03,	 1.1959360682476308e+00,	 3.0055115253445001e+02,	 1.0045832564371925e+03,	 3.4792704249491612e+02,	 4.9886328890252729e+00 
6.0729872500000004e-01,	 2.3831964999999999e-01,	 1.1641566135218493e-02,	 1.7354446931053569e+03,	 2.0737583018030961e+00,	 3.0095509243419264e+02,	 1.0079594097861265e+03,	 3.4816077046984083e+02,	 4.9846107870651553e+00 
6.1158369999999995e-01,	 2.3882902499999997e-01,	 1.1681465506906484e-02,	 1.7350434711228331e+03,	 3.5674880001572893e+00,	 3.0164233672236418e+02,	 1.0137236178680516e+03,	 3.4855806406256312e+02,	 4.9777851027727662e+00 
6.1586867499999998e-01,	 2.3933842499999997e-01,	 1.1748440897046712e-02,	 1.7343687694979983e+03,	 6.0674245418069983e+00,	 3.0279273363788872e+02,	 1.0234240600039549e+03,	 3.4922209309298927e+02,	 4.9664079585688059e+00 
6.2015365000000000e-01,	 2.3984782499999996e-01,	 1.1858447714100103e-02,	 1.7332577578943292e+03,	 1.0152413534114860e+01,	 3.0467286769336948e+02,	 1.0394211770546940e+03,	 3.5030462942141503e+02,	 4.9479434341537125e+00 
6.2443864999999998e-01,	 2.4035719999999999e-01,	 1.2033525679491083e-02,	 1.7314861511273207e+03,	 1.6590176752756324e+01,	 3.0763534727359939e+02,	 1.0650231818296570e+03,	 3.5200359891950939e+02,	 4.9191702406757774e+00 
6.2872364999999997e-01,	 2.4086657499999997e-01,	 1.2300959531307474e-02,	 1.7287844079262345e+03,	 2.6246714280302083e+01,	 3.1207216667715880e+02,	 1.1043938089966780e+03,	 3.5453286862361745e+02,	 4.8767936364136562e+00 
6.3300862499999999e-01,	 2.4137597499999999e-01,	 1.2689211981926109e-02,	 1.7248982675638133e+03,	 3.9836854465115579e+01,	 3.1829079563941968e+02,	 1.1619532899281194e+03,	 3.5804781394487367e+02,	 4.8187927950298084e+00 
6.3729360000000002e-01,	 2.4188537499999999e-01,	 1.3221463352933255e-02,	 1.7196778514960854e+03,	 5.7604881070905840e+01,	 3.2636028495516541e+02,	 1.2413857812306712e+03,	 3.6255812182943953e+02,	 4.7458387681507519e+00 
6.4157857500000004e-01,	 2.4239474999999999e-01,	 1.3907746871077412e-02,	 1.7131589783103250e+03,	 7.9084914870290717e+01,	 3.3601447375162513e+02,	 1.3444501380733868e+03,	 3.6788152577875559e+02,	 4.6617818329201111e+00 
6.4586355000000006e-01,	 2.4290414999999999e-01,	 1.4740434615789645e-02,	 1.7055681948615854e+03,	 1.0318010452527595e+02,	 3.4671987129004026e+02,	 1.4703440178072819e+03,	 3.7369591715152478e+02,	 4.5723976620208919e+00 
6.5014852500000009e-01,	 2.4341354999999998e-01,	 1.5694511956471466e-02,	 1.6972570548081981e+03,	 1.2849519707102598e+02,	 3.5785100381396484e+02,	 1.6157716822937857e+03,	 3.7964711720368314e+02,	 4.4834111917257538e+00 
6.5443347499999993e-01,	 2.4392292499999998e-01,	 1.6730983720027386e-02,	 1.6886047509584741e+03,	 1.5369641082793356e+02,	 3.6886666549266926e+02,	 1.7755006019206687e+03,	 3.8544613167366003e+02,	 4.3990194478267206e+00 
6.5871844999999996e-01,	 2.4443229999999999e-01,	 1.7802199166257224e-02,	 1.6799401487487976e+03,	 1.7776222338827927e+02,	 3.7939884927436816e+02,	 1.9431199124267137e+03,	 3.9091018976992416e+02,	 4.3215012911183939e+00 
6.6300342499999987e-01,	 2.4494169999999998e-01,	 1.8857815426813300e-02,	 1.6715133816478997e+03,	 2.0001927751458086e+02,	 3.8924743573649459e+02,	 2.1117722486746520e+03,	 3.9595138523975919e+02,	 4.2516289073538420e+00 
6.6728842499999985e-01,	 2.4545110000000001e-01,	 1.9857279189513237e-02,	 1.6635682320762273e+03,	 2.1999298356026043e+02,	 3.9823940884039058e+02,	 2.2750655488479965e+03,	 4.0049869367649870e+02,	 4.1899045602928977e+00 
6.7157342500000006e-01,	 2.4596049999999997e-01,	 2.0774046610647905e-02,	 1.6563396691472799e+03,	 2.3739341377280999e+02,	 4.0620396002468715e+02,	 2.4277009716796219e+03,	 4.0448373546491484e+02,	 4.1367925180158291e+00 
6.7585840000000008e-01,	 2.4646989999999996e-01,	 2.1593171475430033e-02,	 1.6499449134478625e+03,	 2.5225625397104142e+02,	 4.1308891670804110e+02,	 2.5661965332821233e+03,	 4.0789723183466566e+02,	 4.0920036528924539e+00 
6.8014337499999999e-01,	 2.4697929999999998e-01,	 2.2309778238238237e-02,	 1.6443948447083815e+03,	 2.6480737259781893e+02,	 4.1894539156466402e+02,	 2.6889492668352814e+03,	 4.1077849113268741e+02,	 4.0546918110854975e+00 
6.8442835000000002e-01,	 2.4748867499999999e-01,	 2.2926283438320434e-02,	 1.6396444909663592e+03,	 2.7533305808995124e+02,	 4.2386878737905209e+02,	 2.7957287474939581e+03,	 4.1318515078313487e+02,	 4.0238645468563146e+00 
6.8871332500000004e-01,	 2.4799804999999997e-01,	 2.3449905699348086e-02,	 1.6356188521886675e+03,	 2.8413300933548823e+02,	 4.2797124619168665e+02,	 2.8872582397067786e+03,	 4.1517986394884247e+02,	 3.9985432284483950e+00 
6.9299830000000007e-01,	 2.4850744999999996e-01,	 2.3890471242888837e-02,	 1.6322291369453515e+03,	 2.9148990844901425e+02,	 4.3136884824157647e+02,	 2.9648548237980417e+03,	 4.1682463256168944e+02,	 3.9778181030404287e+00 
6.9728327500000009e-01,	 2.4901685000000001e-01,	 2.4258887721070564e-02,	 1.6293839465928504e+03,	 2.9765923327508324e+02,	 4.3417205925428334e+02,	 3.0301399918916127e+03,	 4.1817678778323472e+02,	 3.9608829729206954e+00 
7.0156822499999993e-01,	 2.4952622499999999e-01,	 2.4565918582224525e-02,	 1.6269965679269192e+03,	 3.0286044891205773e+02,	 4.3648145261406472e+02,	 3.0848122696008113e+03,	 4.1928746945520470e+02,	 3.9470409165546183e+00 
7.0585322500000003e-01,	 2.5003562499999998e-01,	 2.4821683276188399e-02,	 1.6249880808906207e+03,	 3.0728061451632630e+02,	 4.3838558494273036e+02,	 3.1305268454743714e+03,	 4.2020103633328330e+02,	 3.9357015034151757e+00 
7.1013822500000001e-01,	 2.5054502499999998e-01,	 2.5035236156574513e-02,	 1.6232892368424671e+03,	 3.1107522913358781e+02,	 4.3996062191050834e+02,	 3.1688044347000641e+03,	 4.2095521119065251e+02,	 3.9263716150481267e+00 
7.1442320000000004e-01,	 2.5105440000000001e-01,	 2.5214415069396607e-02,	 1.6218410695152618e+03,	 3.1437169934710249e+02,	 4.4127041126937979e+02,	 3.2009850268132732e+03,	 4.2158135007496765e+02,	 3.9186469133726116e+00 
7.1870817499999995e-01,	 2.5156377499999999e-01,	 2.5365849373524752e-02,	 1.6205941575564971e+03,	 3.1727323340578556e+02,	 4.4236795458561409e+02,	 3.2282191210564092e+03,	 4.2210531046883250e+02,	 3.9121975410095993e+00 
7.2299314999999997e-01,	 2.5207317499999998e-01,	 2.5495072981151227e-02,	 1.6195077180723110e+03,	 3.1986312172018972e+02,	 4.4329655349543162e+02,	 3.2514759928946028e+03,	 4.2254811045361453e+02,	 3.9067575988616854e+00 
7.2727812500000000e-01,	 2.5258257500000003e-01,	 2.5606600181641598e-02,	 1.6185486143434891e+03,	 3.2220758696642912e+02,	 4.4409120864765032e+02,	 3.2715535532930821e+03,	 4.2292667158267955e+02,	 3.9021144060834656e+00 
7.3156310000000002e-01,	 2.5309194999999995e-01,	 2.5704075315352057e-02,	 1.6176902830409547e+03,	 3.2435892354474350e+02,	 4.4477983005616983e+02,	 3.2890994650938605e+03,	 4.2325444608267367e+02,	 3.8980997385965122e+00 
7.3584807500000005e-01,	 2.5360134999999995e-01,	 2.5790386430436928e-02,	 1.6169116489936853e+03,	 3.2635784746465134e+02,	 4.4538456003537971e+02,	 3.3046307854013303e+03,	 4.2354208020425813e+02,	 3.8945809982549773e+00 
7.4013305000000007e-01,	 2.5411075000000000e-01,	 2.5867864352989059e-02,	 1.6161958809749676e+03,	 3.2823688140950156e+02,	 4.4592290554927331e+02,	 3.3185647329087433e+03,	 4.2379797493006294e+02,	 3.8914538918360342e+00 
7.4441802500000009e-01,	 2.5462012499999997e-01,	 2.5938285829236608e-02,	 1.6155300359487342e+03,	 3.3002046093664001e+02,	 4.4640842948428713e+02,	 3.3312221526744997e+03,	 4.2402862924162429e+02,	 3.8886379310643102e+00 
7.4870300000000001e-01,	 2.5512950000000001e-01,	 2.6003068354240936e-02,	 1.6149039076343875e+03,	 3.3172790911472646e+02,	 4.4685174122392675e+02,	 3.3428584687266380e+03,	 4.2423912058969074e+02,	 3.8860703619994896e+00 
7.5298799999999999e-01,	 2.5563890000000000e-01,	 2.6063291959220219e-02,	 1.6143096353451033e+03,	 3.3337389578895943e+02,	 4.4726104767086804e+02,	 3.3536696700977550e+03,	 4.2443337300699426e+02,	 3.8837027607359365e+00 
7.5727297500000001e-01,	 2.5614830000000000e-01,	 2.6119806006785467e-02,	 1.6137411573656839e+03,	 3.3496982067622366e+02,	 4.4764262917065849e+02,	 3.3638089550431655e+03,	 4.2461438742280711e+02,	 3.8814981346244597e+00 
7.6155795000000004e-01,	 2.5665769999999999e-01,	 2.6173239782888050e-02,	 1.6131938736912684e+03,	 3.3652420122252823e+02,	 4.4800129053526132e+02,	 3.3733910350871806e+03,	 4.2478445867252094e+02,	 3.8794282164477267e+00 
7.6584292500000006e-01,	 2.5716709999999998e-01,	 2.6224078566106535e-02,	 1.6126642483367505e+03,	 3.3804350367319495e+02,	 4.4834075103804389e+02,	 3.3825045527237107e+03,	 4.2494536249566397e+02,	 3.8774711459961253e+00 
7.7012789999999998e-01,	 2.5767649999999998e-01,	 2.6272722084683644e-02,	 1.6121494662128810e+03,	 3.3953310550067880e+02,	 4.4866389119839835e+02,	 3.3912212731999575e+03,	 4.2509847391648867e+02,	 3.8756100013822232e+00 
7.7441287500000000e-01,	 2.5818587499999995e-01,	 2.6319436590017339e-02,	 1.6116475323070524e+03,	 3.4099659287422350e+02,	 4.4897284428268023e+02,	 3.3995904426327838e+03,	 4.2524481161533697e+02,	 3.8738322388707678e+00 
7.7869785000000002e-01,	 2.5869524999999999e-01,	 2.6364455216656580e-02,	 1.6111568104556945e+03,	 3.4243705377168277e+02,	 4.4926931119428639e+02,	 3.4076540087497592e+03,	 4.2538518782356959e+02,	 3.8721278566584627e+00 
7.8298282500000005e-01,	 2.5920464999999998e-01,	 2.6407934765612342e-02,	 1.6106761055927452e+03,	 3.4385663135223325e+02,	 4.4955458690305710e+02,	 3.4154411704896193e+03,	 4.2552022131028178e+02,	 3.8704892275272327e+00 
7.8726782500000003e-01,	 2.5971404999999997e-01,	 2.6450028391304233e-02,	 1.6102043750594466e+03,	 3.4525741825701454e+02,	 4.4982972389707766e+02,	 3.4229789579843223e+03,	 4.2565041511785233e+02,	 3.8689101480318975e+00 
7.9155282500000002e-01,	 2.6022342500000001e-01,	 2.6490821481296077e-02,	 1.6097409376277665e+03,	 3.4664060890848111e+02,	 4.5009549108200952e+02,	 3.4302835905699558e+03,	 4.2577613736632213e+02,	 3.8673860661465063e+00 
7.9583780000000004e-01,	 2.6073282500000000e-01,	 2.6530405105356366e-02,	 1.6092851712047191e+03,	 3.4800738405738497e+02,	 4.5035255857878036e+02,	 3.4373713541203470e+03,	 4.2589770888189361e+02,	 3.8659130147098795e+00 
8.0012277500000006e-01,	 2.6124222499999999e-01,	 2.6568843511945207e-02,	 1.6088365715595630e+03,	 3.4935877225001957e+02,	 4.5060145243477552e+02,	 3.4442540328595978e+03,	 4.2601538189049819e+02,	 3.8644878673091121e+00 
8.0440772500000002e-01,	 2.6175159999999997e-01,	 2.6606191145223321e-02,	 1.6083947705629653e+03,	 3.5069545646167427e+02,	 4.5084259433653642e+02,	 3.4509413990252115e+03,	 4.2612935890758740e+02,	 3.8631081071725464e+00 
8.0869270000000015e-01,	 2.6226097500000001e-01,	 2.6642491473312650e-02,	 1.6079593942431179e+03,	 3.5201819514188685e+02,	 4.5107638383486750e+02,	 3.4574416791560052e+03,	 4.2623983167378327e+02,	 3.8617713543678391e+00 
8.1297767499999996e-01,	 2.6277037500000000e-01,	 2.6677783576276023e-02,	 1.6075302068812007e+03,	 3.5332737206237476e+02,	 4.5130312587592039e+02,	 3.4637618460773037e+03,	 4.2634694695473326e+02,	 3.8604757787368738e+00 
8.1726264999999998e-01,	 2.6327977499999999e-01,	 2.6712104920277500e-02,	 1.6071068918541669e+03,	 3.5462373298065319e+02,	 4.5152312397424447e+02,	 3.4699086871561826e+03,	 4.2645085061091049e+02,	 3.8592195657649326e+00 
8.2154762500000000e-01,	 2.6378915000000003e-01,	 2.6745480067366104e-02,	 1.6066893011960201e+03,	 3.5590750845577321e+02,	 4.5173658964245232e+02,	 3.4758866379056035e+03,	 4.2655164484952974e+02,	 3.8580014328428787e+00 
8.2583260000000003e-01,	 2.6429855000000002e-01,	 2.6777930804481383e-02,	 1.6062772123131356e+03,	 3.5717913823666976e+02,	 4.5194377723863084e+02,	 3.4817001281269031e+03,	 4.2664945193547589e+02,	 3.8568198585102782e+00 
8.3011760000000001e-01,	 2.6480795000000001e-01,	 2.6809493232056926e-02,	 1.6058704240770644e+03,	 3.5843905709524404e+02,	 4.5214490553062984e+02,	 3.4873551999319138e+03,	 4.2674437716164215e+02,	 3.8556735298394069e+00 
8.3440259999999999e-01,	 2.6531732499999999e-01,	 2.6840179919390937e-02,	 1.6054687750780358e+03,	 3.5968760025850429e+02,	 4.5234016251080328e+02,	 3.4928546213954510e+03,	 4.2683651114727428e+02,	 3.8545613141499855e+00 
8.3868757500000002e-01,	 2.6582669999999997e-01,	 2.6870013335359690e-02,	 1.6050721394288357e+03,	 3.6092499016511493e+02,	 4.5252971758177011e+02,	 3.4982023241889615e+03,	 4.2692593560847001e+02,	 3.8534821889297639e+00 
8.4297255000000004e-01,	 2.6633609999999996e-01,	 2.6899007971454156e-02,	 1.6046803503464755e+03,	 3.6215156060587623e+02,	 4.5271376352691806e+02,	 3.5034014011975783e+03,	 4.2701274316695429e+02,	 3.8524350026104117e+00 
8.4725752500000007e-01,	 2.6684549999999996e-01,	 2.6927193832109182e-02,	 1.6042932525687420e+03,	 3.6336764279449102e+02,	 4.5289247339042339e+02,	 3.5084568312564402e+03,	 4.2709701701243142e+02,	 3.8514187198923553e+00 
5.4237595000000005e-01,	 2.3371542500000000e-01,	 1.1586409723556542e-02,	 1.7359999797184066e+03,	 7.5942904748491118e-05,	 3.0000003496668268e+02,	 1.0000002877074119e+03,	 3.4760790100037121e+02,	 4.9941326843331861e+00 
5.4666999999999999e-01,	 2.3420315000000000e-01,	 1.1586411395271458e-02,	 1.7359999627107209e+03,	 1.3974887483409235e-04,	 3.0000006428890487e+02,	 1.0000005297306175e+03,	 3.4760791798809566e+02,	 4.9941323913403446e+00 
5.5096402500000008e-01,	 2.3469085000000001e-01,	 1.1586414451072677e-02,	 1.7359999316928231e+03,	 2.5620494001211237e-04,	 3.0000011776552100e+02,	 1.0000009717263405e+03,	 3.4760794896957964e+02,	 4.9941318569926185e+00 
5.5525807500000002e-01,	 2.3517854999999999e-01,	 1.1586420020491432e-02,	 1.7359998753040516e+03,	 4.6812273789385329e-04,	 3.0000021498292449e+02,	 1.0000017764704323e+03,	 3.4760800529212332e+02,	 4.9941308855796134e+00 
5.5955212499999996e-01,	 2.3566627499999998e-01,	 1.1586430132915285e-02,	 1.7359997731548090e+03,	 8.5231881029791722e-04,	 3.0000039109382186e+02,	 1.0000032362918747e+03,	 3.4760810732129818e+02,	 4.9941291258503746e+00 
5.6384615000000005e-01,	 2.3615399999999998e-01,	 1.1586448444326953e-02,	 1.7359995886457418e+03,	 1.5469466506928620e-03,	 3.0000070919717427e+02,	 1.0000058770639932e+03,	 3.4760829161318281e+02,	 4.9941259473126856e+00 
5.6814017500000003e-01,	 2.3664169999999998e-01,	 1.1586481478480265e-02,	 1.7359992565535372e+03,	 2.7981682079970547e-03,	 3.0000128174033324e+02,	 1.0000106366726943e+03,	 3.4760862331348937e+02,	 4.9941202263851450e+00 
5.7243422500000007e-01,	 2.3712940000000002e-01,	 1.1586540918295479e-02,	 1.7359986605238691e+03,	 5.0460534562410840e-03,	 3.0000230932036521e+02,	 1.0000191921339738e+03,	 3.4760921863656984e+02,	 4.9941099587068578e+00 
5.7672827500000001e-01,	 2.3761712499999998e-01,	 1.1586647498739692e-02,	 1.7359975942625508e+03,	 9.0706049050059932e-03,	 3.0000414758596600e+02,	 1.0000345186315132e+03,	 3.4761028362352232e+02,	 4.9940915907033752e+00 
5.8102232500000006e-01,	 2.3810487499999999e-01,	 1.1586838092746712e-02,	 1.7359956920916209e+03,	 1.6256672738310388e-02,	 3.0000742694125574e+02,	 1.0000619002420847e+03,	 3.4761218348810149e+02,	 4.9940588236809038e+00 
5.8531637500000000e-01,	 2.3859259999999999e-01,	 1.1587177909203248e-02,	 1.7359923091542084e+03,	 2.9049027489164173e-02,	 3.0001325901183503e+02,	 1.0001106713837924e+03,	 3.4761556221934916e+02,	 4.9940005513959784e+00 
5.8961042499999994e-01,	 2.3908029999999997e-01,	 1.1587781834067192e-02,	 1.7359863104252563e+03,	 5.1749817435529769e-02,	 3.0002360019083233e+02,	 1.0001972719360656e+03,	 3.4762155316086046e+02,	 4.9938972293621502e+00 
5.9390447499999999e-01,	 2.3956799999999998e-01,	 1.1588852457887492e-02,	 1.7359757020912211e+03,	 9.1931420401404340e-02,	 3.0004188650147239e+02,	 1.0003506498656081e+03,	 3.4763214669224504e+02,	 4.9937145371721057e+00 
5.9819849999999997e-01,	 2.4005572500000000e-01,	 1.1590743386308311e-02,	 1.7359570064674153e+03,	 1.6279255271400708e-01,	 3.0007410924375762e+02,	 1.0006213242882371e+03,	 3.4765081301992262e+02,	 4.9933926488502678e+00 
6.0249252500000006e-01,	 2.4054344999999999e-01,	 1.1594073282210789e-02,	 1.7359241572434062e+03,	 2.8738618016971096e-01,	 3.0013071340367105e+02,	 1.0010975973954847e+03,	 3.4768360084414365e+02,	 4.9928273200618589e+00 
6.0678657499999999e-01,	 2.4103115000000000e-01,	 1.1599912291126190e-02,	 1.7358666580703837e+03,	 5.0553482562839902e-01,	 3.0022975341759695e+02,	 1.0019322884838639e+03,	 3.4774096209848432e+02,	 4.9918385260347380e+00 
6.1108062500000004e-01,	 2.4151885000000001e-01,	 1.1610108924445438e-02,	 1.7357664115208270e+03,	 8.8589336439263211e-01,	 3.0040230316477209e+02,	 1.0033893561618245e+03,	 3.4784087557412306e+02,	 4.9901169168953690e+00 
6.1537465000000002e-01,	 2.4200657500000000e-01,	 1.1627794066051411e-02,	 1.7355926910810442e+03,	 1.5445164369174369e+00,	 3.0070095704543138e+02,	 1.0059168416109561e+03,	 3.4801374079390706e+02,	 4.9871403765832154e+00 
6.1966867500000000e-01,	 2.4249430000000000e-01,	 1.1658228073906698e-02,	 1.7352937586567816e+03,	 2.6758530351079020e+00,	 3.0121379752590855e+02,	 1.0102697428479321e+03,	 3.4831038019248501e+02,	 4.9820387804763477e+00 
6.2396275000000001e-01,	 2.4298199999999998e-01,	 1.1709931465549057e-02,	 1.7347852382008334e+03,	 4.5932416183630664e+00,	 3.0208311004439889e+02,	 1.0176788166327717e+03,	 3.4881263544307888e+02,	 4.9734188006597089e+00 
6.2825682500000002e-01,	 2.4346969999999998e-01,	 1.1796238018699811e-02,	 1.7339343028357823e+03,	 7.7816728837343350e+00,	 3.0352919282628534e+02,	 1.0300870595926167e+03,	 3.4964652802175567e+02,	 4.9591562488236116e+00 
6.3255085000000000e-01,	 2.4395742500000001e-01,	 1.1936536977404166e-02,	 1.7325465085914948e+03,	 1.2928829119704575e+01,	 3.0586509303404387e+02,	 1.0503600640973934e+03,	 3.5098935445874736e+02,	 4.9363170862233794e+00 
6.3684487499999998e-01,	 2.4444515000000000e-01,	 1.2156716111017421e-02,	 1.7303647624386365e+03,	 2.0900844031316954e+01,	 3.0948278466390241e+02,	 1.0823873509554887e+03,	 3.5305895751312994e+02,	 4.9014221286743958e+00 
6.4113892500000003e-01,	 2.4493284999999998e-01,	 1.2486550634179350e-02,	 1.7271064446404514e+03,	 3.2563086156287483e+01,	 3.1476719494471433e+02,	 1.1307377304154375e+03,	 3.5606043534019153e+02,	 4.8514612133559112e+00 
6.4543297500000008e-01,	 2.4542054999999996e-01,	 1.2954367959734790e-02,	 1.7225414281508799e+03,	 4.8476187998857867e+01,	 3.2194652043141116e+02,	 1.1998581390728805e+03,	 3.6009812031524638e+02,	 4.7854273887654628e+00 
6.4972699999999994e-01,	 2.4590827499999998e-01,	 1.3578523336752624e-02,	 1.7165926711154650e+03,	 6.8549703418752628e+01,	 3.3093895599006970e+02,	 1.2927971112322177e+03,	 3.6509251797475139e+02,	 4.7055493034886000e+00 
6.5402102500000003e-01,	 2.4639599999999998e-01,	 1.4360884878849971e-02,	 1.7093885610595401e+03,	 9.1955181803830115e+01,	 3.4132920892800161e+02,	 1.4102126057185917e+03,	 3.7077949933351823e+02,	 4.6169222000654315e+00 
6.5831507499999997e-01,	 2.4688369999999998e-01,	 1.5283270806245015e-02,	 1.7012358439411614e+03,	 1.1733150225926623e+02,	 3.5249929883574987e+02,	 1.5499029448321046e+03,	 3.7679758906851981e+02,	 4.5257113526293491e+00 
6.6260912500000002e-01,	 2.4737139999999999e-01,	 1.6310438540497969e-02,	 1.6925230442685572e+03,	 1.4321544904054639e+02,	 3.6383336681879985e+02,	 1.7072538504826318e+03,	 3.8280733366743988e+02,	 4.4371444477106747e+00 
6.6690317499999996e-01,	 2.4785912499999999e-01,	 1.7393468434752514e-02,	 1.6836217194653345e+03,	 1.6836308831804104e+02,	 3.7486529698336727e+02,	 1.8758208918543435e+03,	 3.8856761831333074e+02,	 4.3545033059925471e+00 
6.7119722500000001e-01,	 2.4834687499999999e-01,	 1.8477533207862658e-02,	 1.6748332912416593e+03,	 1.9190113934306325e+02,	 3.8531075293386357e+02,	 2.0482598783348612e+03,	 3.9394405517518385e+02,	 4.2792659641081237e+00 
6.7549127500000006e-01,	 2.4883459999999999e-01,	 1.9515989649031534e-02,	 1.6664602744284166e+03,	 2.1317663763274561e+02,	 3.9492340402558870e+02,	 2.2173455994671449e+03,	 3.9882779960565585e+02,	 4.2124443666304634e+00 
6.7978532500000000e-01,	 2.4932230000000002e-01,	 2.0476949646545384e-02,	 1.6587919279936743e+03,	 2.3178136928801462e+02,	 4.0347460075185523e+02,	 2.3769026800718530e+03,	 4.0312254470468190e+02,	 4.1548332231780538e+00 
6.8407934999999997e-01,	 2.4980999999999998e-01,	 2.1341127941756396e-02,	 1.6519776214680371e+03,	 2.4770619609834864e+02,	 4.1088568530076532e+02,	 2.5227157475714962e+03,	 4.0680800689150374e+02,	 4.1062259036552913e+00 
6.8837337500000007e-01,	 2.5029772499999997e-01,	 2.2100268381447307e-02,	 1.6460492316636210e+03,	 2.6115331930595664e+02,	 4.1719661563773155e+02,	 2.6525786018442077e+03,	 4.0992025188492130e+02,	 4.0657592889846645e+00 
6.9266742500000000e-01,	 2.5078544999999997e-01,	 2.2755066173446758e-02,	 1.6409702214553593e+03,	 2.7241918461091353e+02,	 4.2250169212676059e+02,	 2.7659001184964804e+03,	 4.1251829387909186e+02,	 4.0323759137418982e+00 
6.9696147499999994e-01,	 2.5127314999999995e-01,	 2.3311779219926790e-02,	 1.6366679880736481e+03,	 2.8181684979301360e+02,	 4.2691742431325861e+02,	 2.8631838741884135e+03,	 4.1466838648723041e+02,	 4.0050164191208566e+00 
7.0125550000000003e-01,	 2.5176084999999998e-01,	 2.3780178336972213e-02,	 1.6330507051223760e+03,	 2.8965177464469451e+02,	 4.3056718444113778e+02,	 2.9456827521120867e+03,	 4.1643713516361913e+02,	 3.9826883918190905e+00 
7.0554954999999997e-01,	 2.5224857499999997e-01,	 2.4171337431111269e-02,	 1.6300224650406387e+03,	 2.9619651664553282e+02,	 4.3356995579782586e+02,	 3.0150172329164370e+03,	 4.1788672646108836e+02,	 3.9645080914793955e+00 
7.0984362499999998e-01,	 2.5273630000000002e-01,	 2.4496670690036446e-02,	 1.6274896700025386e+03,	 3.0169171502903487e+02,	 4.3603542557824125e+02,	 3.0729732254064625e+03,	 4.1907318618346483e+02,	 3.9497066591182777e+00 
7.1413767499999992e-01,	 2.5322400000000000e-01,	 2.4766904178234402e-02,	 1.6253671858623991e+03,	 3.0634008343093956e+02,	 4.3806029000706712e+02,	 3.1213002539605154e+03,	 4.2004510666765657e+02,	 3.9376340111392185e+00 
7.1843170000000001e-01,	 2.5371169999999998e-01,	 2.4991792148558692e-02,	 1.6235796671017840e+03,	 3.1031209949176326e+02,	 4.3972783944810465e+02,	 3.1616318625334684e+03,	 4.2084383309123723e+02,	 3.9277477082217969e+00 
7.2272572499999999e-01,	 2.5419942499999998e-01,	 2.5179739537695433e-02,	 1.6220631068644996e+03,	 3.1374584064136366e+02,	 4.4110795904730003e+02,	 3.1954061360968608e+03,	 4.2150374105131988e+02,	 3.9196033356351583e+00 
7.2701977500000003e-01,	 2.5468714999999997e-01,	 2.5337964447856413e-02,	 1.6207633726063464e+03,	 3.1675483799668081e+02,	 4.4225880603917079e+02,	 3.2238746627741484e+03,	 4.2205323275515008e+02,	 3.9128379602021539e+00 
7.3131382499999997e-01,	 2.5517484999999995e-01,	 2.5472407655889248e-02,	 1.6196362490243043e+03,	 3.1942907433624538e+02,	 4.4322760750734767e+02,	 3.2480801515054095e+03,	 4.2251524968624381e+02,	 3.9071609764888455e+00 
7.3560784999999995e-01,	 2.5566254999999993e-01,	 2.5587977159947480e-02,	 1.6186456186958444e+03,	 3.2184092939772688e+02,	 4.4405253818410836e+02,	 3.2688895642011325e+03,	 4.2290825743017490e+02,	 3.9023401017074666e+00 
7.3990187500000004e-01,	 2.5615027499999998e-01,	 2.5688582357772577e-02,	 1.6177627153756782e+03,	 3.2404672721632710e+02,	 4.4476397908018242e+02,	 3.2869998370052663e+03,	 4.2324690408618170e+02,	 3.8981920565307777e+00 
7.4419592499999998e-01,	 2.5663799999999998e-01,	 2.5777379769232292e-02,	 1.6169644930887407e+03,	 3.2609125554020761e+02,	 4.4538607275862455e+02,	 3.3029754054752862e+03,	 4.2354279947190162e+02,	 3.8945722041774253e+00 
7.4848999999999999e-01,	 2.5712570000000001e-01,	 2.5856827857185238e-02,	 1.6162329760684954e+03,	 3.2800881394785324e+02,	 4.4593768370076521e+02,	 3.3172588032198623e+03,	 4.2380499733091841e+02,	 3.8913681205528166e+00 
7.5278405000000004e-01,	 2.5761339999999999e-01,	 2.5928880755426285e-02,	 1.6155540308355164e+03,	 3.2982634305361671e+02,	 4.4643353486375850e+02,	 3.3302015459090371e+03,	 4.2404055245955027e+02,	 3.8884924350618788e+00 
7.5707807499999991e-01,	 2.5810112499999999e-01,	 2.5995022486575172e-02,	 1.6149168096221692e+03,	 3.3156415317461182e+02,	 4.4688498440267426e+02,	 3.3420727340226058e+03,	 4.2425490076164687e+02,	 3.8858779614666870e+00 
7.6137212499999996e-01,	 2.5858887500000000e-01,	 2.6056425154165525e-02,	 1.6143128268984833e+03,	 3.3323818752374791e+02,	 4.4730085216975118e+02,	 3.3530844753527513e+03,	 4.2445225904898638e+02,	 3.8834726689627610e+00 
7.6566617500000000e-01,	 2.5907659999999999e-01,	 2.6113975157589665e-02,	 1.6137356532915235e+03,	 3.3486043794996965e+02,	 4.4768783211609286e+02,	 3.3633976374308386e+03,	 4.2463582565859065e+02,	 3.8812371360851210e+00 
7.6996019999999998e-01,	 2.5956429999999997e-01,	 2.6168344161979488e-02,	 1.6131803755577964e+03,	 3.3643992550492186e+02,	 4.4805107794089696e+02,	 3.3731348755885269e+03,	 4.2480806164984403e+02,	 3.8791410564710578e+00 
7.7425422499999996e-01,	 2.6005200000000001e-01,	 2.6220063967056510e-02,	 1.6126432011383840e+03,	 3.3798376834234642e+02,	 4.4839451183677056e+02,	 3.3823922669084659e+03,	 4.2497083945402630e+02,	 3.8771613835014733e+00 
7.7854827500000001e-01,	 2.6053972500000000e-01,	 2.6269511940320209e-02,	 1.6121213403286770e+03,	 3.3949702323517124e+02,	 4.4872108820172235e+02,	 3.3912391854242805e+03,	 4.2512556945998500e+02,	 3.8752807581112418e+00 
7.8284232500000006e-01,	 2.6102744999999999e-01,	 2.6316997396377998e-02,	 1.6116125621839712e+03,	 3.4098390475241638e+02,	 4.4903311223413414e+02,	 3.3997316827900668e+03,	 4.2527335206492143e+02,	 3.8734856381516933e+00 
7.8713637500000000e-01,	 2.6151514999999997e-01,	 2.6362743013838737e-02,	 1.6111152080366026e+03,	 3.4244741941567486e+02,	 4.4933235203221739e+02,	 3.4079108295720957e+03,	 4.2541503150236468e+02,	 3.8717656294988885e+00 
7.9143042499999994e-01,	 2.6200285000000001e-01,	 2.6406933102529683e-02,	 1.6106280007613263e+03,	 3.4388999074301620e+02,	 4.4962014154804336e+02,	 3.4158096467594160e+03,	 4.2555124514032832e+02,	 3.8701128762608916e+00 
7.9572447500000010e-01,	 2.6249057500000000e-01,	 2.6449690209265263e-02,	 1.6101499938739778e+03,	 3.4531332188053170e+02,	 4.4989751494993220e+02,	 3.4234510421857690e+03,	 4.2568248747900066e+02,	 3.8685212760360748e+00 
8.0001852500000004e-01,	 2.6297830000000000e-01,	 2.6491133697580781e-02,	 1.6096803372266586e+03,	 3.4671910980492009e+02,	 4.5016534165835373e+02,	 3.4308563732486955e+03,	 4.2580917430559168e+02,	 3.8669856965598948e+00 