TITLE = "Final State"
VARIABLES = "X", "Y", "rho", "u", "v", "T", "p", "c", "M"
ZONE I=101, J=26, DATAPACKING=POINT
1.0002499999999999e+00,	 2.6838465000000000e-01,	 2.9484197800105201e-02,	 1.5769558298999357e+03,	 3.3027732894931427e+02,	 5.0747442507514944e+02,	 4.3046060701744345e+03,	 4.5210162359794481e+02,	 3.5637369298534503e+00 
1.0007500000000000e+00,	 2.6837419999999995e-01,	 2.5610384500527775e-02,	 1.5882893946844815e+03,	 2.7796528976988890e+02,	 5.0546082321892180e+02,	 3.7242046377371412e+03,	 4.5120378770323327e+02,	 3.5736162623167433e+00 
1.0012494999999999e+00,	 2.6836375000000001e-01,	 2.2707594002730942e-02,	 1.5981267636799146e+03,	 2.3094324085865048e+02,	 5.0177831704879623e+02,	 3.2780301879266613e+03,	 4.4955717333492601e+02,	 3.5918172296301805e+00 
1.0017490000000000e+00,	 2.6835327500000000e-01,	 2.0516854384023203e-02,	 1.6064131256499666e+03,	 1.8904764046906158e+02,	 4.9733002664073621e+02,	 2.9355223712420143e+03,	 4.4756006371108720e+02,	 3.6140372228529625e+00 
1.0022495000000000e+00,	 2.6834282500000001e-01,	 1.8873076914545799e-02,	 1.6130725284465702e+03,	 1.5181462922194541e+02,	 4.9298585713411683e+02,	 2.6767456626311041e+03,	 4.4560106151084716e+02,	 3.6359895647074723e+00 
1.0027499999999998e+00,	 2.6833237499999996e-01,	 1.7659265998605310e-02,	 1.6180527568494040e+03,	 1.1857001686752889e+02,	 4.8945883419881943e+02,	 2.4866734487672034e+03,	 4.4400419388218717e+02,	 3.6539999744650418e+00 
1.0032500000000000e+00,	 2.6832190000000000e-01,	 1.6793505726611726e-02,	 1.6213767905142556e+03,	 8.8740122937585070e+01,	 4.8718263471433721e+02,	 2.3537650176557286e+03,	 4.4297058311709333e+02,	 3.6657138631700041e+00 
1.0037505000000000e+00,	 2.6831139999999998e-01,	 1.6217090956003950e-02,	 1.6231042242519090e+03,	 6.1835024853343050e+01,	 4.8641128442691212e+02,	 2.2693763871810779e+03,	 4.4261976925794232e+02,	 3.6696997452327214e+00 
1.0042515000000001e+00,	 2.6830094999999998e-01,	 1.5890290881620035e-02,	 1.6233328738771377e+03,	 3.7663284231367228e+01,	 4.8723694046297402e+02,	 2.2274193709321603e+03,	 4.4299527116741916e+02,	 3.6654335556868123e+00 
1.0047527500000000e+00,	 2.6829049999999999e-01,	 1.5775635836601427e-02,	 1.6222344125984880e+03,	 1.5971519774668629e+01,	 4.8958495753639261e+02,	 2.2220042007095249e+03,	 4.4406139550969766e+02,	 3.6533530047103842e+00 
1.0052542500000001e+00,	 2.6827999999999996e-01,	 1.5848537846351259e-02,	 1.6200005243244857e+03,	 -3.2209495264540577e+00,	 4.9330295576883799e+02,	 2.2492247638516151e+03,	 4.4574434835347347e+02,	 3.6343786125734425e+00 
1.0057560000000001e+00,	 2.6826949999999999e-01,	 1.6091740471126770e-02,	 1.6168383921094851e+03,	 -2.0049699903058794e+01,	 4.9819094504887198e+02,	 2.3063689719676399e+03,	 4.4794727750202622e+02,	 3.6097165498833785e+00 
1.0062584999999999e+00,	 2.6825897499999996e-01,	 1.6484664812402364e-02,	 1.6129357531642422e+03,	 -3.4557217151895962e+01,	 5.0405652998918043e+02,	 2.3905030588309519e+03,	 4.5057657477502966e+02,	 3.5805365745449258e+00 
1.0067615000000001e+00,	 2.6824844999999997e-01,	 1.7012603012812676e-02,	 1.6084268266823615e+03,	 -4.6516653038529903e+01,	 5.1078754893649676e+02,	 2.5000057505751697e+03,	 4.5357502972967416e+02,	 3.5475924051174119e+00 
1.0072645000000000e+00,	 2.6823792499999999e-01,	 1.7655178583190601e-02,	 1.6034794309421111e+03,	 -5.5998671092718659e+01,	 5.1819549377093290e+02,	 2.6320593890182208e+03,	 4.5685228622700015e+02,	 3.5119818996420440e+00 
1.0077680000000000e+00,	 2.6822737499999999e-01,	 1.8397123270202573e-02,	 1.5982330442137702e+03,	 -6.3275733047991359e+01,	 5.2610542903596718e+02,	 2.7845347318038475e+03,	 4.6032586539606797e+02,	 3.4746801136427590e+00 
1.0082724999999999e+00,	 2.6821685000000001e-01,	 1.9228122484870082e-02,	 1.5927670579334392e+03,	 -6.8443487140590193e+01,	 5.3442841094650373e+02,	 2.9563534488590094e+03,	 4.6395275233645521e+02,	 3.4362053659997938e+00 
1.0087774999999999e+00,	 2.6820630000000001e-01,	 2.0125302025586451e-02,	 1.5872399973015413e+03,	 -7.1973243433408030e+01,	 5.4290988733052791e+02,	 3.1434032301460452e+03,	 4.6761976796723366e+02,	 3.3977840075468260e+00 
1.0092829999999999e+00,	 2.6819569999999993e-01,	 2.1081203523847417e-02,	 1.5816964926609289e+03,	 -7.4078828439374632e+01,	 5.5148026495632246e+02,	 3.3446857056679514e+03,	 4.7129623933444077e+02,	 3.3597346062411964e+00 
1.0097890000000000e+00,	 2.6818510000000001e-01,	 2.2080301997394795e-02,	 1.5762193111827105e+03,	 -7.5054278739588341e+01,	 5.5999677419345107e+02,	 3.5572998317426195e+03,	 4.7492141077663524e+02,	 3.3226659825947071e+00 
1.0102955000000000e+00,	 2.6817449999999998e-01,	 2.3113153309109846e-02,	 1.5708455582419876e+03,	 -7.5126542365310428e+01,	 5.6838898964715463e+02,	 3.7795038666956261e+03,	 4.7846680732448255e+02,	 3.2868340957598026e+00 
1.0108030000000001e+00,	 2.6816387500000000e-01,	 2.4165266163308444e-02,	 1.5656380605544753e+03,	 -7.4580089995114250e+01,	 5.7654004672731867e+02,	 4.0082149115252923e+03,	 4.8188535302337380e+02,	 3.2526686636146911e+00 
1.0113115000000001e+00,	 2.6815325000000001e-01,	 2.5232992890545342e-02,	 1.5605774150684633e+03,	 -7.3413737462908898e+01,	 5.8448167575072148e+02,	 4.2429664998156086e+03,	 4.8519289947457514e+02,	 3.2199631358803762e+00 
1.0118205000000000e+00,	 2.6814260000000001e-01,	 2.6295985635724571e-02,	 1.5557443050566869e+03,	 -7.1958013869169605e+01,	 5.9206571458927908e+02,	 4.4790849976718773e+03,	 4.8833060426241076e+02,	 3.1892483153137974e+00 
1.0123305000000000e+00,	 2.6813192499999994e-01,	 2.7358820688634683e-02,	 1.5511433206991160e+03,	 -7.0256680478218883e+01,	 5.9928406116498491e+02,	 4.7169365858546507e+03,	 4.9129840041902554e+02,	 3.1604694600949497e+00 
1.0128415000000000e+00,	 2.6812124999999998e-01,	 2.8407805935028004e-02,	 1.5468247929443196e+03,	 -6.8440103441097605e+01,	 6.0605248370979348e+02,	 4.9531087717136797e+03,	 4.9406501716808441e+02,	 3.1338752666740670e+00 
1.0133529999999999e+00,	 2.6811055000000000e-01,	 2.9439338029020455e-02,	 1.5427716621586553e+03,	 -6.6526594848795938e+01,	 6.1239892122515903e+02,	 5.1867151160526937e+03,	 4.9664514583167062e+02,	 3.1092730322905142e+00 
1.0138655000000001e+00,	 2.6809982500000001e-01,	 3.0446588852002084e-02,	 1.5389697559668341e+03,	 -6.4546722994382264e+01,	 6.1834572783352655e+02,	 5.4162654969971600e+03,	 4.9905069973757799e+02,	 3.0865055508374630e+00 
1.0143789999999999e+00,	 2.6808907500000001e-01,	 3.1421390342085603e-02,	 1.5354397066876727e+03,	 -6.2618947394346165e+01,	 6.2385653641172485e+02,	 5.6394930413438815e+03,	 5.0126958182735541e+02,	 3.0656479228483140e+00 
1.0148934999999999e+00,	 2.6807829999999999e-01,	 3.2363569493785049e-02,	 1.5321335616152974e+03,	 -6.0674205727016727e+01,	 6.2901163488676195e+02,	 5.8565928324388997e+03,	 5.0333638531387334e+02,	 3.0463414109749256e+00 
1.0154090000000000e+00,	 2.6806749999999996e-01,	 3.3270630889371072e-02,	 1.5290446269427787e+03,	 -5.8748907367584778e+01,	 6.3382117156070467e+02,	 6.0667725841988840e+03,	 5.0525702142044383e+02,	 3.0285038509810391e+00 
1.0159259999999999e+00,	 2.6805669999999998e-01,	 3.4142748512496782e-02,	 1.5261529283855764e+03,	 -5.6846537128636385e+01,	 6.3831733453449738e+02,	 6.2699641143466179e+03,	 5.0704593562504226e+02,	 3.0119781489950910e+00 
1.0164439999999999e+00,	 2.6804587499999999e-01,	 3.4967998135068096e-02,	 1.5234900073413799e+03,	 -5.5093887886079187e+01,	 6.4244730162133112e+02,	 6.4630604377360241e+03,	 5.0868360595193508e+02,	 2.9969235153070497e+00 
1.0169630000000001e+00,	 2.6803500000000002e-01,	 3.5755799700239843e-02,	 1.5209935512031816e+03,	 -5.3373108916835832e+01,	 6.4631405038991352e+02,	 6.6484442364793804e+03,	 5.1021213670700621e+02,	 2.9829351560976844e+00 
1.0174829999999999e+00,	 2.6802409999999999e-01,	 3.6500753787998635e-02,	 1.5186762606671209e+03,	 -5.1740440918421676e+01,	 6.4989693856909548e+02,	 6.8245852305371209e+03,	 5.1162438093438374e+02,	 2.9700644563739065e+00 
1.0180039999999999e+00,	 2.6801320000000001e-01,	 3.7208037078772738e-02,	 1.5165104585102629e+03,	 -5.0166295767485181e+01,	 6.5324079070916275e+02,	 6.9926210396418319e+03,	 5.1293889807085554e+02,	 2.9581300814229294e+00 
1.0185270000000000e+00,	 2.6800227499999996e-01,	 3.7872613995656008e-02,	 1.5145112966555280e+03,	 -4.8729295349080466e+01,	 6.5632026724695857e+02,	 7.1510700859239669e+03,	 5.1414651255266335e+02,	 2.9472047125061467e+00 
1.0190509999999999e+00,	 2.6799132500000000e-01,	 3.8500874365776434e-02,	 1.5126307096927142e+03,	 -4.7312475413265751e+01,	 6.5921465668497262e+02,	 7.3017571524323284e+03,	 5.1527896513200335e+02,	 2.9369924981663362e+00 
1.0195759999999998e+00,	 2.6798032500000002e-01,	 3.9082807337645790e-02,	 1.5109217567637240e+03,	 -4.6107121414139968e+01,	 6.6183635248941857e+02,	 7.4415997413156165e+03,	 5.1630258028905462e+02,	 2.9277891505542875e+00 
1.0201030000000000e+00,	 2.6796929999999997e-01,	 3.9636668745692265e-02,	 1.5092993201809036e+03,	 -4.4879004762802062e+01,	 6.6432504272799008e+02,	 7.5754373134954185e+03,	 5.1727239068129632e+02,	 2.9190933798267156e+00 
1.0206310000000001e+00,	 2.6795827500000002e-01,	 4.0147776100421209e-02,	 1.5078214130361139e+03,	 -4.3819517004834950e+01,	 6.6658588156398037e+02,	 7.6992344029506230e+03,	 5.1815183683781243e+02,	 2.9112277547761471e+00 
1.0211605000000001e+00,	 2.6794720000000000e-01,	 4.0629967781405062e-02,	 1.5064281235971791e+03,	 -4.2788276424999992e+01,	 6.6871564646304284e+02,	 7.8166002150062850e+03,	 5.1897893321575486e+02,	 2.9038474962208660e+00 
1.0216915000000000e+00,	 2.6793610000000001e-01,	 4.1078566984078600e-02,	 1.5051384229436626e+03,	 -4.1844210590845762e+01,	 6.7068397089147606e+02,	 7.9261657396070004e+03,	 5.1974216369108399e+02,	 2.8970517869300343e+00 
1.0222240000000000e+00,	 2.6792495000000005e-01,	 4.1495541420957877e-02,	 1.5039451556864421e+03,	 -4.0998870724702947e+01,	 6.7250171512994973e+02,	 8.0283217487224183e+03,	 5.2044601162067454e+02,	 2.8907972219712033e+00 
1.0227585000000001e+00,	 2.6791375000000001e-01,	 4.1884935735601814e-02,	 1.5028332566355164e+03,	 -4.0208523934163821e+01,	 6.7419370278241547e+02,	 8.1240480359377234e+03,	 5.2110031109683234e+02,	 2.8849935815979286e+00 
1.0232939999999999e+00,	 2.6790255000000002e-01,	 4.2248316481930115e-02,	 1.5017974237595299e+03,	 -3.9472174011844849e+01,	 6.7576827976137417e+02,	 8.2136680586388757e+03,	 5.2170847017098947e+02,	 2.8796083432731954e+00 
1.0238309999999999e+00,	 2.6789132499999996e-01,	 4.2583547524366473e-02,	 1.5008495833099398e+03,	 -3.8838964769705996e+01,	 6.7720612861031361e+02,	 8.2964567929633395e+03,	 5.2226320124373137e+02,	 2.8747038518622823e+00 
1.0243700000000000e+00,	 2.6788004999999998e-01,	 4.2898126625626150e-02,	 1.4999547370027892e+03,	 -3.8227482945888504e+01,	 6.7856292181612002e+02,	 8.3744904073293128e+03,	 5.2278612075365368e+02,	 2.8700872623558822e+00 
1.0249109999999999e+00,	 2.6786872499999997e-01,	 4.3187836086969120e-02,	 1.4991370413171085e+03,	 -3.7708388767864086e+01,	 6.7980023211899777e+02,	 8.4464203384219418e+03,	 5.2326253497460959e+02,	 2.8658868409753611e+00 
1.0254535000000000e+00,	 2.6785737499999995e-01,	 4.3464086110148084e-02,	 1.4983448786595870e+03,	 -3.7151239786292074e+01,	 6.8100002179308524e+02,	 8.5154502445447215e+03,	 5.2372408838045305e+02,	 2.8618225147449627e+00 
1.0259974999999999e+00,	 2.6784597499999996e-01,	 4.3711982301187176e-02,	 1.4976467983530745e+03,	 -3.6753828073887725e+01,	 6.8205313366198675e+02,	 8.5772614413902629e+03,	 5.2412888057756436e+02,	 2.8582621084028350e+00 
1.0265435000000001e+00,	 2.6783455000000000e-01,	 4.3951944120430832e-02,	 1.4969621831076524e+03,	 -3.6291392143568771e+01,	 6.8308793246996174e+02,	 8.6374319834145172e+03,	 5.2452632936290354e+02,	 2.8547700035141741e+00 
1.0270915000000000e+00,	 2.6782312500000000e-01,	 4.4171971125077557e-02,	 1.4963405042520831e+03,	 -3.5914225516988523e+01,	 6.8402549127896566e+02,	 8.6925861538944046e+03,	 5.2488617004316063e+02,	 2.8516114978320766e+00 
1.0276415000000001e+00,	 2.6781159999999998e-01,	 4.4373441598401890e-02,	 1.4957669785066585e+03,	 -3.5605329221150036e+01,	 6.8488858404432904e+02,	 8.7432516520239678e+03,	 5.2521721226800400e+02,	 2.8487084186665590e+00 
1.0281932499999999e+00,	 2.6780004999999996e-01,	 4.4569350788991574e-02,	 1.4952071716345836e+03,	 -3.5244116122228164e+01,	 6.8573271656271436e+02,	 8.7926769240944777e+03,	 5.2554078051927104e+02,	 2.8458733286788283e+00 
1.0287467499999998e+00,	 2.6778847499999997e-01,	 4.4743708451919960e-02,	 1.4947136543439126e+03,	 -3.5005145534915933e+01,	 6.8647376588806708e+02,	 8.8366134780968478e+03,	 5.2582467136426703e+02,	 2.8433878772866064e+00 
1.0293025000000000e+00,	 2.6777684999999996e-01,	 4.4916082667849057e-02,	 1.4942185023612915e+03,	 -3.4692072892619457e+01,	 6.8721949819593476e+02,	 8.8802927485371947e+03,	 5.2611020158372583e+02,	 2.8408899425265521e+00 
1.0298605000000001e+00,	 2.6776519999999998e-01,	 4.5073333206766888e-02,	 1.4937678472730163e+03,	 -3.4450602896926746e+01,	 6.8789643264492645e+02,	 8.9201605348629582e+03,	 5.2636925597647303e+02,	 2.8386252478105143e+00 
1.0304205000000000e+00,	 2.6775347500000002e-01,	 4.5217543160980742e-02,	 1.4933593612524769e+03,	 -3.4268184225790016e+01,	 6.8850856009249378e+02,	 8.9566631953301439e+03,	 5.2660339981473976e+02,	 2.8365796476307525e+00 
1.0309824999999999e+00,	 2.6774169999999997e-01,	 4.5355746216321782e-02,	 1.4929615486346195e+03,	 -3.4069543378288841e+01,	 6.8910521248906230e+02,	 8.9918238203338515e+03,	 5.2683152416788141e+02,	 2.8345878423323967e+00 
1.0315465000000001e+00,	 2.6772989999999997e-01,	 4.5488373393079026e-02,	 1.4925787855972858e+03,	 -3.3862456802529159e+01,	 6.8967964454999606e+02,	 9.0256347194292375e+03,	 5.2705105949556332e+02,	 2.8326721514253110e+00 
1.0321130000000001e+00,	 2.6771807500000000e-01,	 4.5611212172044682e-02,	 1.4922292821584692e+03,	 -3.3701194652941211e+01,	 6.9020306688072219e+02,	 9.0568763072242564e+03,	 5.2725102042964966e+02,	 2.8309282248380279e+00 
1.0326817500000001e+00,	 2.6770617499999999e-01,	 4.5722279877726715e-02,	 1.4919149483428955e+03,	 -3.3603824874894393e+01,	 6.9067210332862089e+02,	 9.0851003806483004e+03,	 5.2743014013943935e+02,	 2.8293668342084697e+00 
1.0332527500000002e+00,	 2.6769419999999999e-01,	 4.5833028200719592e-02,	 1.4915924619558157e+03,	 -3.3451547484698239e+01,	 6.9115493453321608e+02,	 9.1134728194595391e+03,	 5.2761446439236624e+02,	 2.8277608366940030e+00 
1.0338259999999999e+00,	 2.6768219999999998e-01,	 4.5939026172736035e-02,	 1.4912845282203748e+03,	 -3.3303534050757165e+01,	 6.9161594566528811e+02,	 9.1406424208254466e+03,	 5.2779039860213720e+02,	 2.8262286600029118e+00 
1.0344015000000000e+00,	 2.6767017500000001e-01,	 4.6037477220685422e-02,	 1.4910034929811502e+03,	 -3.3195482070593492e+01,	 6.9203569475661288e+02,	 9.1657909988884003e+03,	 5.2795053511874778e+02,	 2.8248346722970457e+00 
1.0349794999999999e+00,	 2.6765810000000001e-01,	 4.6133509131626296e-02,	 1.4907239592407614e+03,	 -3.3069295383765123e+01,	 6.9245372663426599e+02,	 9.1904586351889138e+03,	 5.2810996824925041e+02,	 2.8234473843303927e+00 
1.0355600000000000e+00,	 2.6764595000000002e-01,	 4.6222499833340522e-02,	 1.4904652070183106e+03,	 -3.2979989877298834e+01,	 6.9283969696538236e+02,	 9.2133194615362081e+03,	 5.2825713070592963e+02,	 2.8221673783190986e+00 
1.0361430000000000e+00,	 2.6763372499999999e-01,	 4.6304289216671693e-02,	 1.4902319389262782e+03,	 -3.2934283841873189e+01,	 6.9318645210428019e+02,	 9.2342414428294869e+03,	 5.2838930627418995e+02,	 2.8210181439766879e+00 
1.0367285000000002e+00,	 2.6762147500000000e-01,	 4.6387299776899517e-02,	 1.4899936240820643e+03,	 -3.2847168331129453e+01,	 6.9354197071831845e+02,	 9.2555403492478672e+03,	 5.2852478797123092e+02,	 2.8198405728341602e+00 
1.0373170000000000e+00,	 2.6760919999999999e-01,	 4.6470546629263865e-02,	 1.4897494888605793e+03,	 -3.2729219248421387e+01,	 6.9390703935149077e+02,	 9.2770310840981310e+03,	 5.2866387287572093e+02,	 2.8186321140464701e+00 
1.0379079999999998e+00,	 2.6759685000000000e-01,	 4.6546161578285693e-02,	 1.4895285492890289e+03,	 -3.2664275278596691e+01,	 6.9423600427806571e+02,	 9.2965314623431605e+03,	 5.2878917155066540e+02,	 2.8175438119224032e+00 
1.0385012499999999e+00,	 2.6758442499999996e-01,	 4.6615834880548282e-02,	 1.4893305651538521e+03,	 -3.2641660459918647e+01,	 6.9452959245952070e+02,	 9.3143844427626773e+03,	 5.2890097059348943e+02,	 2.8165730613039393e+00 
1.0390972500000000e+00,	 2.6757195000000000e-01,	 4.6688663501520497e-02,	 1.4891152941183495e+03,	 -3.2561227578095135e+01,	 6.9485057778773512e+02,	 9.3332479277154907e+03,	 5.2902317549502084e+02,	 2.8155122781259223e+00 
1.0396960000000000e+00,	 2.6755942499999996e-01,	 4.6755508015371060e-02,	 1.4889237128941122e+03,	 -3.2528851291125598e+01,	 6.9513492995018908e+02,	 9.3504353022724517e+03,	 5.2913140991402895e+02,	 2.8145730439850771e+00 
1.0402974999999999e+00,	 2.6754682499999999e-01,	 4.6818474729424464e-02,	 1.4887431002882422e+03,	 -3.2518912400646308e+01,	 6.9540230319109503e+02,	 9.3666290961689901e+03,	 5.2923316136712015e+02,	 2.8136903073720609e+00 
1.0409020000000000e+00,	 2.6753415000000003e-01,	 4.6884057169561844e-02,	 1.4885491646438056e+03,	 -3.2464620643658606e+01,	 6.9569077056273613e+02,	 9.3836406100014719e+03,	 5.2934291845975258e+02,	 2.8127383788071114e+00 
1.0415095000000001e+00,	 2.6752144999999999e-01,	 4.6951724838608003e-02,	 1.4883490110974874e+03,	 -3.2378385847230241e+01,	 6.9598941607356687e+02,	 9.4012180150776057e+03,	 5.2945652419586065e+02,	 2.8117533551120562e+00 
1.0421200000000002e+00,	 2.6750869999999999e-01,	 4.7009002494904278e-02,	 1.4881898217359733e+03,	 -3.2391822383662124e+01,	 6.9622427075217490e+02,	 9.4158630278294277e+03,	 5.2954584656984457e+02,	 2.8109790843658100e+00 
1.0427330000000001e+00,	 2.6749584999999998e-01,	 4.7067930153475719e-02,	 1.4880153265208935e+03,	 -3.2369226687505012e+01,	 6.9648287782290765e+02,	 9.4311680204983877e+03,	 5.2964418527447685e+02,	 2.8101268640805106e+00 
1.0433490000000001e+00,	 2.6748295000000000e-01,	 4.7131262872977954e-02,	 1.4878273996447933e+03,	 -3.2295584546301704e+01,	 6.9676293928131940e+02,	 9.4476556746070401e+03,	 5.2975066169996910e+02,	 2.8092043647198337e+00 
1.0439685000000001e+00,	 2.6747002499999994e-01,	 4.7190593927316664e-02,	 1.4876566669909503e+03,	 -3.2258371294915264e+01,	 6.9701639090145386e+02,	 9.4629897952684623e+03,	 5.2984700290018213e+02,	 2.8083698940764359e+00 
1.0445910000000000e+00,	 2.6745702499999996e-01,	 4.7246437968091595e-02,	 1.4874962479596775e+03,	 -3.2248090652327093e+01,	 6.9725371412414506e+02,	 9.4774138485201638e+03,	 5.2993719754852282e+02,	 2.8075888503509931e+00 
1.0452165000000000e+00,	 2.6744392499999997e-01,	 4.7299474295169730e-02,	 1.4873437402497989e+03,	 -3.2258326328256501e+01,	 6.9747866874933061e+02,	 9.4911138127704380e+03,	 5.3002267734409031e+02,	 2.8068488025986484e+00 
1.0458449999999999e+00,	 2.6743074999999999e-01,	 4.7356150592390379e-02,	 1.4871751010126131e+03,	 -3.2223222523363013e+01,	 6.9772887762310722e+02,	 9.5058953391335872e+03,	 5.3011773723034105e+02,	 2.8060260058416304e+00 
1.0464767500000001e+00,	 2.6741752499999999e-01,	 4.7410030063410692e-02,	 1.4870206393507640e+03,	 -3.2216582042017862e+01,	 6.9795720953434954e+02,	 9.5198250191237657e+03,	 5.3020447070146940e+02,	 2.8052754545756691e+00 
1.0471117500000002e+00,	 2.6740425000000001e-01,	 4.7468412259044281e-02,	 1.4868458796052082e+03,	 -3.2155701746449992e+01,	 6.9821722399678367e+02,	 9.5350988782973818e+03,	 5.3030322173619868e+02,	 2.8044211128348335e+00 
1.0477500000000002e+00,	 2.6739092500000000e-01,	 4.7523444326653869e-02,	 1.4866873565402836e+03,	 -3.2130485499335443e+01,	 6.9845209438138352e+02,	 9.5493644983337108e+03,	 5.3039240748291093e+02,	 2.8036497114147378e+00 
1.0483920000000000e+00,	 2.6737750000000005e-01,	 4.7576573388465160e-02,	 1.4865297953462264e+03,	 -3.2117228960993515e+01,	 6.9868513776574548e+02,	 9.5632300297543043e+03,	 5.3048088465552155e+02,	 2.8028846135129521e+00 
1.0490374999999998e+00,	 2.6736397499999998e-01,	 4.7627387214786314e-02,	 1.4863835479142999e+03,	 -3.2127225125607978e+01,	 6.9890071384431371e+02,	 9.5763978126820366e+03,	 5.3056271705957192e+02,	 2.8021771304878240e+00 
1.0496859999999999e+00,	 2.6735039999999999e-01,	 4.7676469738264129e-02,	 1.4862465814682380e+03,	 -3.2154601440914298e+01,	 6.9910201482685977e+02,	 9.5890278794182013e+03,	 5.3063911926146227e+02,	 2.8015167286050811e+00 
1.0503380000000000e+00,	 2.6733674999999996e-01,	 4.7730930219048451e-02,	 1.4860837515906323e+03,	 -3.2120675668859867e+01,	 6.9934342496768795e+02,	 9.6032963692848061e+03,	 5.3073073007423216e+02,	 2.8007250380583093e+00 
1.0509935000000001e+00,	 2.6732302499999999e-01,	 4.7782722987354906e-02,	 1.4859339134992426e+03,	 -3.2115720215047631e+01,	 6.9956471200219994e+02,	 9.6167588764152133e+03,	 5.3081469064083808e+02,	 2.7999996236082292e+00 
1.0516524999999999e+00,	 2.6730925000000000e-01,	 4.7839471768016090e-02,	 1.4857647031956812e+03,	 -3.2058852377655917e+01,	 6.9981621558657332e+02,	 9.6316416149315919e+03,	 5.3091009982761238e+02,	 2.7991754834432960e+00 
1.0523155000000000e+00,	 2.6729540000000002e-01,	 4.7888502070241264e-02,	 1.4856283213436348e+03,	 -3.2084595815614854e+01,	 7.0001662376667286e+02,	 9.6442740744718940e+03,	 5.3098611343533116e+02,	 2.7985190257496746e+00 
1.0529820000000001e+00,	 2.6728144999999998e-01,	 4.7941520767882696e-02,	 1.4854702164893611e+03,	 -3.2062616184213958e+01,	 7.0025058066637337e+02,	 9.6581783608183323e+03,	 5.3107483810461667e+02,	 2.7977529564472148e+00 
1.0536520000000000e+00,	 2.6726742500000000e-01,	 4.7993581394698843e-02,	 1.4853197801594622e+03,	 -3.2054338702385493e+01,	 7.0047276433785021e+02,	 9.6717341511704672e+03,	 5.3115908423186170e+02,	 2.7970257171413646e+00 
1.0543260000000001e+00,	 2.6725332499999999e-01,	 4.8044674355940210e-02,	 1.4851721610511488e+03,	 -3.2055393176624740e+01,	 7.0069047315590353e+02,	 9.6850396778135473e+03,	 5.3124162065480186e+02,	 2.7963133887567460e+00 
1.0550040000000001e+00,	 2.6723912500000002e-01,	 4.8095064623384892e-02,	 1.4850264388905564e+03,	 -3.2063441631229715e+01,	 7.0090514001074894e+02,	 9.6981678183084259e+03,	 5.3132299127358351e+02,	 2.7956112691980404e+00 
1.0556855000000001e+00,	 2.6722487499999997e-01,	 4.8149754254416033e-02,	 1.4848678714508055e+03,	 -3.2030342403166614e+01,	 7.0114003787165382e+02,	 9.7124496443020726e+03,	 5.3141201628706904e+02,	 2.7948432699834909e+00 
1.0563709999999999e+00,	 2.6721054999999999e-01,	 4.8203963427168331e-02,	 1.4847065448414205e+03,	 -3.2000303881951943e+01,	 7.0137888078816161e+02,	 9.7266966245447129e+03,	 5.3150252116603610e+02,	 2.7940626836230775e+00 
1.0002499999999999e+00,	 2.6906457499999997e-01,	 3.5722220303752182e-02,	 1.5709045814726401e+03,	 3.0869251166632228e+02,	 5.2378173084867467e+02,	 5.3829299524875005e+03,	 4.5930815863038305e+02,	 3.4855625229514788e+00 
1.0007500000000000e+00,	 2.6905432499999998e-01,	 3.4376664077766038e-02,	 1.5753809443595242e+03,	 2.8517385208182066e+02,	 5.2372364574771836e+02,	 5.1795955636550680e+03,	 4.5928269029225788e+02,	 3.4858353486004443e+00 
1.0012494999999999e+00,	 2.6904407499999999e-01,	 3.2781113633440440e-02,	 1.5808231391305869e+03,	 2.5676724696672835e+02,	 5.2283878985367835e+02,	 4.9308460298185728e+03,	 4.5889453634734093e+02,	 3.4899963648960570e+00 
1.0017490000000000e+00,	 2.6903382500000000e-01,	 3.1181310961754846e-02,	 1.5864160778144262e+03,	 2.2584843697825656e+02,	 5.2145225828939556e+02,	 4.6777699587206516e+03,	 4.5828565444253957e+02,	 3.4965348727372434e+00 
1.0022495000000000e+00,	 2.6902357500000001e-01,	 2.9699060937635725e-02,	 1.5916898214944522e+03,	 1.9390854132706770e+02,	 5.1978703238445121e+02,	 4.4411771376411380e+03,	 4.5755331569646182e+02,	 3.5044174618858017e+00 
1.0027499999999998e+00,	 2.6901332499999997e-01,	 2.8394144410616981e-02,	 1.5963654153037464e+03,	 1.6208817283659195e+02,	 5.1801028752625268e+02,	 4.2315269292553357e+03,	 4.5677063802774256e+02,	 3.5128641252227970e+00 
1.0032500000000000e+00,	 2.6900307499999998e-01,	 2.7279841024376941e-02,	 1.6003030241859542e+03,	 1.3092168933401135e+02,	 5.1629460056930679e+02,	 4.0519992450625596e+03,	 4.5601358221350858e+02,	 3.5210562673740076e+00 
1.0037505000000000e+00,	 2.6899279999999998e-01,	 2.6354614539482752e-02,	 1.6034400407816784e+03,	 1.0082600664896768e+02,	 5.1476738455779230e+02,	 3.9029917069898379e+03,	 4.5533863130071359e+02,	 3.5283782792218243e+00 
1.0042515000000001e+00,	 2.6898254999999999e-01,	 2.5612337703359148e-02,	 1.6057465227879661e+03,	 7.2149236684456042e+01,	 5.1355500281301931e+02,	 3.7841306399320010e+03,	 4.5480210772883817e+02,	 3.5342109880723860e+00 
1.0047530000000000e+00,	 2.6897229999999994e-01,	 2.5035876183750139e-02,	 1.6072486691124482e+03,	 4.5047998655958722e+01,	 5.1273557957585297e+02,	 3.6930585023257227e+03,	 4.5443912402567639e+02,	 3.5381633386876445e+00 
1.0052544999999999e+00,	 2.6896199999999998e-01,	 2.4613356817904265e-02,	 1.6079863029417209e+03,	 1.9784257569844925e+01,	 5.1237122309484892e+02,	 3.6281523487656241e+03,	 4.5427763019479374e+02,	 3.5399233898042426e+00 
1.0057560000000001e+00,	 2.6895170000000002e-01,	 2.4328476929550927e-02,	 1.6080016227198703e+03,	 -3.5870743466655233e+00,	 5.1253473123747665e+02,	 3.5873038085522990e+03,	 4.5435010905702615e+02,	 3.5391333502985884e+00 
1.0062584999999999e+00,	 2.6894140000000000e-01,	 2.4169410136524242e-02,	 1.6073804167450494e+03,	 -2.4997322712626520e+01,	 5.1322267361467925e+02,	 3.5686324780297091e+03,	 4.5465492925832757e+02,	 3.5358129333053809e+00 
1.0067615000000001e+00,	 2.6893109999999998e-01,	 2.4126794848929021e-02,	 1.6062116160725832e+03,	 -4.4345281988886128e+01,	 5.1442157416159284e+02,	 3.5706620100644755e+03,	 4.5518566192963232e+02,	 3.5300401348666210e+00 
1.0072645000000000e+00,	 2.6892077500000000e-01,	 2.4190816045086851e-02,	 1.6045630109780116e+03,	 -6.1577581680594825e+01,	 5.1614364781364156e+02,	 3.5921217104048847e+03,	 4.5594691335906816e+02,	 3.5217787346961087e+00 
1.0077680000000000e+00,	 2.6891044999999997e-01,	 2.4354751072113899e-02,	 1.6025074148395136e+03,	 -7.6687257507094927e+01,	 5.1837981028187210e+02,	 3.6321327320086230e+03,	 4.5693352770248288e+02,	 3.5111043183085058e+00 
1.0082724999999999e+00,	 2.6890015000000000e-01,	 2.4612219774603629e-02,	 1.6001131574881292e+03,	 -8.9670234159090285e+01,	 5.2111490551498594e+02,	 3.6898967795111107e+03,	 4.5813738684197818e+02,	 3.4981291440315174e+00 
1.0087774999999999e+00,	 2.6888979999999996e-01,	 2.4954840423183598e-02,	 1.5974553682311773e+03,	 -1.0054777369038024e+02,	 5.2430747033962530e+02,	 3.7641834432279129e+03,	 4.5953861328250957e+02,	 3.4830949048951285e+00 
1.0092829999999999e+00,	 2.6887939999999999e-01,	 2.5378077798073686e-02,	 1.5945838432167691e+03,	 -1.0940882617397230e+02,	 5.2793513355020775e+02,	 3.8545104435074736e+03,	 4.6112563786456917e+02,	 3.4661548318853579e+00 
1.0097890000000000e+00,	 2.6886902499999998e-01,	 2.5874836252510972e-02,	 1.5915570034066318e+03,	 -1.1633765392832683e+02,	 5.3194723152840152e+02,	 3.9598259785719074e+03,	 4.6287450760622153e+02,	 3.4475938189893913e+00 
1.0102955000000000e+00,	 2.6885864999999998e-01,	 2.6439060279778583e-02,	 1.5884134307204208e+03,	 -1.2145767355730038e+02,	 5.3630651057533248e+02,	 4.0793317132418529e+03,	 4.6476725366871199e+02,	 3.4276302106763383e+00 
1.0108030000000001e+00,	 2.6884825000000001e-01,	 2.7064260520346696e-02,	 1.5851949148892545e+03,	 -1.2493019698741385e+02,	 5.4095368020400713e+02,	 4.2119788572829093e+03,	 4.6677654642509373e+02,	 3.4065769151793193e+00 
1.0113115000000001e+00,	 2.6883784999999999e-01,	 2.7744479997942266e-02,	 1.5819318999501388e+03,	 -1.2689435984160697e+02,	 5.4583971353712707e+02,	 4.3568404615316995e+03,	 4.6887983090196684e+02,	 3.3846905709320656e+00 
1.0118205000000000e+00,	 2.6882739999999999e-01,	 2.8470097187282026e-02,	 1.5786647465704441e+03,	 -1.2753150541052871e+02,	 5.5088677643624942e+02,	 4.5121261670190052e+03,	 4.7104257277578444e+02,	 3.3623450190620625e+00 
1.0123305000000000e+00,	 2.6881694999999994e-01,	 2.9235156256540763e-02,	 1.5753745403794744e+03,	 -1.2697061756855494e+02,	 5.5611068385132171e+02,	 4.6773147474244352e+03,	 4.7327068651484620e+02,	 3.3394905591367503e+00 
1.0128415000000000e+00,	 2.6880650000000000e-01,	 3.0026950685677758e-02,	 1.5720761552797699e+03,	 -1.2536262027834010e+02,	 5.6146720709010322e+02,	 4.8502660808770261e+03,	 4.7554452351183141e+02,	 3.3163385843710302e+00 
1.0133529999999999e+00,	 2.6879599999999998e-01,	 3.0840160161165881e-02,	 1.5687920756099763e+03,	 -1.2291533750015081e+02,	 5.6689087136042360e+02,	 5.0297456750445726e+03,	 4.7783583730886357e+02,	 3.2931810729432489e+00 
1.0138655000000001e+00,	 2.6878547500000000e-01,	 3.1668093591054575e-02,	 1.5655469555978086e+03,	 -1.1980715360687360e+02,	 5.7231615669149562e+02,	 5.2142021408964283e+03,	 4.8011689608590092e+02,	 3.2702963338171536e+00 
1.0143789999999999e+00,	 2.6877495000000001e-01,	 3.2503759913727857e-02,	 1.5623851099198816e+03,	 -1.1624933399940906e+02,	 5.7764419188813724e+02,	 5.4016190203703709e+03,	 4.8234656719377193e+02,	 3.2480876113524175e+00 
1.0148934999999999e+00,	 2.6876440000000001e-01,	 3.3342079268216480e-02,	 1.5593347607835365e+03,	 -1.1238425683622827e+02,	 5.8281140961567007e+02,	 5.5905001368873664e+03,	 4.8449913857514019e+02,	 3.2267949839752119e+00 
1.0154090000000000e+00,	 2.6875382500000000e-01,	 3.4177310245186221e-02,	 1.5564099432296566e+03,	 -1.0832431962164439e+02,	 5.8778150569514264e+02,	 5.7794130635408892e+03,	 4.8656060756438342e+02,	 3.2065378664793451e+00 