TITLE = "Final State"
VARIABLES = "X", "Y", "rho", "u", "v", "T", "p", "c", "M"
ZONE I=77, J=25, DATAPACKING=POINT
-1.1957240000000000e-01,	 1.5710879999999999e-01,	 1.1586407740522199e-02,	 1.7360000000000000e+03,	 -5.0998988280372041e-13,	 3.0000000000000000e+02,	 1.0000000000000000e+03,	 3.3237670711487283e+02,	 5.2229893456403387e+00 
-1.1456669999999999e-01,	 1.5710879999999999e-01,	 1.1586407740522199e-02,	 1.7360000000000000e+03,	 8.4420548464376273e-14,	 3.0000000000000000e+02,	 1.0000000000000000e+03,	 3.3237670711487283e+02,	 5.2229893456403387e+00 
-1.0956109999999999e-01,	 1.5710879999999999e-01,	 1.1586407740522199e-02,	 1.7360000000000000e+03,	 2.4318736498820301e-14,	 3.0000000000000000e+02,	 1.0000000000000000e+03,	 3.3237670711487283e+02,	 5.2229893456403387e+00 
-1.0455550000000000e-01,	 1.5710879999999999e-01,	 1.1586407740522199e-02,	 1.7360000000000000e+03,	 -1.1560814481319774e-14,	 3.0000000000000000e+02,	 1.0000000000000000e+03,	 3.3237670711487283e+02,	 5.2229893456403387e+00 
-9.9549869999999999e-02,	 1.5710879999999999e-01,	 1.1586407740522199e-02,	 1.7360000000000000e+03,	 -9.8558574164030905e-15,	 3.0000000000000000e+02,	 1.0000000000000000e+03,	 3.3237670711487283e+02,	 5.2229893456403387e+00 
-9.4544240000000002e-02,	 1.5710879999999999e-01,	 1.1586407740522199e-02,	 1.7360000000000000e+03,	 1.3568992916744806e-14,	 3.0000000000000000e+02,	 1.0000000000000000e+03,	 3.3237670711487283e+02,	 5.2229893456403387e+00 
-8.9538610000000005e-02,	 1.5710879999999999e-01,	 1.1586407740522199e-02,	 1.7360000000000000e+03,	 3.2856329534237390e-14,	 3.0000000000000000e+02,	 1.0000000000000000e+03,	 3.3237670711487283e+02,	 5.2229893456403387e+00 
-8.4532990000000002e-02,	 1.5710879999999999e-01,	 1.1586407740522199e-02,	 1.7360000000000000e+03,	 3.1864230096900089e-15,	 3.0000000000000000e+02,	 1.0000000000000000e+03,	 3.3237670711487283e+02,	 5.2229893456403387e+00 
-7.9527360000000005e-02,	 1.5710879999999999e-01,	 1.1586407740522199e-02,	 1.7360000000000000e+03,	 2.3997582446473946e-15,	 3.0000000000000000e+02,	 1.0000000000000000e+03,	 3.3237670711487283e+02,	 5.2229893456403387e+00 
-7.4521729999999994e-02,	 1.5710879999999999e-01,	 1.1586407740522199e-02,	 1.7360000000000000e+03,	 1.1247211581404213e-14,	 3.0000000000000000e+02,	 1.0000000000000000e+03,	 3.3237670711487283e+02,	 5.2229893456403387e+00 
-6.9516110000000006e-02,	 1.5710879999999999e-01,	 1.1586407740522199e-02,	 1.7360000000000000e+03,	 -4.1338958238091635e-15,	 3.0000000000000000e+02,	 1.0000000000000000e+03,	 3.3237670711487283e+02,	 5.2229893456403387e+00 
-6.4510479999999995e-02,	 1.5710879999999999e-01,	 1.1586407740522199e-02,	 1.7360000000000000e+03,	 9.2777761484801685e-15,	 3.0000000000000000e+02,	 1.0000000000000000e+03,	 3.3237670711487283e+02,	 5.2229893456403387e+00 
-5.9504849999999998e-02,	 1.5710879999999999e-01,	 1.1586407740522199e-02,	 1.7360000000000000e+03,	 2.5616094113700603e-14,	 3.0000000000000000e+02,	 1.0000000000000000e+03,	 3.3237670711487283e+02,	 5.2229893456403387e+00 
-5.4499230000000003e-02,	 1.5710879999999999e-01,	 1.1586407740522199e-02,	 1.7360000000000000e+03,	 1.2983580605452164e-14,	 3.0000000000000000e+02,	 1.0000000000000000e+03,	 3.3237670711487283e+02,	 5.2229893456403387e+00 
-4.9493599999999999e-02,	 1.5710879999999999e-01,	 1.1586407740522199e-02,	 1.7360000000000000e+03,	 -9.3479923428634604e-15,	 3.0000000000000000e+02,	 1.0000000000000000e+03,	 3.3237670711487283e+02,	 5.2229893456403387e+00 
-4.5213150000000001e-02,	 1.5762899999999999e-01,	 1.1586407740522199e-02,	 1.7360000000000000e+03,	 -1.8420321546495532e-14,	 3.0000000000000000e+02,	 1.0000000000000000e+03,	 3.3237670711487283e+02,	 5.2229893456403387e+00 
-4.0932709999999997e-02,	 1.5814929999999999e-01,	 1.1586407740522199e-02,	 1.7360000000000000e+03,	 1.7849202703615604e-14,	 3.0000000000000000e+02,	 1.0000000000000000e+03,	 3.3237670711487283e+02,	 5.2229893456403387e+00 
-3.6652259999999999e-02,	 1.5866949999999999e-01,	 1.1586407740522199e-02,	 1.7360000000000000e+03,	 6.3168519120825176e-15,	 3.0000000000000000e+02,	 1.0000000000000000e+03,	 3.3237670711487283e+02,	 5.2229893456403387e+00 
-3.2371820000000003e-02,	 1.5918969999999999e-01,	 1.1586407740522199e-02,	 1.7360000000000000e+03,	 1.1107274459126207e-14,	 3.0000000000000000e+02,	 1.0000000000000000e+03,	 3.3237670711487283e+02,	 5.2229893456403387e+00 
-2.8091370000000001e-02,	 1.5970989999999999e-01,	 1.1586407740522199e-02,	 1.7360000000000000e+03,	 1.2422259570497198e-14,	 3.0000000000000000e+02,	 1.0000000000000000e+03,	 3.3237670711487283e+02,	 5.2229893456403387e+00 
-2.3810930000000001e-02,	 1.6023019999999999e-01,	 1.1586407740522199e-02,	 1.7360000000000000e+03,	 -1.8180912077953724e-14,	 3.0000000000000000e+02,	 1.0000000000000000e+03,	 3.3237670711487283e+02,	 5.2229893456403387e+00 
-1.9530479999999999e-02,	 1.6075039999999999e-01,	 1.1586407740522199e-02,	 1.7360000000000000e+03,	 -2.0109693609925190e-14,	 3.0000000000000000e+02,	 1.0000000000000000e+03,	 3.3237670711487283e+02,	 5.2229893456403387e+00 
-1.5250029999999999e-02,	 1.6127059999999999e-01,	 1.1586407740522199e-02,	 1.7360000000000000e+03,	 -1.9225377876713848e-14,	 3.0000000000000000e+02,	 1.0000000000000000e+03,	 3.3237670711487283e+02,	 5.2229893456403387e+00 
-1.0969590000000000e-02,	 1.6179089999999999e-01,	 1.1586407740522199e-02,	 1.7360000000000000e+03,	 2.4008129503142931e-16,	 3.0000000000000000e+02,	 1.0000000000000000e+03,	 3.3237670711487283e+02,	 5.2229893456403387e+00 
-6.6891429999999998e-03,	 1.6231109999999999e-01,	 1.1586407740522199e-02,	 1.7360000000000000e+03,	 1.5424017409185630e-14,	 3.0000000000000000e+02,	 1.0000000000000000e+03,	 3.3237670711487283e+02,	 5.2229893456403387e+00 
-2.4086970000000000e-03,	 1.6283129999999998e-01,	 1.1586407740522199e-02,	 1.7360000000000000e+03,	 -7.3558332991877703e-15,	 3.0000000000000000e+02,	 1.0000000000000000e+03,	 3.3237670711487283e+02,	 5.2229893456403387e+00 
1.8717490000000000e-03,	 1.6335149999999998e-01,	 1.1586407740522199e-02,	 1.7360000000000000e+03,	 -2.3038350396906898e-14,	 3.0000000000000000e+02,	 1.0000000000000000e+03,	 3.3237670711487283e+02,	 5.2229893456403387e+00 
6.1521939999999997e-03,	 1.6387179999999998e-01,	 1.1586407740522199e-02,	 1.7360000000000000e+03,	 -1.6534201318579174e-14,	 3.0000000000000000e+02,	 1.0000000000000000e+03,	 3.3237670711487283e+02,	 5.2229893456403387e+00 
1.0432640000000000e-02,	 1.6439199999999998e-01,	 1.1586407740522199e-02,	 1.7360000000000000e+03,	 2.1775542577464690e-14,	 3.0000000000000000e+02,	 1.0000000000000000e+03,	 3.3237670711487283e+02,	 5.2229893456403387e+00 
1.4713090000000000e-02,	 1.6491219999999998e-01,	 1.1586407740522199e-02,	 1.7360000000000000e+03,	 9.6240000528342827e-15,	 3.0000000000000000e+02,	 1.0000000000000000e+03,	 3.3237670711487283e+02,	 5.2229893456403387e+00 
1.8993530000000002e-02,	 1.6543249999999998e-01,	 1.1586407740522199e-02,	 1.7360000000000000e+03,	 -5.0463368343458155e-15,	 3.0000000000000000e+02,	 1.0000000000000000e+03,	 3.3237670711487283e+02,	 5.2229893456403387e+00 
2.3273980000000000e-02,	 1.6595269999999998e-01,	 1.1586407740522199e-02,	 1.7360000000000000e+03,	 2.0768985022507832e-14,	 3.0000000000000000e+02,	 1.0000000000000000e+03,	 3.3237670711487283e+02,	 5.2229893456403387e+00 
2.7554420000000000e-02,	 1.6647289999999998e-01,	 1.1586407740522199e-02,	 1.7360000000000000e+03,	 1.0073835744203438e-14,	 3.0000000000000000e+02,	 1.0000000000000000e+03,	 3.3237670711487283e+02,	 5.2229893456403387e+00 
3.1834870000000001e-02,	 1.6699309999999998e-01,	 1.1586407740522199e-02,	 1.7360000000000000e+03,	 1.1268758461016155e-14,	 3.0000000000000000e+02,	 1.0000000000000000e+03,	 3.3237670711487283e+02,	 5.2229893456403387e+00 
3.6115309999999998e-02,	 1.6751339999999998e-01,	 1.1586407740522199e-02,	 1.7360000000000000e+03,	 1.4375174506135992e-14,	 3.0000000000000000e+02,	 1.0000000000000000e+03,	 3.3237670711487283e+02,	 5.2229893456403387e+00 
4.0395760000000003e-02,	 1.6803359999999998e-01,	 1.1586407740522199e-02,	 1.7360000000000000e+03,	 -5.7499335020404314e-15,	 3.0000000000000000e+02,	 1.0000000000000000e+03,	 3.3237670711487283e+02,	 5.2229893456403387e+00 
4.4676210000000001e-02,	 1.6855379999999998e-01,	 1.1586407740522199e-02,	 1.7360000000000000e+03,	 -2.1261115920661103e-14,	 3.0000000000000000e+02,	 1.0000000000000000e+03,	 3.3237670711487283e+02,	 5.2229893456403387e+00 
4.8956649999999997e-02,	 1.6907409999999998e-01,	 1.1586407740522199e-02,	 1.7360000000000000e+03,	 -8.2349772558485943e-15,	 3.0000000000000000e+02,	 1.0000000000000000e+03,	 3.3237670711487283e+02,	 5.2229893456403387e+00 
5.3237100000000002e-02,	 1.6959429999999998e-01,	 1.1586407740522199e-02,	 1.7360000000000000e+03,	 -2.3769894518741460e-14,	 3.0000000000000000e+02,	 1.0000000000000000e+03,	 3.3237670711487283e+02,	 5.2229893456403387e+00 
5.7517539999999999e-02,	 1.7011450000000000e-01,	 1.1586407740522199e-02,	 1.7360000000000000e+03,	 -2.2610411037745669e-15,	 3.0000000000000000e+02,	 1.0000000000000000e+03,	 3.3237670711487283e+02,	 5.2229893456403387e+00 
6.1797989999999997e-02,	 1.7063470000000000e-01,	 1.1586407740522199e-02,	 1.7360000000000000e+03,	 -1.5521776168309039e-15,	 3.0000000000000000e+02,	 1.0000000000000000e+03,	 3.3237670711487283e+02,	 5.2229893456403387e+00 
6.6078429999999994e-02,	 1.7115500000000000e-01,	 1.1586407740522199e-02,	 1.7360000000000000e+03,	 8.2354885944910178e-15,	 3.0000000000000000e+02,	 1.0000000000000000e+03,	 3.3237670711487283e+02,	 5.2229893456403387e+00 
7.0358879999999999e-02,	 1.7167520000000000e-01,	 1.1586407740522199e-02,	 1.7360000000000000e+03,	 1.9076960018107243e-15,	 3.0000000000000000e+02,	 1.0000000000000000e+03,	 3.3237670711487283e+02,	 5.2229893456403387e+00 
7.4639330000000004e-02,	 1.7219540000000000e-01,	 1.1586407740522199e-02,	 1.7360000000000000e+03,	 -1.6663509054202007e-15,	 3.0000000000000000e+02,	 1.0000000000000000e+03,	 3.3237670711487283e+02,	 5.2229893456403387e+00 
7.8919770000000000e-02,	 1.7271570000000000e-01,	 1.1586407740522199e-02,	 1.7360000000000000e+03,	 9.1970622693687046e-15,	 3.0000000000000000e+02,	 1.0000000000000000e+03,	 3.3237670711487283e+02,	 5.2229893456403387e+00 
8.3200220000000005e-02,	 1.7323590000000000e-01,	 1.1586407740522199e-02,	 1.7360000000000000e+03,	 -5.6057615526216249e-15,	 3.0000000000000000e+02,	 1.0000000000000000e+03,	 3.3237670711487283e+02,	 5.2229893456403387e+00 
8.7480660000000002e-02,	 1.7375610000000000e-01,	 1.1586407740522199e-02,	 1.7360000000000000e+03,	 -5.8905724498751463e-15,	 3.0000000000000000e+02,	 1.0000000000000000e+03,	 3.3237670711487283e+02,	 5.2229893456403387e+00 
9.1761110000000007e-02,	 1.7427630000000000e-01,	 1.1586407740522199e-02,	 1.7360000000000000e+03,	 -4.9358346273762742e-15,	 3.0000000000000000e+02,	 1.0000000000000000e+03,	 3.3237670711487283e+02,	 5.2229893456403387e+00 
9.6041550000000003e-02,	 1.7479660000000000e-01,	 1.1586407740522199e-02,	 1.7360000000000000e+03,	 -1.6918410601971213e-14,	 3.0000000000000000e+02,	 1.0000000000000000e+03,	 3.3237670711487283e+02,	 5.2229893456403387e+00 
1.0032199999999999e-01,	 1.7531679999999999e-01,	 1.1586407740522199e-02,	 1.7360000000000000e+03,	 -3.8898758008268004e-15,	 3.0000000000000000e+02,	 1.0000000000000000e+03,	 3.3237670711487283e+02,	 5.2229893456403387e+00 
1.0460240000000000e-01,	 1.7583699999999999e-01,	 1.1586407740522199e-02,	 1.7360000000000000e+03,	 3.0276474841527143e-15,	 3.0000000000000000e+02,	 1.0000000000000000e+03,	 3.3237670711487283e+02,	 5.2229893456403387e+00 
1.0888290000000000e-01,	 1.7635729999999999e-01,	 1.1586407740522199e-02,	 1.7360000000000000e+03,	 -2.0790346121975967e-14,	 3.0000000000000000e+02,	 1.0000000000000000e+03,	 3.3237670711487283e+02,	 5.2229893456403387e+00 
1.1316329999999999e-01,	 1.7687749999999999e-01,	 1.1586407740522199e-02,	 1.7360000000000000e+03,	 -2.9308170412492021e-14,	 3.0000000000000000e+02,	 1.0000000000000000e+03,	 3.3237670711487283e+02,	 5.2229893456403387e+00 
1.1744380000000000e-01,	 1.7739769999999999e-01,	 1.1586407740522199e-02,	 1.7360000000000000e+03,	 -2.1591639722970002e-14,	 3.0000000000000000e+02,	 1.0000000000000000e+03,	 3.3237670711487283e+02,	 5.2229893456403387e+00 
1.2172420000000000e-01,	 1.7791789999999999e-01,	 1.1586407740522199e-02,	 1.7360000000000000e+03,	 -1.8995038550140637e-15,	 3.0000000000000000e+02,	 1.0000000000000000e+03,	 3.3237670711487283e+02,	 5.2229893456403387e+00 
1.2600470000000000e-01,	 1.7843819999999999e-01,	 1.1586407740522199e-02,	 1.7360000000000000e+03,	 -2.9750182873976121e-15,	 3.0000000000000000e+02,	 1.0000000000000000e+03,	 3.3237670711487283e+02,	 5.2229893456403387e+00 
1.3028509999999999e-01,	 1.7895839999999999e-01,	 1.1586407740522199e-02,	 1.7360000000000000e+03,	 -1.2466240788356054e-14,	 3.0000000000000000e+02,	 1.0000000000000000e+03,	 3.3237670711487283e+02,	 5.2229893456403387e+00 
1.3456560000000001e-01,	 1.7947859999999999e-01,	 1.1586407740522199e-02,	 1.7360000000000000e+03,	 -7.7339170833848781e-15,	 3.0000000000000000e+02,	 1.0000000000000000e+03,	 3.3237670711487283e+02,	 5.2229893456403387e+00 
1.3884600000000000e-01,	 1.7999889999999999e-01,	 1.1586407740522199e-02,	 1.7360000000000000e+03,	 -6.9053215984819599e-15,	 3.0000000000000000e+02,	 1.0000000000000000e+03,	 3.3237670711487283e+02,	 5.2229893456403387e+00 
1.4312649999999999e-01,	 1.8051909999999999e-01,	 1.1586407740522199e-02,	 1.7360000000000000e+03,	 2.3872089417139768e-15,	 3.0000000000000000e+02,	 1.0000000000000000e+03,	 3.3237670711487283e+02,	 5.2229893456403387e+00 
1.4740690000000001e-01,	 1.8103929999999999e-01,	 1.1586407740522199e-02,	 1.7360000000000000e+03,	 -1.7174248146523089e-15,	 3.0000000000000000e+02,	 1.0000000000000000e+03,	 3.3237670711487283e+02,	 5.2229893456403387e+00 
1.5168730000000000e-01,	 1.8155949999999998e-01,	 1.1586407740522199e-02,	 1.7360000000000000e+03,	 -1.3840675638851973e-14,	 3.0000000000000000e+02,	 1.0000000000000000e+03,	 3.3237670711487283e+02,	 5.2229893456403387e+00 
1.5596779999999999e-01,	 1.8207979999999999e-01,	 1.1586407740522199e-02,	 1.7360000000000000e+03,	 1.0890989332721524e-14,	 3.0000000000000000e+02,	 1.0000000000000000e+03,	 3.3237670711487283e+02,	 5.2229893456403387e+00 
1.6024820000000001e-01,	 1.8259999999999998e-01,	 1.1586407740522199e-02,	 1.7360000000000000e+03,	 -1.6640487799676308e-16,	 3.0000000000000000e+02,	 1.0000000000000000e+03,	 3.3237670711487283e+02,	 5.2229893456403387e+00 
1.6452870000000000e-01,	 1.8312019999999998e-01,	 1.1586407740522199e-02,	 1.7360000000000000e+03,	 -1.2118591491258799e-14,	 3.0000000000000000e+02,	 1.0000000000000000e+03,	 3.3237670711487283e+02,	 5.2229893456403387e+00 
1.6880909999999999e-01,	 1.8364049999999998e-01,	 1.1586407740522199e-02,	 1.7360000000000000e+03,	 -5.7240030000809744e-15,	 3.0000000000000000e+02,	 1.0000000000000000e+03,	 3.3237670711487283e+02,	 5.2229893456403387e+00 
1.7308960000000001e-01,	 1.8416069999999998e-01,	 1.1586407740522199e-02,	 1.7360000000000000e+03,	 -1.0975537875901886e-14,	 3.0000000000000000e+02,	 1.0000000000000000e+03,	 3.3237670711487283e+02,	 5.2229893456403387e+00 
1.7737000000000000e-01,	 1.8468089999999998e-01,	 1.1586407740522199e-02,	 1.7360000000000000e+03,	 -1.1916642640191441e-14,	 3.0000000000000000e+02,	 1.0000000000000000e+03,	 3.3237670711487283e+02,	 5.2229893456403387e+00 
1.8165049999999999e-01,	 1.8520109999999998e-01,	 1.1586407740522199e-02,	 1.7360000000000000e+03,	 -1.6152856130027340e-14,	 3.0000000000000000e+02,	 1.0000000000000000e+03,	 3.3237670711487283e+02,	 5.2229893456403387e+00 
1.8593090000000001e-01,	 1.8572139999999998e-01,	 1.1586407740522199e-02,	 1.7360000000000000e+03,	 -1.2476645294696919e-14,	 3.0000000000000000e+02,	 1.0000000000000000e+03,	 3.3237670711487283e+02,	 5.2229893456403387e+00 
1.9021140000000000e-01,	 1.8624159999999998e-01,	 1.1586407740522199e-02,	 1.7360000000000000e+03,	 -8.8834152689969393e-15,	 3.0000000000000000e+02,	 1.0000000000000000e+03,	 3.3237670711487283e+02,	 5.2229893456403387e+00 
1.9449179999999999e-01,	 1.8676179999999998e-01,	 1.1586407740522199e-02,	 1.7360000000000000e+03,	 -1.1324213712012415e-14,	 3.0000000000000000e+02,	 1.0000000000000000e+03,	 3.3237670711487283e+02,	 5.2229893456403387e+00 
1.9877230000000001e-01,	 1.8728209999999998e-01,	 1.1586407740522199e-02,	 1.7360000000000000e+03,	 -1.8795762929342169e-14,	 3.0000000000000000e+02,	 1.0000000000000000e+03,	 3.3237670711487283e+02,	 5.2229893456403387e+00 
2.0305270000000000e-01,	 1.8780229999999998e-01,	 1.1586407740522199e-02,	 1.7360000000000000e+03,	 -1.9149732770191035e-14,	 3.0000000000000000e+02,	 1.0000000000000000e+03,	 3.3237670711487283e+02,	 5.2229893456403387e+00 
2.0733309999999999e-01,	 1.8832249999999998e-01,	 1.1586407740522199e-02,	 1.7360000000000000e+03,	 8.1114704316473088e-15,	 3.0000000000000000e+02,	 1.0000000000000000e+03,	 3.3237670711487283e+02,	 5.2229893456403387e+00 
2.1161360000000001e-01,	 1.8884270000000000e-01,	 1.1586407740522199e-02,	 1.7360000000000000e+03,	 1.9539101252937157e-14,	 3.0000000000000000e+02,	 1.0000000000000000e+03,	 3.3237670711487283e+02,	 5.2229893456403387e+00 
2.1589400000000000e-01,	 1.8936299999999998e-01,	 1.1586407740522199e-02,	 1.7360000000000000e+03,	 -3.3678161097638887e-15,	 3.0000000000000000e+02,	 1.0000000000000000e+03,	 3.3237670711487283e+02,	 5.2229893456403387e+00 
-1.2117989999999999e-01,	 1.6314759999999998e-01,	 1.1586407740522199e-02,	 1.7360000000000000e+03,	 -2.0287452099448634e-13,	 3.0000000000000000e+02,	 1.0000000000000000e+03,	 3.3237670711487283e+02,	 5.2229893456403387e+00 
-1.1619540000000000e-01,	 1.6314759999999998e-01,	 1.1586407740522199e-02,	 1.7360000000000000e+03,	 2.7388179568461982e-15,	 3.0000000000000000e+02,	 1.0000000000000000e+03,	 3.3237670711487283e+02,	 5.2229893456403387e+00 
-1.1121090000000000e-01,	 1.6314759999999998e-01,	 1.1586407740522199e-02,	 1.7360000000000000e+03,	 -6.3112342286216132e-14,	 3.0000000000000000e+02,	 1.0000000000000000e+03,	 3.3237670711487283e+02,	 5.2229893456403387e+00 
-1.0622640000000000e-01,	 1.6314759999999998e-01,	 1.1586407740522199e-02,	 1.7360000000000000e+03,	 2.4842542854835632e-15,	 3.0000000000000000e+02,	 1.0000000000000000e+03,	 3.3237670711487283e+02,	 5.2229893456403387e+00 
-1.0124200000000000e-01,	 1.6314759999999998e-01,	 1.1586407740522199e-02,	 1.7360000000000000e+03,	 6.9819464316464028e-15,	 3.0000000000000000e+02,	 1.0000000000000000e+03,	 3.3237670711487283e+02,	 5.2229893456403387e+00 
-9.6257480000000006e-02,	 1.6314759999999998e-01,	 1.1586407740522199e-02,	 1.7360000000000000e+03,	 -4.5493713898982572e-15,	 3.0000000000000000e+02,	 1.0000000000000000e+03,	 3.3237670711487283e+02,	 5.2229893456403387e+00 
-9.1273000000000007e-02,	 1.6314759999999998e-01,	 1.1586407740522199e-02,	 1.7360000000000000e+03,	 -1.3740769557890228e-14,	 3.0000000000000000e+02,	 1.0000000000000000e+03,	 3.3237670711487283e+02,	 5.2229893456403387e+00 
-8.6288530000000002e-02,	 1.6314759999999998e-01,	 1.1586407740522199e-02,	 1.7360000000000000e+03,	 -8.8927120707130511e-15,	 3.0000000000000000e+02,	 1.0000000000000000e+03,	 3.3237670711487283e+02,	 5.2229893456403387e+00 
-8.1304050000000003e-02,	 1.6314759999999998e-01,	 1.1586407740522199e-02,	 1.7360000000000000e+03,	 -6.2666528918045221e-15,	 3.0000000000000000e+02,	 1.0000000000000000e+03,	 3.3237670711487283e+02,	 5.2229893456403387e+00 
-7.6319579999999998e-02,	 1.6314759999999998e-01,	 1.1586407740522199e-02,	 1.7360000000000000e+03,	 -1.0105983800889431e-14,	 3.0000000000000000e+02,	 1.0000000000000000e+03,	 3.3237670711487283e+02,	 5.2229893456403387e+00 
-7.1335099999999999e-02,	 1.6314759999999998e-01,	 1.1586407740522199e-02,	 1.7360000000000000e+03,	 -4.8601668280400459e-15,	 3.0000000000000000e+02,	 1.0000000000000000e+03,	 3.3237670711487283e+02,	 5.2229893456403387e+00 
-6.6350629999999994e-02,	 1.6314759999999998e-01,	 1.1586407740522199e-02,	 1.7360000000000000e+03,	 -1.7647779567318078e-14,	 3.0000000000000000e+02,	 1.0000000000000000e+03,	 3.3237670711487283e+02,	 5.2229893456403387e+00 
-6.1366150000000001e-02,	 1.6314759999999998e-01,	 1.1586407740522199e-02,	 1.7360000000000000e+03,	 -2.7907616317280321e-14,	 3.0000000000000000e+02,	 1.0000000000000000e+03,	 3.3237670711487283e+02,	 5.2229893456403387e+00 
-5.6381680000000003e-02,	 1.6314759999999998e-01,	 1.1586407740522199e-02,	 1.7360000000000000e+03,	 -2.2118475569091954e-14,	 3.0000000000000000e+02,	 1.0000000000000000e+03,	 3.3237670711487283e+02,	 5.2229893456403387e+00 
-5.1397199999999997e-02,	 1.6314759999999998e-01,	 1.1586407740522199e-02,	 1.7360000000000000e+03,	 -1.2144179434887554e-14,	 3.0000000000000000e+02,	 1.0000000000000000e+03,	 3.3237670711487283e+02,	 5.2229893456403387e+00 
-4.7107690000000001e-02,	 1.6364619999999999e-01,	 1.1586407740522199e-02,	 1.7360000000000000e+03,	 -1.1980418865059328e-14,	 3.0000000000000000e+02,	 1.0000000000000000e+03,	 3.3237670711487283e+02,	 5.2229893456403387e+00 
-4.2818179999999997e-02,	 1.6414469999999998e-01,	 1.1586407740522199e-02,	 1.7360000000000000e+03,	 -1.7931459618192415e-14,	 3.0000000000000000e+02,	 1.0000000000000000e+03,	 3.3237670711487283e+02,	 5.2229893456403387e+00 
-3.8528670000000001e-02,	 1.6464329999999999e-01,	 1.1586407740522199e-02,	 1.7360000000000000e+03,	 -1.8259050292577002e-14,	 3.0000000000000000e+02,	 1.0000000000000000e+03,	 3.3237670711487283e+02,	 5.2229893456403387e+00 
-3.4239159999999998e-02,	 1.6514179999999998e-01,	 1.1586407740522199e-02,	 1.7360000000000000e+03,	 -2.2013723929634135e-14,	 3.0000000000000000e+02,	 1.0000000000000000e+03,	 3.3237670711487283e+02,	 5.2229893456403387e+00 
-2.9949650000000001e-02,	 1.6564039999999999e-01,	 1.1586407740522199e-02,	 1.7360000000000000e+03,	 -1.8257138673947528e-14,	 3.0000000000000000e+02,	 1.0000000000000000e+03,	 3.3237670711487283e+02,	 5.2229893456403387e+00 
-2.5660140000000001e-02,	 1.6613889999999998e-01,	 1.1586407740522199e-02,	 1.7360000000000000e+03,	 -4.6340328907729681e-16,	 3.0000000000000000e+02,	 1.0000000000000000e+03,	 3.3237670711487283e+02,	 5.2229893456403387e+00 
-2.1370630000000002e-02,	 1.6663749999999999e-01,	 1.1586407740522199e-02,	 1.7360000000000000e+03,	 -1.4757538467276224e-15,	 3.0000000000000000e+02,	 1.0000000000000000e+03,	 3.3237670711487283e+02,	 5.2229893456403387e+00 
-1.7081120000000002e-02,	 1.6713599999999998e-01,	 1.1586407740522199e-02,	 1.7360000000000000e+03,	 2.8936334083835584e-16,	 3.0000000000000000e+02,	 1.0000000000000000e+03,	 3.3237670711487283e+02,	 5.2229893456403387e+00 
-1.2791610000000000e-02,	 1.6763459999999999e-01,	 1.1586407740522199e-02,	 1.7360000000000000e+03,	 -1.0487806974084271e-14,	 3.0000000000000000e+02,	 1.0000000000000000e+03,	 3.3237670711487283e+02,	 5.2229893456403387e+00 
-8.5020949999999994e-03,	 1.6813309999999998e-01,	 1.1586407740522199e-02,	 1.7360000000000000e+03,	 -2.4464255471290201e-14,	 3.0000000000000000e+02,	 1.0000000000000000e+03,	 3.3237670711487283e+02,	 5.2229893456403387e+00 
-4.2125849999999996e-03,	 1.6863170000000000e-01,	 1.1586407740522199e-02,	 1.7360000000000000e+03,	 -1.6792543100882495e-14,	 3.0000000000000000e+02,	 1.0000000000000000e+03,	 3.3237670711487283e+02,	 5.2229893456403387e+00 
7.6925709999999995e-05,	 1.6913019999999998e-01,	 1.1586407740522199e-02,	 1.7360000000000000e+03,	 7.6492708842886214e-16,	 3.0000000000000000e+02,	 1.0000000000000000e+03,	 3.3237670711487283e+02,	 5.2229893456403387e+00 
4.3664359999999996e-03,	 1.6962880000000000e-01,	 1.1586407740522199e-02,	 1.7360000000000000e+03,	 1.0271648076314447e-14,	 3.0000000000000000e+02,	 1.0000000000000000e+03,	 3.3237670711487283e+02,	 5.2229893456403387e+00 
8.6559470000000006e-03,	 1.7012729999999998e-01,	 1.1586407740522199e-02,	 1.7360000000000000e+03,	 1.0987461971225327e-14,	 3.0000000000000000e+02,	 1.0000000000000000e+03,	 3.3237670711487283e+02,	 5.2229893456403387e+00 
1.2945460000000001e-02,	 1.7062590000000000e-01,	 1.1586407740522199e-02,	 1.7360000000000000e+03,	 -9.1460311900430472e-15,	 3.0000000000000000e+02,	 1.0000000000000000e+03,	 3.3237670711487283e+02,	 5.2229893456403387e+00 
1.7234969999999999e-02,	 1.7112439999999998e-01,	 1.1586407740522199e-02,	 1.7360000000000000e+03,	 8.3054988408435865e-15,	 3.0000000000000000e+02,	 1.0000000000000000e+03,	 3.3237670711487283e+02,	 5.2229893456403387e+00 
2.1524479999999999e-02,	 1.7162300000000000e-01,	 1.1586407740522199e-02,	 1.7360000000000000e+03,	 1.3954250435484899e-14,	 3.0000000000000000e+02,	 1.0000000000000000e+03,	 3.3237670711487283e+02,	 5.2229893456403387e+00 
2.5813989999999998e-02,	 1.7212149999999998e-01,	 1.1586407740522199e-02,	 1.7360000000000000e+03,	 1.0988957515157404e-14,	 3.0000000000000000e+02,	 1.0000000000000000e+03,	 3.3237670711487283e+02,	 5.2229893456403387e+00 
3.0103499999999998e-02,	 1.7262010000000000e-01,	 1.1586407740522199e-02,	 1.7360000000000000e+03,	 3.8863481756229044e-15,	 3.0000000000000000e+02,	 1.0000000000000000e+03,	 3.3237670711487283e+02,	 5.2229893456403387e+00 
3.4393010000000002e-02,	 1.7311859999999998e-01,	 1.1586407740522199e-02,	 1.7360000000000000e+03,	 -3.2083651500175547e-15,	 3.0000000000000000e+02,	 1.0000000000000000e+03,	 3.3237670711487283e+02,	 5.2229893456403387e+00 
3.8682519999999998e-02,	 1.7361720000000000e-01,	 1.1586407740522199e-02,	 1.7360000000000000e+03,	 -8.8112851790252658e-15,	 3.0000000000000000e+02,	 1.0000000000000000e+03,	 3.3237670711487283e+02,	 5.2229893456403387e+00 
4.2972030000000001e-02,	 1.7411579999999999e-01,	 1.1586407740522199e-02,	 1.7360000000000000e+03,	 1.0010855834015697e-14,	 3.0000000000000000e+02,	 1.0000000000000000e+03,	 3.3237670711487283e+02,	 5.2229893456403387e+00 
4.7261539999999998e-02,	 1.7461430000000000e-01,	 1.1586407740522199e-02,	 1.7360000000000000e+03,	 6.0501817682583084e-16,	 3.0000000000000000e+02,	 1.0000000000000000e+03,	 3.3237670711487283e+02,	 5.2229893456403387e+00 
5.1551050000000001e-02,	 1.7511289999999999e-01,	 1.1586407740522199e-02,	 1.7360000000000000e+03,	 -3.6596535156347715e-15,	 3.0000000000000000e+02,	 1.0000000000000000e+03,	 3.3237670711487283e+02,	 5.2229893456403387e+00 
5.5840559999999997e-02,	 1.7561140000000000e-01,	 1.1586407740522199e-02,	 1.7360000000000000e+03,	 1.8022926073797539e-14,	 3.0000000000000000e+02,	 1.0000000000000000e+03,	 3.3237670711487283e+02,	 5.2229893456403387e+00 
6.0130070000000001e-02,	 1.7610999999999999e-01,	 1.1586407740522199e-02,	 1.7360000000000000e+03,	 1.2041582291367576e-14,	 3.0000000000000000e+02,	 1.0000000000000000e+03,	 3.3237670711487283e+02,	 5.2229893456403387e+00 
6.4419580000000004e-02,	 1.7660850000000000e-01,	 1.1586407740522199e-02,	 1.7360000000000000e+03,	 -4.3526371145790459e-15,	 3.0000000000000000e+02,	 1.0000000000000000e+03,	 3.3237670711487283e+02,	 5.2229893456403387e+00 
6.8709090000000000e-02,	 1.7710709999999999e-01,	 1.1586407740522199e-02,	 1.7360000000000000e+03,	 -2.8699619073671281e-15,	 3.0000000000000000e+02,	 1.0000000000000000e+03,	 3.3237670711487283e+02,	 5.2229893456403387e+00 
7.2998599999999997e-02,	 1.7760560000000000e-01,	 1.1586407740522199e-02,	 1.7360000000000000e+03,	 1.4977226195436542e-15,	 3.0000000000000000e+02,	 1.0000000000000000e+03,	 3.3237670711487283e+02,	 5.2229893456403387e+00 
7.7288109999999993e-02,	 1.7810419999999999e-01,	 1.1586407740522199e-02,	 1.7360000000000000e+03,	 -3.1114412238844427e-15,	 3.0000000000000000e+02,	 1.0000000000000000e+03,	 3.3237670711487283e+02,	 5.2229893456403387e+00 
8.1577620000000003e-02,	 1.7860269999999998e-01,	 1.1586407740522199e-02,	 1.7360000000000000e+03,	 -4.8364033987900172e-15,	 3.0000000000000000e+02,	 1.0000000000000000e+03,	 3.3237670711487283e+02,	 5.2229893456403387e+00 
8.5867139999999995e-02,	 1.7910129999999999e-01,	 1.1586407740522199e-02,	 1.7360000000000000e+03,	 -1.5285066007796737e-15,	 3.0000000000000000e+02,	 1.0000000000000000e+03,	 3.3237670711487283e+02,	 5.2229893456403387e+00 
9.0156650000000005e-02,	 1.7959979999999998e-01,	 1.1586407740522199e-02,	 1.7360000000000000e+03,	 -7.7497664809134989e-15,	 3.0000000000000000e+02,	 1.0000000000000000e+03,	 3.3237670711487283e+02,	 5.2229893456403387e+00 
9.4446160000000001e-02,	 1.8009839999999999e-01,	 1.1586407740522199e-02,	 1.7360000000000000e+03,	 1.2765459488320393e-14,	 3.0000000000000000e+02,	 1.0000000000000000e+03,	 3.3237670711487283e+02,	 5.2229893456403387e+00 
9.8735669999999998e-02,	 1.8059689999999998e-01,	 1.1586407740522199e-02,	 1.7360000000000000e+03,	 6.4529244822058980e-15,	 3.0000000000000000e+02,	 1.0000000000000000e+03,	 3.3237670711487283e+02,	 5.2229893456403387e+00 
1.0302520000000000e-01,	 1.8109549999999999e-01,	 1.1586407740522199e-02,	 1.7360000000000000e+03,	 -5.4635606136518161e-15,	 3.0000000000000000e+02,	 1.0000000000000000e+03,	 3.3237670711487283e+02,	 5.2229893456403387e+00 
1.0731470000000000e-01,	 1.8159399999999998e-01,	 1.1586407740522199e-02,	 1.7360000000000000e+03,	 1.2340845207417159e-14,	 3.0000000000000000e+02,	 1.0000000000000000e+03,	 3.3237670711487283e+02,	 5.2229893456403387e+00 
1.1160420000000000e-01,	 1.8209259999999999e-01,	 1.1586407740522199e-02,	 1.7360000000000000e+03,	 2.0739029805439956e-14,	 3.0000000000000000e+02,	 1.0000000000000000e+03,	 3.3237670711487283e+02,	 5.2229893456403387e+00 
1.1589370000000000e-01,	 1.8259109999999998e-01,	 1.1586407740522199e-02,	 1.7360000000000000e+03,	 -1.8897035541060447e-15,	 3.0000000000000000e+02,	 1.0000000000000000e+03,	 3.3237670711487283e+02,	 5.2229893456403387e+00 
1.2018320000000000e-01,	 1.8308969999999999e-01,	 1.1586407740522199e-02,	 1.7360000000000000e+03,	 -2.3708782462281372e-15,	 3.0000000000000000e+02,	 1.0000000000000000e+03,	 3.3237670711487283e+02,	 5.2229893456403387e+00 