TITLE = "Final State"
VARIABLES = "X", "Y", "rho", "u", "v", "T", "p", "c", "M"
ZONE I=120, J=80, DATAPACKING=POINT
4.1666666666666501e-03,	 4.1250000000000000e-04,	 9.2471165334369665e-01,	 8.2339999999999998e+02,	 0.0000000000000000e+00,	 3.0556000000000000e+02,	 8.1289185029999993e+04,	 3.5081425908768125e+02,	 2.3471109815812885e+00 
1.2500000000000001e-02,	 4.1250000000000000e-04,	 9.2471165334369665e-01,	 8.2339999999999998e+02,	 0.0000000000000000e+00,	 3.0556000000000000e+02,	 8.1289185029999993e+04,	 3.5081425908768125e+02,	 2.3471109815812885e+00 
2.0833333333333353e-02,	 4.1250000000000000e-04,	 9.2471165334369665e-01,	 8.2339999999999998e+02,	 0.0000000000000000e+00,	 3.0556000000000000e+02,	 8.1289185029999993e+04,	 3.5081425908768125e+02,	 2.3471109815812885e+00 
2.9166666666666646e-02,	 4.1250000000000000e-04,	 9.2471165334369665e-01,	 8.2339999999999998e+02,	 0.0000000000000000e+00,	 3.0556000000000000e+02,	 8.1289185029999993e+04,	 3.5081425908768125e+02,	 2.3471109815812885e+00 
3.7499999999999999e-02,	 4.1250000000000000e-04,	 9.2471165334369665e-01,	 8.2339999999999998e+02,	 0.0000000000000000e+00,	 3.0556000000000000e+02,	 8.1289185029999993e+04,	 3.5081425908768125e+02,	 2.3471109815812885e+00 
4.5833333333333351e-02,	 4.1250000000000000e-04,	 9.2471165334369665e-01,	 8.2339999999999998e+02,	 0.0000000000000000e+00,	 3.0556000000000000e+02,	 8.1289185029999993e+04,	 3.5081425908768125e+02,	 2.3471109815812885e+00 
5.4166666666666655e-02,	 4.1250000000000000e-04,	 9.2471165334369665e-01,	 8.2339999999999998e+02,	 0.0000000000000000e+00,	 3.0556000000000000e+02,	 8.1289185029999993e+04,	 3.5081425908768125e+02,	 2.3471109815812885e+00 
6.2500000000000000e-02,	 4.1250000000000000e-04,	 9.2471165334369665e-01,	 8.2339999999999998e+02,	 0.0000000000000000e+00,	 3.0556000000000000e+02,	 8.1289185029999993e+04,	 3.5081425908768125e+02,	 2.3471109815812885e+00 
7.0833333333333345e-02,	 4.1250000000000000e-04,	 9.2471165334369665e-01,	 8.2339999999999998e+02,	 0.0000000000000000e+00,	 3.0556000000000000e+02,	 8.1289185029999993e+04,	 3.5081425908768125e+02,	 2.3471109815812885e+00 
7.9166666666666649e-02,	 4.1250000000000000e-04,	 9.2471165334369665e-01,	 8.2339999999999998e+02,	 0.0000000000000000e+00,	 3.0556000000000000e+02,	 8.1289185029999993e+04,	 3.5081425908768125e+02,	 2.3471109815812885e+00 
8.7500000000000008e-02,	 4.1250000000000000e-04,	 9.2471165334369665e-01,	 8.2339999999999998e+02,	 0.0000000000000000e+00,	 3.0556000000000000e+02,	 8.1289185029999993e+04,	 3.5081425908768125e+02,	 2.3471109815812885e+00 
9.5833333333333354e-02,	 4.1250000000000000e-04,	 9.2471165334369665e-01,	 8.2339999999999998e+02,	 0.0000000000000000e+00,	 3.0556000000000000e+02,	 8.1289185029999993e+04,	 3.5081425908768125e+02,	 2.3471109815812885e+00 
1.0416666666666666e-01,	 4.1250000000000000e-04,	 9.2471165334369665e-01,	 8.2339999999999998e+02,	 0.0000000000000000e+00,	 3.0556000000000000e+02,	 8.1289185029999993e+04,	 3.5081425908768125e+02,	 2.3471109815812885e+00 
1.1249999999999999e-01,	 4.1250000000000000e-04,	 9.2471165334369665e-01,	 8.2339999999999998e+02,	 0.0000000000000000e+00,	 3.0556000000000000e+02,	 8.1289185029999993e+04,	 3.5081425908768125e+02,	 2.3471109815812885e+00 
1.2083333333333335e-01,	 4.1250000000000000e-04,	 9.2471165334369665e-01,	 8.2339999999999998e+02,	 0.0000000000000000e+00,	 3.0556000000000000e+02,	 8.1289185029999993e+04,	 3.5081425908768125e+02,	 2.3471109815812885e+00 
1.2916666666666665e-01,	 4.1250000000000000e-04,	 9.2471165334369665e-01,	 8.2339999999999998e+02,	 0.0000000000000000e+00,	 3.0556000000000000e+02,	 8.1289185029999993e+04,	 3.5081425908768125e+02,	 2.3471109815812885e+00 
1.3750000000000001e-01,	 4.1250000000000000e-04,	 9.2471165334369665e-01,	 8.2339999999999998e+02,	 0.0000000000000000e+00,	 3.0556000000000000e+02,	 8.1289185029999993e+04,	 3.5081425908768125e+02,	 2.3471109815812885e+00 
1.4583333333333334e-01,	 4.1250000000000000e-04,	 9.2471165334369665e-01,	 8.2339999999999998e+02,	 0.0000000000000000e+00,	 3.0556000000000000e+02,	 8.1289185029999993e+04,	 3.5081425908768125e+02,	 2.3471109815812885e+00 
1.5416666666666665e-01,	 4.1250000000000000e-04,	 9.2471165334369665e-01,	 8.2339999999999998e+02,	 0.0000000000000000e+00,	 3.0556000000000000e+02,	 8.1289185029999993e+04,	 3.5081425908768125e+02,	 2.3471109815812885e+00 
1.6250000000000001e-01,	 4.1250000000000000e-04,	 9.2471165334369665e-01,	 8.2339999999999998e+02,	 0.0000000000000000e+00,	 3.0556000000000000e+02,	 8.1289185029999993e+04,	 3.5081425908768125e+02,	 2.3471109815812885e+00 
1.7083333333333334e-01,	 4.1250000000000000e-04,	 9.2471165334369665e-01,	 8.2339999999999998e+02,	 0.0000000000000000e+00,	 3.0556000000000000e+02,	 8.1289185029999993e+04,	 3.5081425908768125e+02,	 2.3471109815812885e+00 
1.7916666666666664e-01,	 4.1250000000000000e-04,	 9.2471165334369665e-01,	 8.2339999999999998e+02,	 0.0000000000000000e+00,	 3.0556000000000000e+02,	 8.1289185029999993e+04,	 3.5081425908768125e+02,	 2.3471109815812885e+00 
1.8750000000000000e-01,	 4.1250000000000000e-04,	 9.2471165334369665e-01,	 8.2339999999999998e+02,	 0.0000000000000000e+00,	 3.0556000000000000e+02,	 8.1289185029999993e+04,	 3.5081425908768125e+02,	 2.3471109815812885e+00 
1.9583333333333336e-01,	 4.1250000000000000e-04,	 9.2471165334369665e-01,	 8.2339999999999998e+02,	 0.0000000000000000e+00,	 3.0556000000000000e+02,	 8.1289185029999993e+04,	 3.5081425908768125e+02,	 2.3471109815812885e+00 
2.0416666666666666e-01,	 4.1250000000000000e-04,	 9.2471165334369665e-01,	 8.2339999999999998e+02,	 0.0000000000000000e+00,	 3.0556000000000000e+02,	 8.1289185029999993e+04,	 3.5081425908768125e+02,	 2.3471109815812885e+00 
2.1249999999999999e-01,	 4.1250000000000000e-04,	 9.2471165334369665e-01,	 8.2339999999999998e+02,	 0.0000000000000000e+00,	 3.0556000000000000e+02,	 8.1289185029999993e+04,	 3.5081425908768125e+02,	 2.3471109815812885e+00 
2.2083333333333335e-01,	 4.1250000000000000e-04,	 9.2471165334369665e-01,	 8.2339999999999998e+02,	 0.0000000000000000e+00,	 3.0556000000000000e+02,	 8.1289185029999993e+04,	 3.5081425908768125e+02,	 2.3471109815812885e+00 
2.2916666666666666e-01,	 4.1250000000000000e-04,	 9.2471165334369665e-01,	 8.2339999999999998e+02,	 0.0000000000000000e+00,	 3.0556000000000000e+02,	 8.1289185029999993e+04,	 3.5081425908768125e+02,	 2.3471109815812885e+00 
2.3749999999999999e-01,	 4.1250000000000000e-04,	 9.2471165334369665e-01,	 8.2339999999999998e+02,	 0.0000000000000000e+00,	 3.0556000000000000e+02,	 8.1289185029999993e+04,	 3.5081425908768125e+02,	 2.3471109815812885e+00 
2.4583333333333335e-01,	 4.1250000000000000e-04,	 9.2471165334369665e-01,	 8.2339999999999998e+02,	 0.0000000000000000e+00,	 3.0556000000000000e+02,	 8.1289185029999993e+04,	 3.5081425908768125e+02,	 2.3471109815812885e+00 
2.5416666666666665e-01,	 1.1576390677561501e-03,	 1.0019190580989830e+00,	 8.0715653251024344e+02,	 1.0585918762126859e+02,	 3.1314730502793867e+02,	 9.0263309654503450e+04,	 3.5514305464654836e+02,	 2.2922275447119049e+00 
2.6250000000000001e-01,	 2.6479172032684000e-03,	 1.0820354503465279e+00,	 7.9368301385401867e+02,	 1.2116602715558643e+02,	 3.2213201948453155e+02,	 1.0027792121594831e+05,	 3.6020184599169943e+02,	 2.2289683912329838e+00 
2.7083333333333337e-01,	 4.1381953387806501e-03,	 1.1136315967776595e+00,	 7.8847387947672939e+02,	 1.2647576577597577e+02,	 3.2557157108200465e+02,	 1.0430808141434735e+05,	 3.6211976028670625e+02,	 2.2052184539030941e+00 
2.7916666666666667e-01,	 5.6284734742929263e-03,	 1.1283148973783268e+00,	 7.8597881118700457e+02,	 1.2896799635581195e+02,	 3.2720611969410538e+02,	 1.0621397866427225e+05,	 3.6302764252250716e+02,	 2.1940187234542496e+00 
2.8749999999999998e-01,	 7.1187516098052007e-03,	 1.1364270121779070e+00,	 7.8453762495630849e+02,	 1.3037787201383395e+02,	 3.2814847264302705e+02,	 1.0728570829657670e+05,	 3.6355002610735141e+02,	 2.1875867607642818e+00 
2.9583333333333334e-01,	 8.6090297453174751e-03,	 1.1415166088041937e+00,	 7.8359087529398232e+02,	 1.3128001029944383e+02,	 3.2876846473163243e+02,	 1.0796980719332074e+05,	 3.6389330330414543e+02,	 2.1833648932277838e+00 
3.0416666666666664e-01,	 1.0099307880829723e-02,	 1.1449960279939353e+00,	 7.8291490269091207e+02,	 1.3190652330341049e+02,	 3.2921240218286732e+02,	 1.0844514287990355e+05,	 3.6413890375808967e+02,	 2.1803466487997736e+00 
3.1250000000000000e-01,	 1.1589586016342000e-02,	 1.1475190892157150e+00,	 7.8240468216685576e+02,	 1.3236693987615601e+02,	 3.2954856473670731e+02,	 1.0879508625623674e+05,	 3.6432476952505937e+02,	 2.1780637818752933e+00 
3.2083333333333336e-01,	 1.3079864151854300e-02,	 1.1494281544311460e+00,	 7.8200416482803621e+02,	 1.3271949062158632e+02,	 3.2981328921775196e+02,	 1.0906362260052271e+05,	 3.6447107015426940e+02,	 2.1762676424427139e+00 
3.2916666666666666e-01,	 1.4570142287366548e-02,	 1.1509198930456723e+00,	 7.8168046141426885e+02,	 1.3299801644465177e+02,	 3.3002788315985077e+02,	 1.0927622103843607e+05,	 3.6458962293548842e+02,	 2.1748126639515992e+00 
3.3749999999999997e-01,	 1.6060420422878800e-02,	 1.1521153831906481e+00,	 7.8141286831651701e+02,	 1.3322354605151006e+02,	 3.3020576703104928e+02,	 1.0944868974479719e+05,	 3.6468786596295291e+02,	 2.1736072816673189e+00 
3.4583333333333333e-01,	 1.7550698558391073e-02,	 1.1530932374689979e+00,	 7.8118763706393656e+02,	 1.3340984050899078e+02,	 3.3035586438176836e+02,	 1.0959137686957608e+05,	 3.6477074226151484e+02,	 2.1725906775891231e+00 
3.5416666666666663e-01,	 1.9040976693903349e-02,	 1.1539066947569003e+00,	 7.8099524601245707e+02,	 1.3356628372546896e+02,	 3.3048436595464932e+02,	 1.0971134767791626e+05,	 3.6484167948686104e+02,	 2.1717206970115974e+00 
3.6249999999999993e-01,	 2.0531254829415625e-02,	 1.1545930698370348e+00,	 7.8082887311801767e+02,	 1.3369949387106945e+02,	 3.3059571597727933e+02,	 1.0981359397823046e+05,	 3.6490313732280487e+02,	 2.1709671010555955e+00 
3.7083333333333335e-01,	 2.2021532964927877e-02,	 1.1551792747629235e+00,	 7.8068349155617545e+02,	 1.3381427152378379e+02,	 3.3069319598644580e+02,	 1.0990174431505568e+05,	 3.6495693133422884e+02,	 2.1703075767363229e+00 
3.7916666666666665e-01,	 2.3511811100440150e-02,	 1.1556851943865218e+00,	 7.8055530900494512e+02,	 1.3391418284197269e+02,	 3.3077928687065855e+02,	 1.0997850038517718e+05,	 3.6500443370299848e+02,	 2.1697252649435321e+00 
3.8750000000000001e-01,	 2.5002089235952450e-02,	 1.1561258296894961e+00,	 7.8044140643298908e+02,	 1.3400193184187265e+02,	 3.3085590224157323e+02,	 1.1004591559726631e+05,	 3.6504670256936180e+02,	 2.1692071682424552e+00 
3.9583333333333337e-01,	 2.6492367371464695e-02,	 1.1565127033086435e+00,	 7.8033949773203562e+02,	 1.3407960570179813e+02,	 3.3092454387500368e+02,	 1.1010557870884758e+05,	 3.6508456815111919e+02,	 2.1687430911033809e+00 
4.0416666666666667e-01,	 2.7982645506976954e-02,	 1.1568548072306160e+00,	 7.8024776523958406e+02,	 1.3414884088991218e+02,	 3.3098640819766666e+02,	 1.1015873830399374e+05,	 3.6511869172169577e+02,	 2.1683249143464076e+00 
4.1249999999999998e-01,	 2.9472923642489247e-02,	 1.1571592574852649e+00,	 7.8016474442868798e+02,	 1.3421093839715249e+02,	 3.3104246103948947e+02,	 1.1020638924257454e+05,	 3.6514960700002570e+02,	 2.1679460860974826e+00 
4.2083333333333334e-01,	 3.0963201778001527e-02,	 1.1574317561978718e+00,	 7.8008924132839752e+02,	 1.3426694537325338e+02,	 3.3109349124317322e+02,	 1.1024933399475405e+05,	 3.6517774982605829e+02,	 2.1676012569071315e+00 
4.2916666666666664e-01,	 3.2453479913513772e-02,	 1.1576769239322890e+00,	 7.8002027226028440e+02,	 1.3431771405706186e+02,	 3.3114014984435738e+02,	 1.1028822698904236e+05,	 3.6520347984371028e+02,	 2.1672860132034848e+00 
4.3750000000000000e-01,	 3.3943758049026024e-02,	 1.1578985428300417e+00,	 7.7995701911616686e+02,	 1.3436394503741812e+02,	 3.3118297919187802e+02,	 1.1032360722562324e+05,	 3.6522709661297290e+02,	 2.1669966792682400e+00 
4.4583333333333336e-01,	 3.5434036184538303e-02,	 1.1580997372260520e+00,	 7.7989879566603929e+02,	 1.3440621949532763e+02,	 3.3122243491957920e+02,	 1.1035592262767760e+05,	 3.6524885176436732e+02,	 2.1667301678820987e+00 
4.5416666666666666e-01,	 3.6924314320050604e-02,	 1.1582831096868573e+00,	 7.7984502182881306e+02,	 1.3444502356577436e+02,	 3.3125890275108185e+02,	 1.1038554847563893e+05,	 3.6526895829334575e+02,	 2.1664838661347412e+00 
4.6249999999999997e-01,	 3.8414592455562849e-02,	 1.1584508447692139e+00,	 7.7979520378080088e+02,	 1.3448076697622415e+02,	 3.3129271151151619e+02,	 1.1041280153760071e+05,	 3.6528759775559405e+02,	 2.1662555470384621e+00 
4.7083333333333333e-01,	 3.9904870591075101e-02,	 1.1586047890728377e+00,	 7.7974891840410851e+02,	 1.3451379747003401e+02,	 3.3132414331567117e+02,	 1.1043795102498573e+05,	 3.6530492590003098e+02,	 2.1660433003434449e+00 
4.7916666666666663e-01,	 4.1395148726587380e-02,	 1.1587465136570623e+00,	 7.7970580100293137e+02,	 1.3454441208535982e+02,	 3.3135344162715802e+02,	 1.1046122717596032e+05,	 3.6532107712403030e+02,	 2.1658454778262306e+00 
4.8749999999999993e-01,	 4.2885426862099653e-02,	 1.1588773631816069e+00,	 7.7966553550928575e+02,	 1.3457286606070699e+02,	 3.3138081769355426e+02,	 1.1048282804530486e+05,	 3.6533616803036529e+02,	 2.1656606496150648e+00 
4.9583333333333335e-01,	 4.4375704997611926e-02,	 1.1589984949429195e+00,	 7.7962784660580860e+02,	 1.3459937992935434e+02,	 3.3140645572924802e+02,	 1.1050292492331893e+05,	 3.6535030029158543e+02,	 2.1654875690234041e+00 
5.0416666666666665e-01,	 4.5865983133124177e-02,	 1.1591109101427302e+00,	 7.7959249333939999e+02,	 1.3462414521796137e+02,	 3.3143051712310859e+02,	 1.1052166669630422e+05,	 3.6536356297516323e+02,	 2.1653251440069421e+00 
5.1249999999999996e-01,	 4.7356261268636457e-02,	 1.1592154791281073e+00,	 7.7955926390506863e+02,	 1.3464732905916148e+02,	 3.3145314387971808e+02,	 1.1053918338216763e+05,	 3.6537603444488957e+02,	 2.1651724138250494e+00 
5.2083333333333326e-01,	 4.8846539404148757e-02,	 1.1593129619129705e+00,	 7.7952797135595404e+02,	 1.3466907795209855e+02,	 3.3147446145320060e+02,	 1.1055558901770451e+05,	 3.6538778392648845e+02,	 2.1650285298256886e+00 
5.2916666666666667e-01,	 5.0336817539661002e-02,	 1.1594040249751538e+00,	 7.7949845005241480e+02,	 1.3468952084874843e+02,	 3.3149458109575528e+02,	 1.1057098403206181e+05,	 3.6539887280498573e+02,	 2.1648927395241060e+00 
5.3749999999999998e-01,	 5.1827095675173247e-02,	 1.1594892550920484e+00,	 7.7947055270509907e+02,	 1.3470877170290854e+02,	 3.3151360181566980e+02,	 1.1058545720999822e+05,	 3.6540935570624310e+02,	 2.1647643733314466e+00 
5.4583333333333339e-01,	 5.3317373810685548e-02,	 1.1595691708040989e+00,	 7.7944414789881148e+02,	 1.3472693158773731e+02,	 3.3153161201885530e+02,	 1.1059908732526730e+05,	 3.6541928140359823e+02,	 2.1646428334304413e+00 
5.5416666666666670e-01,	 5.4807651946197827e-02,	 1.1596442319662468e+00,	 7.7941911800793798e+02,	 1.3474409046475776e+02,	 3.3154869089233051e+02,	 1.1061194450706220e+05,	 3.6542869358191331e+02,	 2.1645275844014216e+00 
5.6250000000000000e-01,	 5.6297930081710079e-02,	 1.1597148477474402e+00,	 7.7939535743288150e+02,	 1.3476032866928006e+02,	 3.3156490957591274e+02,	 1.1062409138897122e+05,	 3.6543763148460494e+02,	 2.1644181452846403e+00 
5.7083333333333330e-01,	 5.7788208217222331e-02,	 1.1597813833640005e+00,	 7.7937277110099774e+02,	 1.3477571816397096e+02,	 3.3158033215920022e+02,	 1.1063558407982165e+05,	 3.6544613046415287e+02,	 2.1643140828271901e+00 
5.7916666666666661e-01,	 5.9278486352734604e-02,	 1.1598441657732026e+00,	 7.7935127318683612e+02,	 1.3479032360155060e+02,	 3.3159501653354829e+02,	 1.1064647298771565e+05,	 3.6545422245250546e+02,	 2.1642150057129608e+00 
5.8750000000000002e-01,	 6.0768764488246904e-02,	 1.1599034885096355e+00,	 7.7933078601490547e+02,	 1.3480420322982764e+02,	 3.3160901512322232e+02,	 1.1065680352258879e+05,	 3.6546193636474521e+02,	 2.1641205596115562e+00 
5.9583333333333333e-01,	 6.2259042623759156e-02,	 1.1599596158100165e+00,	 7.7931123911534200e+02,	 1.3481740966552442e+02,	 3.3162237551524152e+02,	 1.1066661669757751e+05,	 3.6546929844679909e+02,	 2.1640304229137945e+00 
6.0416666666666663e-01,	 6.3749320759271408e-02,	 1.1600127861456984e+00,	 7.7929256840801611e+02,	 1.3482999055868035e+02,	 3.3163514100403296e+02,	 1.1067594964585385e+05,	 3.6547633257609914e+02,	 2.1639443030444685e+00 
6.1250000000000004e-01,	 6.5239598894783674e-02,	 1.1600632152588193e+00,	 7.7927471549521533e+02,	 1.3484198916511184e+02,	 3.3164735106400832e+02,	 1.1068483606638091e+05,	 3.6548306052243930e+02,	 2.1638619332634472e+00 
6.2083333333333335e-01,	 6.6729877030295953e-02,	 1.1601110987819152e+00,	 7.7925762704625038e+02,	 1.3485344484159666e+02,	 3.3165904176105067e+02,	 1.1069330660980992e+05,	 3.6548950217509775e+02,	 2.1637830698806044e+00 
6.2916666666666665e-01,	 6.8220155165808219e-02,	 1.1601566145053335e+00,	 7.7924125426042417e+02,	 1.3486439347553281e+02,	 3.3167024611188890e+02,	 1.1070138921360434e+05,	 3.6549567574118419e+02,	 2.1637074898237376e+00 
6.3749999999999996e-01,	 6.9710433301320485e-02,	 1.1601999243466683e+00,	 7.7922555239686756e+02,	 1.3487486785906930e+02,	 3.3168099439895701e+02,	 1.1070910939406029e+05,	 3.6550159791940899e+02,	 2.1636349885079658e+00 
6.4583333333333326e-01,	 7.1200711436832750e-02,	 1.1602411760663067e+00,	 7.7921048036178945e+02,	 1.3488489801579215e+02,	 3.3169131444700531e+02,	 1.1071649050148934e+05,	 3.6550728405273526e+02,	 2.1635653779641233e+00 
6.5416666666666667e-01,	 7.2690989572345058e-02,	 1.1602805047668305e+00,	 7.7919600034501570e+02,	 1.3489451148697182e+02,	 3.3170123186684464e+02,	 1.1072355394393537e+05,	 3.6551274826288665e+02,	 2.1634984851897112e+00 
6.6249999999999998e-01,	 7.4181267707857296e-02,	 1.1603180342067478e+00,	 7.7918207749917394e+02,	 1.3490373358296000e+02,	 3.3171077027063660e+02,	 1.1073031938378405e+05,	 3.6551800356914669e+02,	 2.1634341506924777e+00 
6.7083333333333328e-01,	 7.5671545843369561e-02,	 1.1603538779551672e+00,	 7.7916867965570441e+02,	 1.3491258760469998e+02,	 3.3171995146258826e+02,	 1.1073680491107538e+05,	 3.6552306199358196e+02,	 2.1633722272005032e+00 
6.7916666666666670e-01,	 7.7161823978881827e-02,	 1.1603881404088285e+00,	 7.7915577707295631e+02,	 1.3492109503928489e+02,	 3.3172879560820928e+02,	 1.1074302719660182e+05,	 3.6552793465443148e+02,	 2.1633125785173934e+00 
6.8750000000000000e-01,	 7.8652102114394107e-02,	 1.1604209176907452e+00,	 7.7914334221210379e+02,	 1.3492927573318374e+02,	 3.3173732138496098e+02,	 1.1074900162756174e+05,	 3.6553263184922605e+02,	 2.1632550785034130e+00 
6.9583333333333330e-01,	 8.0142380249906373e-02,	 1.1604522984457251e+00,	 7.7913134953744475e+02,	 1.3493714804594765e+02,	 3.3174554611659011e+02,	 1.1075474242798067e+05,	 3.6553716312890231e+02,	 2.1631996101670365e+00 
7.0416666666666661e-01,	 8.1632658385418624e-02,	 1.1604823645465556e+00,	 7.7911977533798472e+02,	 1.3494472898698598e+02,	 3.3175348589320754e+02,	 1.1076026276589510e+05,	 3.6554153736404947e+02,	 2.1631460648529615e+00 
7.1250000000000002e-01,	 8.3122936520930890e-02,	 1.1605111917218993e+00,	 7.7910859756777813e+02,	 1.3495203433745348e+02,	 3.3176115567880237e+02,	 1.1076557484891028e+05,	 3.6554576280422236e+02,	 2.1630943415151367e+00 
7.2083333333333333e-01,	 8.4613214656443198e-02,	 1.1605388501163079e+00,	 7.7909779570267040e+02,	 1.3495907875923149e+02,	 3.3176856940775457e+02,	 1.1077069000964132e+05,	 3.6554984713118273e+02,	 2.1630443460642277e+00 
7.2916666666666663e-01,	 8.6103492791955449e-02,	 1.1605654047903182e+00,	 7.7908735061158438e+02,	 1.3496587589246738e+02,	 3.3177574007159370e+02,	 1.1077561878220893e+05,	 3.6555379750675866e+02,	 2.1629959907810643e+00 
7.3750000000000004e-01,	 8.7593770927467715e-02,	 1.1605909161682229e+00,	 7.7907724444060727e+02,	 1.3497243844311978e+02,	 3.3178267979716242e+02,	 1.1078037097089710e+05,	 3.6555762061596062e+02,	 2.1629491937882386e+00 
7.4583333333333335e-01,	 8.9084049062979981e-02,	 1.1606154404393962e+00,	 7.7906746050848596e+02,	 1.3497877826159089e+02,	 3.3178939991712247e+02,	 1.1078495571184359e+05,	 3.6556132270587256e+02,	 2.1629038785734975e+00 
7.5416666666666665e-01,	 9.0574327198492260e-02,	 1.1606390299191676e+00,	 7.7905798321214866e+02,	 1.3498490641361056e+02,	 3.3179591103371820e+02,	 1.1078938152863730e+05,	 3.6556490962082262e+02,	 2.1628599735587355e+00 
7.6249999999999996e-01,	 9.2064605334004498e-02,	 1.1606617333734968e+00,	 7.7904879794122758e+02,	 1.3499083324414835e+02,	 3.3180222307649098e+02,	 1.1079365638245778e+05,	 3.6556838683421631e+02,	 2.1628174117099062e+00 
7.7083333333333326e-01,	 9.3554883469516750e-02,	 1.1606835963118807e+00,	 7.7903989100054298e+02,	 1.3499656843520921e+02,	 3.3180834535463646e+02,	 1.1079778771740815e+05,	 3.6557175947741405e+02,	 2.1627761301831550e+00 
7.7916666666666667e-01,	 9.5045161605029044e-02,	 1.1607046612516674e+00,	 7.7903124953977067e+02,	 1.3500212105809499e+02,	 3.3181428660453190e+02,	 1.1080178250151896e+05,	 3.6557503236594403e+02,	 2.1627360700036218e+00 
7.8749999999999998e-01,	 9.6535439740541351e-02,	 1.1607249679574667e+00,	 7.7902286148943222e+02,	 1.3500749962085894e+02,	 3.3182005503300076e+02,	 1.1080564726396262e+05,	 3.6557821002336311e+02,	 2.1626971757730620e+00 
7.9583333333333328e-01,	 9.8025717876053617e-02,	 1.1607445536579493e+00,	 7.7901471550262954e+02,	 1.3501271211137063e+02,	 3.3182565835671198e+02,	 1.1080938812882869e+05,	 3.6558129670298609e+02,	 2.1626593954036020e+00 
8.0416666666666670e-01,	 9.9515996011565883e-02,	 1.1607634532426228e+00,	 7.7900680090190622e+02,	 1.3501776603648997e+02,	 3.3183110383812294e+02,	 1.1081301084584220e+05,	 3.6558429640770737e+02,	 2.1626226798748691e+00 
8.1250000000000000e-01,	 1.0100627414707813e-01,	 1.1607816994407634e+00,	 7.7899910763070318e+02,	 1.3502266845777208e+02,	 3.3183639831832409e+02,	 1.1081652081835155e+05,	 3.6558721290811394e+02,	 2.1625869830120634e+00 
8.2083333333333330e-01,	 1.0249655228259039e-01,	 1.1607993229840512e+00,	 7.7899162620901188e+02,	 1.3502742602397987e+02,	 3.3184154824705683e+02,	 1.1081992312882358e+05,	 3.6559004975903940e+02,	 2.1625522612831398e+00 
8.2916666666666661e-01,	 1.0398683041810265e-01,	 1.1608163527551860e+00,	 7.7898434769269488e+02,	 1.3503204500087699e+02,	 3.3184655971025057e+02,	 1.1082322256217775e+05,	 3.6559281031474865e+02,	 2.1625184736127609e+00 
8.3750000000000002e-01,	 1.0547710855361493e-01,	 1.1608328159231607e+00,	 7.7897726363626509e+02,	 1.3503653129838813e+02,	 3.3185143845523100e+02,	 1.1082642362707417e+05,	 3.6559549774283914e+02,	 2.1624855812119899e+00 
8.4583333333333333e-01,	 1.0696738668912720e-01,	 1.1608487380671275e+00,	 7.7897036605867265e+02,	 1.3504089049553329e+02,	 3.3185618991389561e+02,	 1.1082953057543850e+05,	 3.6559811503701997e+02,	 2.1624535474217290e+00 
8.5416666666666663e-01,	 1.0845766482463945e-01,	 1.1608641432896669e+00,	 7.7896364741187938e+02,	 1.3504512786327399e+02,	 3.3186081922400587e+02,	 1.1083254742035044e+05,	 3.6560066502885280e+02,	 2.1624223375688807e+00 
8.6250000000000004e-01,	 1.0994794296015170e-01,	 1.1608790543206513e+00,	 7.7895710055192922e+02,	 1.3504924838551062e+02,	 3.3186533124879264e+02,	 1.1083547795247442e+05,	 3.6560315039856215e+02,	 2.1623919188339089e+00 
8.7083333333333335e-01,	 1.1143822109566399e-01,	 1.1608934926123460e+00,	 7.7895071871233517e+02,	 1.3505325677834210e+02,	 3.3186973059499900e+02,	 1.1083832575513546e+05,	 3.6560557368498417e+02,	 2.1623622601289663e+00 
8.7916666666666665e-01,	 1.1292849923117626e-01,	 1.1609074784269395e+00,	 7.7894449547950308e+02,	 1.3505715750783665e+02,	 3.3187402162954243e+02,	 1.1084109421821406e+05,	 3.6560793729475358e+02,	 2.1623333319853466e+00 
8.8749999999999996e-01,	 1.1441877736668851e-01,	 1.1609210309169438e+00,	 7.7893842477006092e+02,	 1.3506095480638626e+02,	 3.3187820849489054e+02,	 1.1084378655093318e+05,	 3.6561024351078134e+02,	 2.1623051064496339e+00 
8.9583333333333326e-01,	 1.1590905550220082e-01,	 1.1609341681992871e+00,	 7.7893250080989458e+02,	 1.3506465268781378e+02,	 3.3188229512328047e+02,	 1.1084640579365939e+05,	 3.6561249450009473e+02,	 2.1622775569876618e+00 
9.0416666666666667e-01,	 1.1739933363771309e-01,	 1.1609469074234022e+00,	 7.7892671811479192e+02,	 1.3506825496127550e+02,	 3.3188628524985313e+02,	 1.1084895482877035e+05,	 3.6561469232107862e+02,	 2.1622506583958079e+00 
9.1249999999999998e-01,	 1.1888961177322535e-01,	 1.1609592648342639e+00,	 7.7892107147247702e+02,	 1.3507176524416784e+02,	 3.3189018242484315e+02,	 1.1085143639072661e+05,	 3.6561683893019654e+02,	 2.1622243867186661e+00 
9.2083333333333328e-01,	 1.2037988990873760e-01,	 1.1609712558304459e+00,	 7.7891555592599104e+02,	 1.3507518697403546e+02,	 3.3189399002485999e+02,	 1.1085385307536596e+05,	 3.6561893618820994e+02,	 2.1621987191728658e+00 
9.2916666666666670e-01,	 1.2187016804424985e-01,	 1.1609828950179335e+00,	 7.7891016675824494e+02,	 1.3507852341963391e+02,	 3.3189771126337200e+02,	 1.1085620734852807e+05,	 3.6562098586595840e+02,	 2.1621736340762658e+00 
9.3750000000000000e-01,	 1.2336044617976215e-01,	 1.1609941962596957e+00,	 7.7890489947772039e+02,	 1.3508177769113513e+02,	 3.3190134920041743e+02,	 1.1085850155401725e+05,	 3.6562298964971336e+02,	 2.1621491107823814e+00 
9.4583333333333330e-01,	 1.2485072431527441e-01,	 1.1610051727218238e+00,	 7.7889974980513705e+02,	 1.3508495274965270e+02,	 3.3190490675165614e+02,	 1.1086073792101847e+05,	 3.6562494914616815e+02,	 2.1621251296192550e+00 
9.5416666666666661e-01,	 1.2634100245078669e-01,	 1.1610158369161714e+00,	 7.7889471366107557e+02,	 1.3508805141605808e+02,	 3.3190838669677692e+02,	 1.1086291857096541e+05,	 3.6562686588707328e+02,	 2.1621016718326906e+00 
9.6250000000000002e-01,	 1.2783128058629895e-01,	 1.1610262007399612e+00,	 7.7888978715444944e+02,	 1.3509107637918848e+02,	 3.3191179168732742e+02,	 1.1086504552392675e+05,	 3.6562874133355240e+02,	 2.1620787195333824e+00 
9.7083333333333333e-01,	 1.2932155872181123e-01,	 1.1610362755126209e+00,	 7.7888496657175165e+02,	 1.3509403020349609e+02,	 3.3191512425401947e+02,	 1.1086712070455388e+05,	 3.6563057688012981e+02,	 2.1620562556475869e+00 
9.7916666666666663e-01,	 1.3081183685732350e-01,	 1.1610460720098488e+00,	 7.7888024836706211e+02,	 1.3509691533612997e+02,	 3.3191838681351976e+02,	 1.1086914594759292e+05,	 3.6563237385847407e+02,	 2.1620342638712744e+00 
9.8750000000000004e-01,	 1.3230211499283581e-01,	 1.1610556004955008e+00,	 7.7887562915268586e+02,	 1.3509973411358601e+02,	 3.3192158167481085e+02,	 1.1087112300304591e+05,	 3.6563413354090426e+02,	 2.1620127286271780e+00 
9.9583333333333335e-01,	 1.3379239312834804e-01,	 1.1610648707512070e+00,	 7.7887110569042079e+02,	 1.3510248876789248e+02,	 3.3192471104512572e+02,	 1.1087305354097362e+05,	 3.6563585714366144e+02,	 2.1619916350247323e+00 
4.1666666666666501e-03,	 1.0375000000000002e-03,	 9.2471165334369665e-01,	 8.2339999999999998e+02,	 0.0000000000000000e+00,	 3.0556000000000000e+02,	 8.1289185029999993e+04,	 3.5081425908768125e+02,	 2.3471109815812885e+00 
1.2500000000000001e-02,	 1.0375000000000002e-03,	 9.2471165334369665e-01,	 8.2339999999999998e+02,	 0.0000000000000000e+00,	 3.0556000000000000e+02,	 8.1289185029999993e+04,	 3.5081425908768125e+02,	 2.3471109815812885e+00 
2.0833333333333353e-02,	 1.0375000000000002e-03,	 9.2471165334369665e-01,	 8.2339999999999998e+02,	 0.0000000000000000e+00,	 3.0556000000000000e+02,	 8.1289185029999993e+04,	 3.5081425908768125e+02,	 2.3471109815812885e+00 
2.9166666666666646e-02,	 1.0375000000000002e-03,	 9.2471165334369665e-01,	 8.2339999999999998e+02,	 0.0000000000000000e+00,	 3.0556000000000000e+02,	 8.1289185029999993e+04,	 3.5081425908768125e+02,	 2.3471109815812885e+00 
3.7499999999999999e-02,	 1.0375000000000002e-03,	 9.2471165334369665e-01,	 8.2339999999999998e+02,	 0.0000000000000000e+00,	 3.0556000000000000e+02,	 8.1289185029999993e+04,	 3.5081425908768125e+02,	 2.3471109815812885e+00 
4.5833333333333351e-02,	 1.0375000000000002e-03,	 9.2471165334369665e-01,	 8.2339999999999998e+02,	 0.0000000000000000e+00,	 3.0556000000000000e+02,	 8.1289185029999993e+04,	 3.5081425908768125e+02,	 2.3471109815812885e+00 
5.4166666666666655e-02,	 1.0375000000000002e-03,	 9.2471165334369665e-01,	 8.2339999999999998e+02,	 0.0000000000000000e+00,	 3.0556000000000000e+02,	 8.1289185029999993e+04,	 3.5081425908768125e+02,	 2.3471109815812885e+00 
6.2500000000000000e-02,	 1.0375000000000002e-03,	 9.2471165334369665e-01,	 8.2339999999999998e+02,	 0.0000000000000000e+00,	 3.0556000000000000e+02,	 8.1289185029999993e+04,	 3.5081425908768125e+02,	 2.3471109815812885e+00 
7.0833333333333345e-02,	 1.0375000000000002e-03,	 9.2471165334369665e-01,	 8.2339999999999998e+02,	 0.0000000000000000e+00,	 3.0556000000000000e+02,	 8.1289185029999993e+04,	 3.5081425908768125e+02,	 2.3471109815812885e+00 
7.9166666666666649e-02,	 1.0375000000000002e-03,	 9.2471165334369665e-01,	 8.2339999999999998e+02,	 0.0000000000000000e+00,	 3.0556000000000000e+02,	 8.1289185029999993e+04,	 3.5081425908768125e+02,	 2.3471109815812885e+00 
8.7500000000000008e-02,	 1.0375000000000002e-03,	 9.2471165334369665e-01,	 8.2339999999999998e+02,	 0.0000000000000000e+00,	 3.0556000000000000e+02,	 8.1289185029999993e+04,	 3.5081425908768125e+02,	 2.3471109815812885e+00 
9.5833333333333354e-02,	 1.0375000000000002e-03,	 9.2471165334369665e-01,	 8.2339999999999998e+02,	 0.0000000000000000e+00,	 3.0556000000000000e+02,	 8.1289185029999993e+04,	 3.5081425908768125e+02,	 2.3471109815812885e+00 
1.0416666666666666e-01,	 1.0375000000000002e-03,	 9.2471165334369665e-01,	 8.2339999999999998e+02,	 0.0000000000000000e+00,	 3.0556000000000000e+02,	 8.1289185029999993e+04,	 3.5081425908768125e+02,	 2.3471109815812885e+00 