TITLE = "Final State"
VARIABLES = "X", "Y", "rho", "u", "v", "T", "p", "c", "M"
ZONE I=77, J=27, DATAPACKING=POINT
-7.7777780000000005e-02,	 1.0000000000000000e-04,	 1.1586407740522199e-02,	 1.7360000000000000e+03,	 3.0729063450429477e-14,	 3.0000000000000000e+02,	 1.0000000000000000e+03,	 3.3237670711487283e+02,	 5.2229893456403387e+00 
-7.2222220000000004e-02,	 1.0000000000000000e-04,	 1.1586407740522199e-02,	 1.7360000000000000e+03,	 1.8951048057530927e-16,	 3.0000000000000000e+02,	 1.0000000000000000e+03,	 3.3237670711487283e+02,	 5.2229893456403387e+00 
-6.6666669999999997e-02,	 1.0000000000000000e-04,	 1.1586407740522199e-02,	 1.7360000000000000e+03,	 -1.2000588505429410e-14,	 3.0000000000000000e+02,	 1.0000000000000000e+03,	 3.3237670711487283e+02,	 5.2229893456403387e+00 
-6.1111110000000003e-02,	 1.0000000000000000e-04,	 1.1586407740522199e-02,	 1.7360000000000000e+03,	 -1.0972627047164316e-14,	 3.0000000000000000e+02,	 1.0000000000000000e+03,	 3.3237670711487283e+02,	 5.2229893456403387e+00 
-5.5555559999999997e-02,	 1.0000000000000000e-04,	 1.1586407740522199e-02,	 1.7360000000000000e+03,	 -5.5372830164069052e-15,	 3.0000000000000000e+02,	 1.0000000000000000e+03,	 3.3237670711487283e+02,	 5.2229893456403387e+00 
-5.0000000000000003e-02,	 1.0000000000000000e-04,	 1.1586407740522199e-02,	 1.7360000000000000e+03,	 4.0500775631925589e-15,	 3.0000000000000000e+02,	 1.0000000000000000e+03,	 3.3237670711487283e+02,	 5.2229893456403387e+00 
-4.4444440000000002e-02,	 1.0000000000000000e-04,	 1.1586407740522199e-02,	 1.7360000000000000e+03,	 -1.6419843503248359e-16,	 3.0000000000000000e+02,	 1.0000000000000000e+03,	 3.3237670711487283e+02,	 5.2229893456403387e+00 
-3.8888890000000002e-02,	 1.0000000000000000e-04,	 1.1586407740522199e-02,	 1.7360000000000000e+03,	 -5.3709437976674864e-17,	 3.0000000000000000e+02,	 1.0000000000000000e+03,	 3.3237670711487283e+02,	 5.2229893456403387e+00 
-3.3333330000000001e-02,	 1.0000000000000000e-04,	 1.1586407740522199e-02,	 1.7360000000000000e+03,	 -5.1507408744650651e-15,	 3.0000000000000000e+02,	 1.0000000000000000e+03,	 3.3237670711487283e+02,	 5.2229893456403387e+00 
-2.7777779999999998e-02,	 1.0000000000000000e-04,	 1.1586407740522199e-02,	 1.7360000000000000e+03,	 -2.6156588087187485e-15,	 3.0000000000000000e+02,	 1.0000000000000000e+03,	 3.3237670711487283e+02,	 5.2229893456403387e+00 
-2.2222220000000001e-02,	 1.0000000000000000e-04,	 1.1586407740522199e-02,	 1.7360000000000000e+03,	 -1.8858027350202606e-15,	 3.0000000000000000e+02,	 1.0000000000000000e+03,	 3.3237670711487283e+02,	 5.2229893456403387e+00 
-1.6666670000000001e-02,	 1.0000000000000000e-04,	 1.1586407740522199e-02,	 1.7360000000000000e+03,	 -2.4573685246496919e-15,	 3.0000000000000000e+02,	 1.0000000000000000e+03,	 3.3237670711487283e+02,	 5.2229893456403387e+00 
-1.1111110000000000e-02,	 1.0000000000000000e-04,	 1.1586407740522197e-02,	 1.7360000000000005e+03,	 -1.4260145104680823e-14,	 2.9999999999999943e+02,	 9.9999999999999807e+02,	 3.3237670711487249e+02,	 5.2229893456403449e+00 
-5.5555559999999997e-03,	 1.0000000000000000e-04,	 1.1573730063549562e-02,	 1.7360317820778580e+03,	 2.8544801669535547e+00,	 2.9989331367335183e+02,	 9.9855058273144527e+02,	 3.3231760177638688e+02,	 5.2240209954093419e+00 
0.0000000000000000e+00,	 1.0000000000000000e-04,	 1.1603452965425913e-02,	 1.7330499866758494e+03,	 3.1606905754384339e+01,	 3.0424035500688638e+02,	 1.0156264502816990e+03,	 3.3471745685338971e+02,	 5.1785114472004894e+00 
4.0447620000000004e-03,	 1.1838100000000000e-03,	 1.1985473909994578e-02,	 1.7191721785502266e+03,	 9.2734343464641924e+01,	 3.2568669624847178e+02,	 1.1230139913760872e+03,	 3.4631393169619520e+02,	 4.9714184407565529e+00 
8.0895240000000007e-03,	 2.2676189999999998e-03,	 1.2693158087099182e-02,	 1.7002745442935825e+03,	 1.5292331830752141e+02,	 3.5232753159411817e+02,	 1.2866078820158439e+03,	 3.6019961487944710e+02,	 4.7394211766235737e+00 
1.2134290000000001e-02,	 3.3514290000000000e-03,	 1.3487900549131265e-02,	 1.6847226857576788e+03,	 1.9562494713322332e+02,	 3.7119529677251916e+02,	 1.4403789219508787e+03,	 3.6971850307545014e+02,	 4.5873883356516680e+00 
1.6179050000000000e-02,	 4.4352380000000002e-03,	 1.4345006773330936e-02,	 1.6719585600488958e+03,	 2.2730754233975733e+02,	 3.8536763718078964e+02,	 1.5903984189586315e+03,	 3.7671036837643271e+02,	 4.4791423608002097e+00 
2.0223809999999998e-02,	 5.5190480000000004e-03,	 1.5226934641441295e-02,	 1.6615726680373409e+03,	 2.5175927370579524e+02,	 3.9628293556721917e+02,	 1.7359922921570337e+03,	 3.8200815948119447e+02,	 4.3992189959997168e+00 
2.4268570000000000e-02,	 6.6028570000000002e-03,	 1.6102689798039509e-02,	 1.6531119376386928e+03,	 2.7127040603711146e+02,	 4.0480205938794512e+02,	 1.8753013985327673e+03,	 3.8609245095131286e+02,	 4.3389125782582623e+00 
2.8313330000000001e-02,	 7.6866670000000003e-03,	 1.6950055240489568e-02,	 1.6461598521377841e+03,	 2.8729751005105015e+02,	 4.1152964082243705e+02,	 2.0067911473669451e+03,	 3.8928754962909011e+02,	 4.2925652944553478e+00 
3.2358100000000001e-02,	 8.7704759999999993e-03,	 1.7753547837631226e-02,	 1.6403832964778508e+03,	 3.0078417060634979e+02,	 4.1690094677383536e+02,	 2.1293545183457218e+03,	 3.9181981412367571e+02,	 4.2563736595977479e+00 
3.6402860000000002e-02,	 9.8542859999999986e-03,	 1.8502553120406585e-02,	 1.6355331195019478e+03,	 3.1234610806506555e+02,	 4.2122912437926141e+02,	 2.2422291200264544e+03,	 3.9384845777225979e+02,	 4.2277458720505328e+00 
4.0447619999999997e-02,	 1.0938099999999999e-02,	 1.9190019123063770e-02,	 1.6314289143996934e+03,	 3.2238321984638822e+02,	 4.2473846817526203e+02,	 2.3449141180827392e+03,	 3.9548566986252513e+02,	 4.2048972897916874e+00 
4.4492379999999998e-02,	 1.2021899999999999e-02,	 1.9812153092537477e-02,	 1.6279326806858330e+03,	 3.3115504267362019e+02,	 4.2759507204352622e+02,	 2.4372175911240402e+03,	 3.9681337243313470e+02,	 4.1865351932990018e+00 
4.8537139999999999e-02,	 1.3105710000000000e-02,	 2.0370201765050416e-02,	 1.6249216842755241e+03,	 3.3885654217016224e+02,	 4.2994684619328456e+02,	 2.5196489430667943e+03,	 3.9790311344891813e+02,	 4.1715626779121449e+00 
5.2581900000000001e-02,	 1.4189519999999999e-02,	 2.0868679283839255e-02,	 1.6222970878370445e+03,	 3.4563533656689890e+02,	 4.3191571189959535e+02,	 2.5931277036396132e+03,	 3.9881313636017319e+02,	 4.1591102881387503e+00 
5.6626669999999997e-02,	 1.5273330000000000e-02,	 2.1313822674193992e-02,	 1.6199835436074968e+03,	 3.5160657596699457e+02,	 4.3359659026884486e+02,	 2.6587478029115719e+03,	 3.9958840965825686e+02,	 4.1485221795826890e+00 
6.0671429999999998e-02,	 1.6357139999999999e-02,	 2.1712308520302946e-02,	 1.6179244656060891e+03,	 3.5686932966596760e+02,	 4.3505845146601501e+02,	 2.7175875773698108e+03,	 4.0026144454387463e+02,	 4.1393314959952674e+00 
6.4716190000000007e-02,	 1.7440950000000000e-02,	 2.2070210490977654e-02,	 1.6160630801534705e+03,	 3.6155545476753440e+02,	 4.3635605020683329e+02,	 2.7706228691270449e+03,	 4.0085790698283944e+02,	 4.1311744840040943e+00 
6.8760950000000001e-02,	 1.8524759999999998e-02,	 2.2394270763329553e-02,	 1.6143668418910815e+03,	 3.6573630007630197e+02,	 4.3752776770611950e+02,	 2.8188533541240613e+03,	 4.0139574453376258e+02,	 4.1238041105794743e+00 
7.2805709999999996e-02,	 1.9608569999999999e-02,	 2.2690763043405886e-02,	 1.6128139313172753e+03,	 3.6946787542633842e+02,	 4.3860139652100753e+02,	 2.8631826135833148e+03,	 4.0188792585475994e+02,	 4.1170487475224267e+00 
7.6850479999999999e-02,	 2.0692380000000000e-02,	 2.2964775624473653e-02,	 1.6113873140000703e+03,	 3.7280470909537087e+02,	 4.3959627386095008e+02,	 2.9043312418753185e+03,	 4.0234346785479488e+02,	 4.1107926029709043e+00 
8.0895239999999993e-02,	 2.1776190000000001e-02,	 2.3220074968467671e-02,	 1.6100730865786211e+03,	 3.7580042126430340e+02,	 4.4052486427964584e+02,	 2.9428219119985279e+03,	 4.0276819301473193e+02,	 4.1049629545115653e+00 
8.4940000000000002e-02,	 2.2859999999999998e-02,	 2.3459179033906867e-02,	 1.6088599926610495e+03,	 3.7850572742700348e+02,	 4.4139402078274782e+02,	 2.9789910125534166e+03,	 4.0316532847879074e+02,	 4.0995207719446478e+00 
8.8984759999999996e-02,	 2.3943809999999999e-02,	 2.3683594847747229e-02,	 1.6077389198407732e+03,	 3.8096675803275724e+02,	 4.4220661950480826e+02,	 3.0130254489823369e+03,	 4.0353626801590127e+02,	 4.0944500466304845e+00 
9.3029520000000004e-02,	 2.5027620000000000e-02,	 2.3894106645204204e-02,	 1.6067026103892281e+03,	 3.8322340346379133e+02,	 4.4296286575343345e+02,	 3.0450053174982263e+03,	 4.0388117740091917e+02,	 4.0897494469477227e+00 
9.7074289999999994e-02,	 2.6111429999999998e-02,	 2.4091079641100892e-02,	 1.6057445889726532e+03,	 3.8530879338167375e+02,	 4.4366213964649410e+02,	 3.0749536236279546e+03,	 4.0419984089676313e+02,	 4.0854204618255912e+00 
1.0111900000000000e-01,	 2.7195239999999999e-02,	 2.4274660393528512e-02,	 1.6048592873169071e+03,	 3.8724749995991124e+02,	 4.4430394112741595e+02,	 3.1028677521431141e+03,	 4.0449209290939564e+02,	 4.0814620464762763e+00 
1.0516380000000000e-01,	 2.8279050000000000e-02,	 2.4445016742536546e-02,	 1.6040415345531655e+03,	 3.8905673435186691e+02,	 4.4488892825671144e+02,	 3.1287572885278942e+03,	 4.0475828999998345e+02,	 4.0778651444135958e+00 
1.0920860000000000e-01,	 2.9362860000000001e-02,	 2.4602650645771981e-02,	 1.6032849897751394e+03,	 3.9075038622072469e+02,	 4.4542090578048374e+02,	 3.1526984551373007e+03,	 4.0500021328635682e+02,	 4.0746021015914140e+00 
1.1325330000000000e-01,	 3.0446669999999999e-02,	 2.4748216473038216e-02,	 1.6025850363104998e+03,	 3.9233442812567557e+02,	 4.4590410974679332e+02,	 3.1747923030063821e+03,	 4.0521983102452151e+02,	 4.0716433606128426e+00 
1.1729810000000000e-01,	 3.1530480000000000e-02,	 2.4882404476897813e-02,	 1.6019375551767339e+03,	 3.9381363682955168e+02,	 4.4634262686500034e+02,	 3.1951455606882419e+03,	 4.0541903547466052e+02,	 4.0689609792520649e+00 
1.2134290000000000e-01,	 3.2614290000000004e-02,	 2.5006120584553926e-02,	 1.6013365701244957e+03,	 3.9519637451336337e+02,	 4.4674236997318854e+02,	 3.2139077166855823e+03,	 4.0560054087651906e+02,	 4.0665167535404265e+00 
1.2538759999999999e-01,	 3.3698100000000002e-02,	 2.5120341563074751e-02,	 1.6007776498556168e+03,	 3.9648487234836807e+02,	 4.4710899241351979e+02,	 3.2312375146465115e+03,	 4.0576693629163668e+02,	 4.0642741359385335e+00 
1.2943240000000000e-01,	 3.4781900000000004e-02,	 2.5226217386133870e-02,	 1.6002564672374947e+03,	 3.9768052754204587e+02,	 4.4744880871525464e+02,	 3.2473225439670573e+03,	 4.0592110455097333e+02,	 4.0621936338575528e+00 
1.3347709999999999e-01,	 3.5865710000000002e-02,	 2.5325040161356262e-02,	 1.5997681240095440e+03,	 3.9878753423136482e+02,	 4.4776890206554276e+02,	 3.2623759614916930e+03,	 4.0606627134376521e+02,	 4.0602328440832709e+00 
1.3752190000000000e-01,	 3.6949520000000000e-02,	 2.5417807524155511e-02,	 1.5993096448863864e+03,	 3.9980832776251594e+02,	 4.4807370443078673e+02,	 3.2765551471790859e+03,	 4.0620445524127769e+02,	 4.0583651875260705e+00 
1.4156669999999999e-01,	 3.8033330000000004e-02,	 2.5505531031762098e-02,	 1.5988766646745635e+03,	 4.0075173701356198e+02,	 4.4836798267879658e+02,	 3.2900227438820207e+03,	 4.0633782338338216e+02,	 4.0565632521751223e+00 
1.4561140000000000e-01,	 3.9117140000000002e-02,	 2.5588832521002532e-02,	 1.5984666155799273e+03,	 4.0162556651341629e+02,	 4.4865362202973830e+02,	 3.3028708152882364e+03,	 4.0646723448888923e+02,	 4.0548165241844654e+00 
1.4965619999999999e-01,	 4.0200950000000006e-02,	 2.5668031501095451e-02,	 1.5980780668850691e+03,	 4.0243734147039095e+02,	 4.4893034638541093e+02,	 3.3151368773019067e+03,	 4.0659256730622928e+02,	 4.0531269064902569e+00 
1.5370100000000000e-01,	 4.1284760000000004e-02,	 2.5743441803303579e-02,	 1.5977083986566029e+03,	 4.0319853512070904e+02,	 4.4919841854139304e+02,	 3.3268618438749941e+03,	 4.0671394457610677e+02,	 4.0514934714714261e+00 
1.5774569999999999e-01,	 4.2368570000000001e-02,	 2.5815092419809921e-02,	 1.5973567018011609e+03,	 4.0391691154992304e+02,	 4.4945621663482893e+02,	 3.3380359788613487e+03,	 4.0683063581535231e+02,	 4.0499257064739203e+00 
1.6179050000000000e-01,	 4.3452380000000006e-02,	 2.5882920817833752e-02,	 1.5970225743141473e+03,	 4.0459818409817990e+02,	 4.4970175506961903e+02,	 3.3486349346512297e+03,	 4.0694174665854166e+02,	 4.0484347281845414e+00 
1.6583519999999999e-01,	 4.4536190000000003e-02,	 2.5946974484851316e-02,	 1.5967051597620141e+03,	 4.0524806007023403e+02,	 4.4993411214619960e+02,	 3.3586564502046162e+03,	 4.0704686475363121e+02,	 4.0470257885109469e+00 
1.6988000000000000e-01,	 4.5620000000000001e-02,	 2.6007181658464149e-02,	 1.5964046203146597e+03,	 4.0586867476232044e+02,	 4.5015168575309571e+02,	 3.3680777589934264e+03,	 4.0714527021815104e+02,	 4.0457074840990899e+00 
1.7392479999999999e-01,	 4.6703810000000005e-02,	 2.6063736364475031e-02,	 1.5961193837034862e+03,	 4.0646438380245877e+02,	 4.5035514095821003e+02,	 3.3769274961926926e+03,	 4.0723726861487580e+02,	 4.0444754493460104e+00 
1.7796950000000000e-01,	 4.7787620000000003e-02,	 2.6116790851389814e-02,	 1.5958489848304735e+03,	 4.0703524375678569e+02,	 4.5054481964899696e+02,	 3.3852266343654123e+03,	 4.0732301882985951e+02,	 4.0433268376851883e+00 
1.8201429999999999e-01,	 4.8871430000000000e-02,	 2.6166578687882771e-02,	 1.5955929468598938e+03,	 4.0757980572718634e+02,	 4.5072165283381662e+02,	 3.3930112649614889e+03,	 4.0740294557340644e+02,	 4.0422552386226176e+00 
1.8605900000000000e-01,	 4.9955240000000005e-02,	 2.6213526326988659e-02,	 1.5953497941753049e+03,	 4.0809803360980118e+02,	 4.5088815364670165e+02,	 3.4003546082732123e+03,	 4.0747818786297751e+02,	 4.0412456575004772e+00 
1.9010379999999999e-01,	 5.1039050000000002e-02,	 2.6257965092323615e-02,	 1.5951189009443688e+03,	 4.0858785289079611e+02,	 4.5104602509731757e+02,	 3.4073116958172632e+03,	 4.0754951768403583e+02,	 4.0402875492669521e+00 
1.9414860000000000e-01,	 5.2122860000000000e-02,	 2.6300427257231591e-02,	 1.5948979219490088e+03,	 4.0905165483953516e+02,	 4.5119851185341940e+02,	 3.4139754976484114e+03,	 4.0761840272997358e+02,	 4.0393621266662114e+00 
1.9819329999999999e-01,	 5.3206670000000005e-02,	 2.6341219672831331e-02,	 1.5946859361975066e+03,	 4.0948972802001975e+02,	 4.5134719263983993e+02,	 3.4203973645375113e+03,	 4.0768555724312426e+02,	 4.0384602070046478e+00 
2.0223810000000000e-01,	 5.4290480000000002e-02,	 2.6380495075830703e-02,	 1.5944826205526024e+03,	 4.0990234029028915e+02,	 4.5149249354063619e+02,	 3.4266000211515861e+03,	 4.0775117448073723e+02,	 4.0375791917400328e+00 
2.0628289999999999e-01,	 5.5374290000000000e-02,	 2.6418531205588118e-02,	 1.5942859903037424e+03,	 4.1029465333863834e+02,	 4.5163595739513949e+02,	 3.4326309762314086e+03,	 4.0781595175807428e+02,	 4.0367105460053105e+00 
2.1032760000000000e-01,	 5.6458100000000004e-02,	 2.6455344561632031e-02,	 1.5940958738033635e+03,	 4.1066861262899602e+02,	 4.5177710986300929e+02,	 3.4384885503047003e+03,	 4.0787967535012342e+02,	 4.0358571148566469e+00 
2.1437239999999999e-01,	 5.7541900000000000e-02,	 2.6490872126982958e-02,	 1.5939122481237237e+03,	 4.1102631016753242e+02,	 4.5191499145767489e+02,	 3.4441570154375563e+03,	 4.0794191268848886e+02,	 4.0350243538090664e+00 
2.1841710000000000e-01,	 5.8625710000000004e-02,	 2.6525143623964825e-02,	 1.5937342582679939e+03,	 4.1137199060981061e+02,	 4.5204948395846742e+02,	 3.4496390816057810e+03,	 4.0800261110258822e+02,	 4.0342133057419156e+00 
2.2246189999999999e-01,	 5.9709520000000002e-02,	 2.6557954627346128e-02,	 1.5935628168831852e+03,	 4.1170542420633109e+02,	 4.5217874721943082e+02,	 3.4548938494841932e+03,	 4.0806094097595246e+02,	 4.0334341545725323e+00 
2.2650670000000001e-01,	 6.0793330000000000e-02,	 2.6589392925016476e-02,	 1.5933969174776430e+03,	 4.1203004837747454e+02,	 4.5230309209801015e+02,	 3.4599348093406197e+03,	 4.0811704356887100e+02,	 4.0326851761852733e+00 
2.3055139999999999e-01,	 6.1877140000000004e-02,	 2.6619418840480913e-02,	 1.5932368332001897e+03,	 4.1234562768450672e+02,	 4.5242198314629536e+02,	 3.4647524155660481e+03,	 4.0817067826189839e+02,	 4.0319692103540037e+00 
2.3459620000000000e-01,	 6.2960950000000002e-02,	 2.6647981816301340e-02,	 1.5930832199814781e+03,	 4.1265017078683479e+02,	 4.5253479559523009e+02,	 3.4693350099904305e+03,	 4.0822156423274720e+02,	 4.0312893208111227e+00 
2.3864099999999999e-01,	 6.4044760000000006e-02,	 2.6675333003654579e-02,	 1.5929347071076722e+03,	 4.1294561672965580e+02,	 4.5264315234370986e+02,	 3.4737274603710830e+03,	 4.0827043441272195e+02,	 4.0306361680638192e+00 
2.4268570000000000e-01,	 6.5128569999999997e-02,	 2.6701588475363348e-02,	 1.5927912394497966e+03,	 4.1323071858502357e+02,	 4.5274761990736533e+02,	 3.4779490188566529e+03,	 4.0831754498619841e+02,	 4.0300062922376449e+00 
2.4673049999999999e-01,	 6.6212380000000001e-02,	 2.6726839434622097e-02,	 1.5926528234913126e+03,	 4.1350405665290316e+02,	 4.5284863072133237e+02,	 3.4820147056589012e+03,	 4.0836309153966852e+02,	 4.0293968732551031e+00 
2.5077519999999998e-01,	 6.7296190000000006e-02,	 2.6745460281021108e-02,	 1.5925580145898759e+03,	 4.1372403866499855e+02,	 4.5292110208924476e+02,	 3.4849982892736934e+03,	 4.0839576630767709e+02,	 4.0289851956242915e+00 
-7.9385259999999999e-02,	 6.1388000000000007e-03,	 1.1586407740522199e-02,	 1.7360000000000000e+03,	 1.5641422284659990e-14,	 3.0000000000000000e+02,	 1.0000000000000000e+03,	 3.3237670711487283e+02,	 5.2229893456403387e+00 
-7.3850860000000004e-02,	 6.1388000000000007e-03,	 1.1586407740522199e-02,	 1.7360000000000000e+03,	 -2.5705872679945818e-14,	 3.0000000000000000e+02,	 1.0000000000000000e+03,	 3.3237670711487283e+02,	 5.2229893456403387e+00 
-6.8316450000000001e-02,	 6.1388000000000007e-03,	 1.1586407740522199e-02,	 1.7360000000000000e+03,	 -5.6775378082824770e-15,	 3.0000000000000000e+02,	 1.0000000000000000e+03,	 3.3237670711487283e+02,	 5.2229893456403387e+00 
-6.2782050000000006e-02,	 6.1388000000000007e-03,	 1.1586407740522199e-02,	 1.7360000000000000e+03,	 -4.9326916860558728e-15,	 3.0000000000000000e+02,	 1.0000000000000000e+03,	 3.3237670711487283e+02,	 5.2229893456403387e+00 
-5.7247640000000002e-02,	 6.1388000000000007e-03,	 1.1586407740522199e-02,	 1.7360000000000000e+03,	 -5.3705949503165843e-15,	 3.0000000000000000e+02,	 1.0000000000000000e+03,	 3.3237670711487283e+02,	 5.2229893456403387e+00 
-5.1713240000000001e-02,	 6.1388000000000007e-03,	 1.1586407740522199e-02,	 1.7360000000000000e+03,	 1.3637817569354116e-15,	 3.0000000000000000e+02,	 1.0000000000000000e+03,	 3.3237670711487283e+02,	 5.2229893456403387e+00 
-4.6178839999999999e-02,	 6.1388000000000007e-03,	 1.1586407740522199e-02,	 1.7360000000000000e+03,	 8.0949093568167709e-16,	 3.0000000000000000e+02,	 1.0000000000000000e+03,	 3.3237670711487283e+02,	 5.2229893456403387e+00 
-4.0644430000000002e-02,	 6.1388000000000007e-03,	 1.1586407740522199e-02,	 1.7360000000000000e+03,	 -2.1731333678507426e-17,	 3.0000000000000000e+02,	 1.0000000000000000e+03,	 3.3237670711487283e+02,	 5.2229893456403387e+00 
-3.5110030000000000e-02,	 6.1388000000000007e-03,	 1.1586407740522199e-02,	 1.7360000000000000e+03,	 -8.6768443482272276e-16,	 3.0000000000000000e+02,	 1.0000000000000000e+03,	 3.3237670711487283e+02,	 5.2229893456403387e+00 
-2.9575620000000000e-02,	 6.1388000000000007e-03,	 1.1586407740522199e-02,	 1.7360000000000000e+03,	 6.3503541213636944e-16,	 3.0000000000000000e+02,	 1.0000000000000000e+03,	 3.3237670711487283e+02,	 5.2229893456403387e+00 
-2.4041219999999999e-02,	 6.1388000000000007e-03,	 1.1586407740522199e-02,	 1.7360000000000000e+03,	 -1.0627642326848533e-15,	 3.0000000000000000e+02,	 1.0000000000000000e+03,	 3.3237670711487283e+02,	 5.2229893456403387e+00 
-1.8506809999999999e-02,	 6.1388000000000007e-03,	 1.1586407740522199e-02,	 1.7360000000000000e+03,	 6.1638388659687107e-16,	 3.0000000000000000e+02,	 1.0000000000000000e+03,	 3.3237670711487283e+02,	 5.2229893456403387e+00 
-1.2972410000000000e-02,	 6.1388000000000007e-03,	 1.1586407740522199e-02,	 1.7360000000000002e+03,	 -2.7182661506563013e-15,	 2.9999999999999972e+02,	 9.9999999999999909e+02,	 3.3237670711487266e+02,	 5.2229893456403413e+00 
-7.4380039999999998e-03,	 6.1388000000000007e-03,	 1.1587576910016297e-02,	 1.7360135833910906e+03,	 -3.8275222491292216e-01,	 3.0001345895530710e+02,	 1.0001457764245044e+03,	 3.3238416276999629e+02,	 5.2229131831005384e+00 
-1.9036000000000001e-03,	 6.1388000000000007e-03,	 1.1604711513792571e-02,	 1.7358527390151419e+03,	 1.6177955809951183e+00,	 2.9988129073499192e+02,	 1.0011834399118927e+03,	 3.3231094028393994e+02,	 5.2235821409177845e+00 
2.1502270000000002e-03,	 7.2009330000000005e-03,	 1.1751494618862914e-02,	 1.7325837247635025e+03,	 1.2801631512461494e+01,	 3.0446151059725878e+02,	 1.0293319216681004e+03,	 3.3483908961531802e+02,	 5.1745183638773602e+00 
6.2040530000000002e-03,	 8.2630669999999989e-03,	 1.2072466487494759e-02,	 1.7261669029738855e+03,	 3.2636247244294886e+01,	 3.1387210373811257e+02,	 1.0901309357761486e+03,	 3.3997447570344946e+02,	 5.0782500507065995e+00 
1.0257880000000000e-02,	 9.3251999999999988e-03,	 1.2488645843045152e-02,	 1.7191962736577514e+03,	 5.3509290341989818e+01,	 3.2394388032681832e+02,	 1.1638983899712994e+03,	 3.4538609053206022e+02,	 4.9800175709660008e+00 
1.4311710000000000e-02,	 1.0387330000000000e-02,	 1.2948008934365674e-02,	 1.7126616731190838e+03,	 7.2559117073189071e+01,	 3.3293743940931279e+02,	 1.2402109542487990e+03,	 3.5014769447146318e+02,	 4.8956427282279469e+00 
1.8365530000000001e-02,	 1.1449470000000000e-02,	 1.3426359887690364e-02,	 1.7066157580021156e+03,	 8.9874999846824522e+01,	 3.4093492483160105e+02,	 1.3169209708436717e+03,	 3.5432818492848230e+02,	 4.8231575200480892e+00 
2.2419359999999999e-02,	 1.2511599999999999e-02,	 1.3913501185280439e-02,	 1.7008801167833976e+03,	 1.0609037647822024e+02,	 3.4838160061229019e+02,	 1.3945098203579860e+03,	 3.5817688787183721e+02,	 4.7579438910672494e+00 
2.6473190000000001e-02,	 1.3573729999999999e-02,	 1.4404855507860758e-02,	 1.6952844957225564e+03,	 1.2176529927640007e+02,	 3.5562450598904388e+02,	 1.4737727569953618e+03,	 3.6188101002580765e+02,	 4.6967145912732535e+00 
3.0527010000000000e-02,	 1.4635869999999999e-02,	 1.4898237990277230e-02,	 1.6897172037212192e+03,	 1.3726626912904356e+02,	 3.6284917910435331e+02,	 1.5552169823862203e+03,	 3.6553841637070229e+02,	 4.6377711809651405e+00 
3.4580840000000002e-02,	 1.5698000000000000e-02,	 1.5392527380452839e-02,	 1.6841268591120174e+03,	 1.5277405241930938e+02,	 3.7010517199016738e+02,	 1.6389474405662802e+03,	 3.6917521002654979e+02,	 4.5805947862364080e+00 
3.8634670000000003e-02,	 1.6760129999999998e-02,	 1.5887088927828089e-02,	 1.6785122043248111e+03,	 1.6831804674974777e+02,	 3.7734511286349874e+02,	 1.7246977374408489e+03,	 3.7276859636866652e+02,	 4.5254091131627883e+00 
4.2688490000000003e-02,	 1.7822269999999998e-02,	 1.6381933554788876e-02,	 1.6729126174079529e+03,	 1.8379877024007817e+02,	 3.8445504532907319e+02,	 1.8119268567188560e+03,	 3.7626405873671700e+02,	 4.4728669926013396e+00 
4.6742319999999997e-02,	 1.8884399999999999e-02,	 1.6877840339680455e-02,	 1.6673947386759000e+03,	 1.9902288984320850e+02,	 3.9128958250956913e+02,	 1.8999627978104982e+03,	 3.7959378776107599e+02,	 4.4237567355117369e+00 
5.0796149999999998e-02,	 1.9946530000000001e-02,	 1.7375674638332332e-02,	 1.6620304727622477e+03,	 2.1379642854218426e+02,	 3.9772685524955688e+02,	 1.9881837944685615e+03,	 3.8270348031581813e+02,	 4.3786510057815011e+00 
5.4849969999999998e-02,	 2.1008670000000000e-02,	 1.7875264162518167e-02,	 1.6569012059727745e+03,	 2.2792908389234827e+02,	 4.0366215595393788e+02,	 2.0758713806962460e+03,	 3.8554845868598920e+02,	 4.3379893022302758e+00 
5.8903799999999999e-02,	 2.2070799999999998e-02,	 1.8374947334246758e-02,	 1.6520860063071418e+03,	 2.4124452574621392e+02,	 4.0901119673001568e+02,	 2.1621769713105091e+03,	 3.8809455721743387e+02,	 4.3020620538988856e+00 
6.2957630000000001e-02,	 2.3132929999999999e-02,	 1.8872127211319343e-02,	 1.6476361196097214e+03,	 2.5362305424524826e+02,	 4.1374023065253840e+02,	 2.2463557990187442e+03,	 3.9033170594006901e+02,	 4.2708345147485218e+00 
6.7011450000000000e-02,	 2.4195069999999999e-02,	 1.9363505403288347e-02,	 1.6435691111480194e+03,	 2.6501412212955609e+02,	 4.1787630697192554e+02,	 2.3278857747708826e+03,	 3.9227788718859011e+02,	 4.2439248104077656e+00 
7.1065279999999995e-02,	 2.5257200000000000e-02,	 1.9845318464523688e-02,	 1.6398765967960883e+03,	 2.7542911663223560e+02,	 4.2147388535165010e+02,	 2.4063493668909050e+03,	 3.9396286668481440e+02,	 4.2208188378928808e+00 
7.5119110000000003e-02,	 2.6319329999999998e-02,	 2.0313713810190408e-02,	 1.6365338955316072e+03,	 2.8492105023037379e+02,	 4.2459971007028741e+02,	 2.4814124698005562e+03,	 3.9542106384155272e+02,	 4.2009678235070984e+00 
7.9172930000000002e-02,	 2.7381469999999998e-02,	 2.0764990442210710e-02,	 1.6335083615502779e+03,	 2.9356668315490765e+02,	 4.2732160313105032e+02,	 2.5527984179062150e+03,	 3.9668646091746984e+02,	 4.1838533292646014e+00 
8.3226759999999997e-02,	 2.8443599999999999e-02,	 2.1195728785672635e-02,	 1.6307661355295652e+03,	 3.0145014609059353e+02,	 4.2970094408297393e+02,	 2.6202612790492931e+03,	 3.9778930960262073e+02,	 4.1690258525989030e+00 
8.7280590000000005e-02,	 2.9505730000000001e-02,	 2.1602868814824108e-02,	 1.6282764697058799e+03,	 3.0865056136678186e+02,	 4.3178884453844734e+02,	 2.6835691076321332e+03,	 3.9875456001669568e+02,	 4.1561197012937532e+00 
9.1334410000000005e-02,	 3.0567870000000000e-02,	 2.1983895438528692e-02,	 1.6260110163445108e+03,	 3.1523643283879443e+02,	 4.3362658719394045e+02,	 2.7425243341810183e+03,	 3.9960223151082636e+02,	 4.1448386173820699e+00 
9.5388239999999999e-02,	 3.1630000000000005e-02,	 2.2337730934931879e-02,	 1.6239397268701316e+03,	 3.2127491535294308e+02,	 4.3525359362208536e+02,	 2.7971216735245930e+03,	 4.0035120159181480e+02,	 4.1349062698063426e+00 
9.9442069999999994e-02,	 3.2692130000000000e-02,	 2.2664495465731269e-02,	 1.6220363595713620e+03,	 3.2682420750360944e+02,	 4.3670375651144167e+02,	 2.8474946768028767e+03,	 4.0101758514751674e+02,	 4.1260901479542094e+00 
1.0349590000000000e-01,	 3.3754270000000003e-02,	 2.2965130852022758e-02,	 1.6202806537572112e+03,	 3.3193007930776730e+02,	 4.3800383510419158e+02,	 2.8938550561781540e+03,	 4.0161406150599834e+02,	 4.1182093040232450e+00 
1.0754970000000000e-01,	 3.4816400000000004e-02,	 2.3241307659170159e-02,	 1.6186575590589255e+03,	 3.3662800854440832e+02,	 4.3917488406052814e+02,	 2.9364863914157086e+03,	 4.0215058168448314e+02,	 4.1111239121903251e+00 
1.1160349999999999e-01,	 3.5878530000000006e-02,	 2.3495006491640966e-02,	 1.6171550330589912e+03,	 3.4094969624764684e+02,	 4.4023340874441152e+02,	 2.9756956104443721e+03,	 4.0263493329247154e+02,	 4.1047257836873241e+00 
1.1565739999999999e-01,	 3.6940670000000002e-02,	 2.3728059043164759e-02,	 1.6157571342360156e+03,	 3.4494077811827674e+02,	 4.4119649445862819e+02,	 3.0117866568595368e+03,	 4.0307510900032599e+02,	 4.0989056384198923e+00 
1.1971120000000000e-01,	 3.8002800000000003e-02,	 2.3942800570965712e-02,	 1.6144548183329191e+03,	 3.4862643319448665e+02,	 4.4207684391512936e+02,	 3.0451076663688555e+03,	 4.0347705022310663e+02,	 4.0935841652018325e+00 
1.2376500000000000e-01,	 3.9064930000000005e-02,	 2.4141557815255722e-02,	 1.6132425192739940e+03,	 3.5202437981824278e+02,	 4.4288463138366978e+02,	 3.0759965105903761e+03,	 4.0384550986861410e+02,	 4.0887005945913080e+00 
1.2781890000000001e-01,	 4.0127070000000001e-02,	 2.4326264748272326e-02,	 1.6121155547764374e+03,	 3.5515191821906484e+02,	 4.4362792008071528e+02,	 3.1047328545918213e+03,	 4.0418425267261284e+02,	 4.0842075563134168e+00 
1.3187270000000001e-01,	 4.1189200000000002e-02,	 2.4498520348996380e-02,	 1.6110683987155865e+03,	 3.5803040860065971e+02,	 4.4431400174013601e+02,	 3.1315531833349605e+03,	 4.0449667244930293e+02,	 4.0800627961205436e+00 
1.3592650000000001e-01,	 4.2251330000000004e-02,	 2.4659468080297287e-02,	 1.6100956694215208e+03,	 3.6068298920402145e+02,	 4.4494823566162256e+02,	 3.1566260110998710e+03,	 4.0478526792897060e+02,	 4.0762355169645552e+00 
1.3998030000000000e-01,	 4.3313470000000000e-02,	 2.4809977344250736e-02,	 1.6091911541157276e+03,	 3.6313538184157386e+02,	 4.4553521765291737e+02,	 3.1800821858344480e+03,	 4.0505217914847628e+02,	 4.0726988960144244e+00 
1.4403420000000000e-01,	 4.4375600000000001e-02,	 2.4950675892136964e-02,	 1.6083485487492960e+03,	 3.6541343282999100e+02,	 4.4607863609037406e+02,	 3.2020173179795838e+03,	 4.0529912454882628e+02,	 4.0694310596148169e+00 
1.4808800000000000e-01,	 4.5437730000000003e-02,	 2.5081960737180567e-02,	 1.6075621309263290e+03,	 3.6753982744495477e+02,	 4.4658105517846735e+02,	 3.2224910264983055e+03,	 4.0552730484614750e+02,	 4.0664157265829184e+00 
1.5214179999999999e-01,	 4.6499870000000006e-02,	 2.5204243861533047e-02,	 1.6068257506285192e+03,	 3.6953584650593871e+02,	 4.4704543062108945e+02,	 3.2415690013368971e+03,	 4.0573809299960328e+02,	 4.0636336727779989e+00 
1.5619559999999999e-01,	 4.7562000000000000e-02,	 2.5317961637212293e-02,	 1.6061340955075000e+03,	 3.7141838369633905e+02,	 4.4747470606906961e+02,	 3.2593212367445267e+03,	 4.0593285129178275e+02,	 4.0610658701454527e+00 
1.6024949999999999e-01,	 4.8624130000000002e-02,	 2.5423559214934659e-02,	 1.6054832311261621e+03,	 3.7319871131088786e+02,	 4.4787138965797419e+02,	 3.2758168164643448e+03,	 4.0611273992748693e+02,	 4.0586958864083309e+00 
1.6430330000000001e-01,	 4.9686270000000005e-02,	 2.5521526802067658e-02,	 1.6048694661168502e+03,	 3.7488655451853629e+02,	 4.4823817540709950e+02,	 3.2911329848891273e+03,	 4.0627899957745291e+02,	 4.0565064937850996e+00 