TITLE = "Final State"
VARIABLES = "X", "Y", "rho", "u", "v", "T", "p", "c", "M"
ZONE I=48, J=48, DATAPACKING=POINT
2.6491699999999998e+00,	 2.0000000000000001e-01,	 1.3865915644213989e-02,	 5.5977029268791341e+02,	 3.5905610235175800e-02,	 6.6100903791526241e+02,	 2.6368528149700655e+03,	 4.9337103859752347e+02,	 1.1345827988418096e+00 
2.6566350000000001e+00,	 2.0000000000000001e-01,	 1.3836417203272840e-02,	 5.6096059583654755e+02,	 3.9673991867380867e-02,	 6.6049634148082305e+02,	 2.6292022936501462e+03,	 4.9317966554096074e+02,	 1.1374365904243282e+00 
2.6640990000000002e+00,	 2.0000000000000001e-01,	 1.3786949719945877e-02,	 5.6286202691801941e+02,	 3.8033308303014601e-02,	 6.5961125708268219e+02,	 2.6162918481063130e+03,	 4.9284911718613881e+02,	 1.1420574950333489e+00 
2.6715640000000000e+00,	 2.0000000000000001e-01,	 1.3736865186681305e-02,	 5.6472401360242520e+02,	 3.7102332099641991e-02,	 6.5871695405252240e+02,	 2.6032532247114523e+03,	 4.9251490066823663e+02,	 1.1466130548639784e+00 
2.6790280000000002e+00,	 2.0000000000000001e-01,	 1.3686174860600529e-02,	 5.6655194819661233e+02,	 3.6128073589832374e-02,	 6.5781381431475234e+02,	 2.5900909324246245e+03,	 4.9217715139276299e+02,	 1.1511138778898962e+00 
2.6864930000000000e+00,	 2.0000000000000001e-01,	 1.3634965598851641e-02,	 5.6835294202849593e+02,	 3.5667955080155009e-02,	 6.5690374288619944e+02,	 2.5768297176597630e+03,	 4.9183657524380737e+02,	 1.1555727486634362e+00 
2.6939570000000002e+00,	 2.0000000000000001e-01,	 1.3583341308674897e-02,	 5.7012905229356215e+02,	 3.5360852027281828e-02,	 6.5598895643177309e+02,	 2.5634985664482992e+03,	 4.9149399675390737e+02,	 1.1599918964536460e+00 
2.7014220000000000e+00,	 2.0000000000000001e-01,	 1.3531397666365696e-02,	 5.7188223145603388e+02,	 3.4576379587436257e-02,	 6.5507141638536018e+02,	 2.5501236832818477e+03,	 4.9115014704172080e+02,	 1.1643735341337702e+00 
2.7088860000000001e+00,	 2.0000000000000001e-01,	 1.3479324383200299e-02,	 5.7361629085283653e+02,	 3.5019340242726113e-02,	 6.5415462555439615e+02,	 2.5367547307983905e+03,	 4.9080633749968780e+02,	 1.1687222598713261e+00 
2.7163499999999998e+00,	 2.0000000000000001e-01,	 1.3427314246947609e-02,	 5.7533680339446641e+02,	 3.5778442037565902e-02,	 6.5324209081510321e+02,	 2.5234415558703495e+03,	 4.9046388472148436e+02,	 1.1730462169169791e+00 
2.7238150000000001e+00,	 2.0000000000000001e-01,	 1.3375531363504615e-02,	 5.7704945798555673e+02,	 3.6829378154049908e-02,	 6.5233693939707177e+02,	 2.5102267495622395e+03,	 4.9012396635192579e+02,	 1.1773540956503796e+00 
2.7312789999999998e+00,	 2.0000000000000001e-01,	 1.3324187195798785e-02,	 5.7876205106631085e+02,	 3.8440701227135166e-02,	 6.5144338992684061e+02,	 2.4971656068152374e+03,	 4.8978817355899270e+02,	 1.1816578749490669e+00 
2.7387440000000001e+00,	 2.0000000000000001e-01,	 1.3273448942945281e-02,	 5.8048048003299323e+02,	 4.0449030655283935e-02,	 6.5056500210446393e+02,	 2.4843021618914941e+03,	 4.8945785392020008e+02,	 1.1859662211834026e+00 
2.7462080000000002e+00,	 2.0000000000000001e-01,	 1.3223363298499302e-02,	 5.8220543490620958e+02,	 4.2234650022602377e-02,	 6.4970297229900575e+02,	 2.4716485705279160e+03,	 4.8913346887153796e+02,	 1.1902792867175878e+00 
2.7536730000000000e+00,	 2.0000000000000001e-01,	 1.3173786414172151e-02,	 5.8393213189281255e+02,	 4.3207251817513240e-02,	 6.4885471458079223e+02,	 2.4591669869113775e+03,	 4.8881405617504993e+02,	 1.1945894888141888e+00 
2.7611370000000002e+00,	 2.0000000000000001e-01,	 1.3124455798159539e-02,	 5.8565165105305618e+02,	 4.3255426304289940e-02,	 6.4801507131405288e+02,	 2.4467880383257816e+03,	 4.8849768158022556e+02,	 1.1988831774102664e+00 
2.7686020000000000e+00,	 2.0000000000000001e-01,	 1.3075135751065052e-02,	 5.8735539463296550e+02,	 4.2869816029200189e-02,	 6.4717920401746971e+02,	 2.4344490939441835e+03,	 4.8818252610688165e+02,	 1.2031471115556875e+00 
2.7760660000000001e+00,	 2.0000000000000001e-01,	 1.3025764011413428e-02,	 5.8903951282680634e+02,	 4.2759382954320496e-02,	 6.4634544781276691e+02,	 2.4221321688905641e+03,	 4.8786796378469364e+02,	 1.2073748598068432e+00 
2.7835310000000000e+00,	 2.0000000000000001e-01,	 1.2976480961862867e-02,	 5.9070652089828286e+02,	 4.3413441702050998e-02,	 6.4551612216386502e+02,	 2.4098719400143746e+03,	 4.8755487170186598e+02,	 1.2115693161503447e+00 
2.7909950000000001e+00,	 2.0000000000000001e-01,	 1.2927557549019206e-02,	 5.9236335417020109e+02,	 4.4914074788913669e-02,	 6.4469616028686437e+02,	 2.3977367562601480e+03,	 4.8724511689642395e+02,	 1.2157399537343261e+00 
2.7984599999999999e+00,	 2.0000000000000001e-01,	 1.2879254481497253e-02,	 5.9401779252051301e+02,	 4.7032360243043747e-02,	 6.4389049099151316e+02,	 2.3857925244286157e+03,	 4.8694056944073714e+02,	 1.2198979334679176e+00 
2.8059240000000001e+00,	 2.0000000000000001e-01,	 1.2831729155646236e-02,	 5.9567476425204711e+02,	 4.9488373091901128e-02,	 6.4310204970259076e+02,	 2.3740781744813303e+03,	 4.8664234974659439e+02,	 1.2240504070760869e+00 
2.8133880000000002e+00,	 2.0000000000000001e-01,	 1.2784996975729728e-02,	 5.9733547171102464e+02,	 5.1761042310616706e-02,	 6.4233105566865675e+02,	 2.3625961235651966e+03,	 4.8635055245780745e+02,	 1.2281994354380343e+00 
2.8208530000000001e+00,	 2.0000000000000001e-01,	 1.2738958157574308e-02,	 5.9899752197139583e+02,	 5.3151638538942725e-02,	 6.4157538877682202e+02,	 2.3513189522274511e+03,	 4.8606438603152350e+02,	 1.2323419315290782e+00 
2.8283170000000002e+00,	 2.0000000000000001e-01,	 1.2693369573991635e-02,	 6.0065537486910057e+02,	 5.3381215196376883e-02,	 6.4083007311163669e+02,	 2.3401826042784255e+03,	 4.8578197442330270e+02,	 1.2364711102222505e+00 
2.8357820000000000e+00,	 2.0000000000000001e-01,	 1.2647942662753299e-02,	 6.0230079009791427e+02,	 5.2556199114949562e-02,	 6.4008932086522691e+02,	 2.3291121834739351e+03,	 4.8550112919430495e+02,	 1.2405754717613984e+00 
2.8432460000000002e+00,	 2.0000000000000001e-01,	 1.2602547324743404e-02,	 6.0393014030387189e+02,	 5.2344693018209987e-02,	 6.3935047707999206e+02,	 2.3180738514025761e+03,	 4.8522084560487133e+02,	 1.2446500352215200e+00 
2.8507110000000000e+00,	 2.0000000000000001e-01,	 1.2557247933105010e-02,	 6.0554632800979653e+02,	 5.2188809966811037e-02,	 6.3861490023721592e+02,	 2.3070842478085779e+03,	 4.8494164042051244e+02,	 1.2486993893402112e+00 
2.8581750000000001e+00,	 2.0000000000000001e-01,	 1.2512070246183749e-02,	 6.0715049128532905e+02,	 5.1987833411735976e-02,	 6.3788310705430320e+02,	 2.2961497710815866e+03,	 4.8466371180600589e+02,	 1.2527252994631131e+00 
2.8656400000000000e+00,	 2.0000000000000001e-01,	 1.2467017709018341e-02,	 6.0874323728576053e+02,	 5.1693998250906342e-02,	 6.3715516254381964e+02,	 2.2852710614941784e+03,	 4.8438708667112428e+02,	 1.2567288770313052e+00 
2.8731040000000001e+00,	 2.0000000000000001e-01,	 1.2422090631377135e-02,	 6.1032447377719086e+02,	 5.1358476775108713e-02,	 6.3643089910406252e+02,	 2.2744473485167796e+03,	 4.8411170350582086e+02,	 1.2607100210927800e+00 
2.8805689999999999e+00,	 2.0000000000000001e-01,	 1.2377237822304800e-02,	 6.1189292390747812e+02,	 5.1038019297391754e-02,	 6.3570910272173955e+02,	 2.2636647257724126e+03,	 4.8383710243925896e+02,	 1.2646672257071008e+00 
2.8880330000000001e+00,	 2.0000000000000001e-01,	 1.2332393829423220e-02,	 6.1344648227852122e+02,	 5.0771465371068358e-02,	 6.3498814938833902e+02,	 2.2529053325952559e+03,	 4.8356266643844384e+02,	 1.2685976957190168e+00 
2.8954979999999999e+00,	 2.0000000000000001e-01,	 1.2287511014891032e-02,	 6.1498328786732873e+02,	 5.0554720431095448e-02,	 6.3426681821836780e+02,	 2.2421561222928926e+03,	 4.8328793064993130e+02,	 1.2724987547655455e+00 
2.9029620000000000e+00,	 2.0000000000000001e-01,	 1.2242591631575907e-02,	 6.1650281360646852e+02,	 5.0398476703393758e-02,	 6.3354486019672709e+02,	 2.2314166672343740e+03,	 4.8301279963797504e+02,	 1.2763695209082622e+00 
2.9104260000000002e+00,	 2.0000000000000001e-01,	 1.2197689711032130e-02,	 6.1800672008409629e+02,	 5.0295198874315342e-02,	 6.3282319053596962e+02,	 2.2207000630882417e+03,	 4.8273762180353748e+02,	 1.2802124678448936e+00 
2.9178910000000000e+00,	 2.0000000000000001e-01,	 1.2152873057188688e-02,	 6.1949711396117584e+02,	 5.0178668182504424e-02,	 6.3210305043030417e+02,	 2.2100229576404799e+03,	 4.8246287074750552e+02,	 1.2840306551125222e+00 
2.9253550000000001e+00,	 2.0000000000000001e-01,	 1.2108155201277480e-02,	 6.2097368475330518e+02,	 5.0015486635253445e-02,	 6.3138449627014268e+02,	 2.1993878930458836e+03,	 4.8218856873210365e+02,	 1.2878233268788322e+00 
2.9328200000000000e+00,	 2.0000000000000001e-01,	 1.2063458489513654e-02,	 6.2243379726096134e+02,	 4.9849733419700740e-02,	 6.3066576904446447e+02,	 2.1887745526213780e+03,	 4.8191404446326999e+02,	 1.2915867599384609e+00 
2.9402840000000001e+00,	 2.0000000000000001e-01,	 1.2018711679850072e-02,	 6.2387447836274669e+02,	 4.9741277974734308e-02,	 6.2994512316678424e+02,	 2.1781639828969664e+03,	 4.8163863024783706e+02,	 1.2953165322819848e+00 
2.9477490000000000e+00,	 2.0000000000000001e-01,	 1.1973842074686845e-02,	 6.2529322155349928e+02,	 4.9606281800295526e-02,	 6.2922081173212882e+02,	 2.1675371114484901e+03,	 4.8136165635681436e+02,	 1.2990092070351726e+00 
2.9552130000000001e+00,	 2.0000000000000001e-01,	 1.1928811973571343e-02,	 6.2668786008237191e+02,	 4.9521092948722104e-02,	 6.2849162872097725e+02,	 2.1568832013842257e+03,	 4.8108265851915746e+02,	 1.3026615092882281e+00 
2.9626779999999999e+00,	 2.0000000000000001e-01,	 1.1883614915772694e-02,	 6.2805749001582899e+02,	 4.8572471554836419e-02,	 6.2775705328435447e+02,	 2.1461995955257271e+03,	 4.8080143375149044e+02,	 1.3062720861574839e+00 
2.9701420000000001e+00,	 2.0000000000000001e-01,	 1.1838292083653369e-02,	 6.2940281424743398e+02,	 4.8309966211995237e-02,	 6.2701756512272414e+02,	 2.1354956726703890e+03,	 4.8051816195436220e+02,	 1.3098418872276336e+00 
2.9776069999999999e+00,	 2.0000000000000001e-01,	 1.1793185080742917e-02,	 6.3073419435358164e+02,	 4.9694754786223955e-02,	 6.2628007044181277e+02,	 2.1248566850937041e+03,	 4.8023548737360989e+02,	 1.3133852305683140e+00 
2.9850710000000000e+00,	 2.0000000000000001e-01,	 1.1748696476023422e-02,	 6.3206462108833739e+02,	 5.2188379439903176e-02,	 6.2555273807284436e+02,	 2.1143824769948328e+03,	 4.7995654485043463e+02,	 1.3169205212939661e+00 
2.9925359999999999e+00,	 2.0000000000000001e-01,	 1.1705100688787828e-02,	 6.3339948901784533e+02,	 5.1744129975314648e-02,	 6.2484123248572132e+02,	 2.1041406748738095e+03,	 4.7968351517511547e+02,	 1.3204529050788270e+00 
3.0000000000000000e+00,	 2.0000000000000001e-01,	 1.1672648398575118e-02,	 6.3433342568290834e+02,	 5.8998895523553530e-02,	 6.2434249429301246e+02,	 2.0966321283181051e+03,	 4.7949203913710090e+02,	 1.3229279667879037e+00 
2.6491699999999998e+00,	 2.0581279999999999e-01,	 1.4112211026923002e-02,	 5.7682746774832390e+02,	 4.2323072116898414e-01,	 6.4977613073379712e+02,	 2.6380848095257211e+03,	 4.8916100701836575e+02,	 1.1792183243121581e+00 
2.6566350000000001e+00,	 2.0580899999999999e-01,	 1.4081176135150267e-02,	 5.7798109916353360e+02,	 4.1811771913292911e-01,	 6.4920083311286794e+02,	 2.6299526948222119e+03,	 4.8894441281989060e+02,	 1.1821001227226209e+00 
2.6640990000000002e+00,	 2.0580530000000000e-01,	 1.4031861921953818e-02,	 5.7976494888050388e+02,	 3.9753281337365576e-01,	 6.4828806008648326e+02,	 2.6170574891157898e+03,	 4.8860056525281840e+02,	 1.1865829194661384e+00 
2.6715640000000000e+00,	 2.0580160000000000e-01,	 1.3981915634322203e-02,	 5.8151249076998636e+02,	 3.8699508124808274e-01,	 6.4736730063126595e+02,	 2.6040383365728485e+03,	 4.8825346380730474e+02,	 1.1910056203341008e+00 
2.6790280000000002e+00,	 2.0579790000000001e-01,	 1.3931295853820519e-02,	 5.8322686752308368e+02,	 3.8132022891348166e-01,	 6.4643855874512292e+02,	 2.5908883969558847e+03,	 4.8790310304750000e+02,	 1.1953746318395493e+00 
2.6864930000000000e+00,	 2.0579410000000001e-01,	 1.3880112042002207e-02,	 5.8491373691995773e+02,	 3.7760068266269087e-01,	 6.4550356962057606e+02,	 2.5776358156032916e+03,	 4.8755013124444343e+02,	 1.1996999309797163e+00 
2.6939570000000002e+00,	 2.0579040000000001e-01,	 1.3828512408207604e-02,	 5.8657791398928362e+02,	 3.7596034813418988e-01,	 6.4456431053527319e+02,	 2.5643166733928756e+03,	 4.8719528998835079e+02,	 1.2039895428525613e+00 
2.7014220000000000e+00,	 2.0578669999999999e-01,	 1.3776609275367818e-02,	 5.8822100487925752e+02,	 3.7514524831135881e-01,	 6.4362298012209885e+02,	 2.5509610100516948e+03,	 4.8683940672023090e+02,	 1.2082446827153508e+00 
2.7088860000000001e+00,	 2.0578289999999999e-01,	 1.3724591079027279e-02,	 5.8984555599196028e+02,	 3.8024139704546639e-01,	 6.4268156211799601e+02,	 2.5376118384104739e+03,	 4.8648322995703745e+02,	 1.2124686777065836e+00 
2.7163499999999998e+00,	 2.0577920000000000e-01,	 1.3672694882486290e-02,	 5.9145619524120445e+02,	 3.8873254038563299e-01,	 6.4174221383369093e+02,	 2.5243215094390334e+03,	 4.8612757614897123e+02,	 1.2166689404315985e+00 
2.7238150000000001e+00,	 2.0577540000000000e-01,	 1.3621098932315829e-02,	 5.9305691323074529e+02,	 4.0001594560194459e-01,	 6.4080738111619007e+02,	 2.5111322767783204e+03,	 4.8577337350052994e+02,	 1.2208512868092445e+00 
2.7312789999999998e+00,	 2.0577170000000000e-01,	 1.3569998793549042e-02,	 5.9465427823761001e+02,	 4.1449252372239653e-01,	 6.3988017078047983e+02,	 2.4980918273569282e+03,	 4.8542180362585856e+02,	 1.2250261901152977e+00 
2.7387440000000001e+00,	 2.0576790000000000e-01,	 1.3519506420168985e-02,	 5.9625265139253440e+02,	 4.3065536820058864e-01,	 6.3896436581046623e+02,	 2.4852347219525886e+03,	 4.8507430819107401e+02,	 1.2291989017945681e+00 
2.7462080000000002e+00,	 2.0576410000000001e-01,	 1.3469640728804551e-02,	 5.9785349775200848e+02,	 4.4545672988654583e-01,	 6.3806165253788049e+02,	 2.4725699903385876e+03,	 4.8473153650724538e+02,	 1.2333706777431777e+00 
2.7536730000000000e+00,	 2.0576030000000001e-01,	 1.3420257020473590e-02,	 5.9945352681188569e+02,	 4.5577712173516438e-01,	 6.3717133130291620e+02,	 2.4600673546861476e+03,	 4.8439323265320849e+02,	 1.2375352496088488e+00 
2.7611370000000002e+00,	 2.0575650000000001e-01,	 1.3371119334463017e-02,	 6.0104624968452606e+02,	 4.6099399881655811e-01,	 6.3629045393569220e+02,	 2.4476713811242453e+03,	 4.8405828458695146e+02,	 1.2416819329625224e+00 
2.7686020000000000e+00,	 2.0575270000000001e-01,	 1.3322016626572866e-02,	 6.0262533387343342e+02,	 4.6370814083795420e-01,	 6.3541553491033312e+02,	 2.4353295431544548e+03,	 4.8372537256102231e+02,	 1.2458009161064938e+00 
2.7760660000000001e+00,	 2.0574890000000001e-01,	 1.3272897335361364e-02,	 6.0418827503351099e+02,	 4.6801659895384773e-01,	 6.3454486385091025e+02,	 2.4230256179454391e+03,	 4.8339384930358165e+02,	 1.2498885891319169e+00 
2.7835310000000000e+00,	 2.0574509999999999e-01,	 1.3223902224107740e-02,	 6.0573795408775959e+02,	 4.7700741415787296e-01,	 6.3367944993370224e+02,	 2.4107889390780183e+03,	 4.8306410232979556e+02,	 1.2539498153216797e+00 
2.7909950000000001e+00,	 2.0574129999999999e-01,	 1.3175295499401107e-02,	 6.0728095042424661e+02,	 4.9146332684681093e-01,	 6.3282241070937687e+02,	 2.3986791093094043e+03,	 4.8273732436520368e+02,	 1.2579950184910995e+00 
2.7984599999999999e+00,	 2.0573749999999999e-01,	 1.3127328189351911e-02,	 6.0882454060333544e+02,	 5.1017557023773241e-01,	 6.3197697458592677e+02,	 2.3867533231743105e+03,	 4.8241475363501661e+02,	 1.2620359343722682e+00 
2.8059240000000001e+00,	 2.0573379999999999e-01,	 1.3080147707999788e-02,	 6.1037295933335201e+02,	 5.3041672293189868e-01,	 6.3114547441626735e+02,	 2.3750461792478181e+03,	 4.8209728955421087e+02,	 1.2660788662904903e+00 
2.8133880000000002e+00,	 2.0573000000000000e-01,	 1.3033746624583110e-02,	 6.1192655603368939e+02,	 5.4871559736377029e-01,	 6.3032826709919129e+02,	 2.3635565361500999e+03,	 4.8178507861363124e+02,	 1.2701240225446813e+00 
2.8208530000000001e+00,	 2.0572630000000000e-01,	 1.2988027285111156e-02,	 6.1348306370233240e+02,	 5.6157803052350352e-01,	 6.2952347991396402e+02,	 2.3522585880652446e+03,	 4.8147741487792024e+02,	 1.2741684277965457e+00 
2.8283170000000002e+00,	 2.0572250000000000e-01,	 1.2942777454318332e-02,	 6.1503713921647341e+02,	 5.6700294437865473e-01,	 6.2872826915003827e+02,	 2.3411023931624404e+03,	 4.8117321890803743e+02,	 1.2782037245802471e+00 
2.8357820000000000e+00,	 2.0571870000000000e-01,	 1.2897740183469784e-02,	 6.1658209906111063e+02,	 5.6649155541517893e-01,	 6.2793772118332902e+02,	 2.3300226036690033e+03,	 4.8087061587804737e+02,	 1.2822209112743663e+00 
2.8432460000000002e+00,	 2.0571500000000001e-01,	 1.2852758819068829e-02,	 6.1811327453230342e+02,	 5.6549072217550189e-01,	 6.2714957395902752e+02,	 2.3189822644183528e+03,	 4.8056874212035098e+02,	 1.2862125207709112e+00 
2.8507110000000000e+00,	 2.0571120000000001e-01,	 1.2807875196338289e-02,	 6.1963267543548727e+02,	 5.6337055707974482e-01,	 6.2636558525330304e+02,	 2.3079952598676418e+03,	 4.8026827290147156e+02,	 1.2901808562129387e+00 
2.8581750000000001e+00,	 2.0570749999999999e-01,	 1.2763119671355018e-02,	 6.2114177465685600e+02,	 5.6067096719911058e-01,	 6.2558619896874211e+02,	 2.2970684561305652e+03,	 4.7996938114724151e+02,	 1.2941284425597155e+00 
2.8656400000000000e+00,	 2.0570369999999999e-01,	 1.2718461058150372e-02,	 6.2263968409884137e+02,	 5.5774194167320834e-01,	 6.2481126963655720e+02,	 2.2861954511789836e+03,	 4.7967201396779188e+02,	 1.2980534944130493e+00 
2.8731040000000001e+00,	 2.0569999999999999e-01,	 1.2673916900038103e-02,	 6.2412644350596474e+02,	 5.5459651283543931e-01,	 6.2404004349973104e+02,	 2.2753764096501855e+03,	 4.7937588468936974e+02,	 1.3019567939187773e+00 
2.8805689999999999e+00,	 2.0569630000000000e-01,	 1.2629443128507669e-02,	 6.2560040148363976e+02,	 5.5109576575690511e-01,	 6.2327159344827214e+02,	 2.2645998424341469e+03,	 4.7908063929389368e+02,	 1.3058357881831903e+00 
2.8880330000000001e+00,	 2.0569260000000000e-01,	 1.2584985164184135e-02,	 6.2705946761137011e+02,	 5.4751562214269744e-01,	 6.2250417588194682e+02,	 2.2538495087128949e+03,	 4.7878560889079841e+02,	 1.3096878749030800e+00 
2.8954979999999999e+00,	 2.0568890000000001e-01,	 1.2540490378130003e-02,	 6.2850162937437153e+02,	 5.4440217735720497e-01,	 6.2173635210973350e+02,	 2.2431107541344982e+03,	 4.7849024026753369e+02,	 1.3135103127723817e+00 
2.9029620000000000e+00,	 2.0568520000000001e-01,	 1.2495954858976595e-02,	 6.2992606339874578e+02,	 5.4227390728324520e-01,	 6.2096765751564476e+02,	 2.2323812496435335e+03,	 4.7819435390182019e+02,	 1.3173018285723346e+00 
2.9104260000000002e+00,	 2.0568159999999999e-01,	 1.2451424593368303e-02,	 6.3133415910393319e+02,	 5.4129048678465153e-01,	 6.2019920887866976e+02,	 2.2216732615094925e+03,	 4.7789837910270165e+02,	 1.3210640980492547e+00 
2.9178910000000000e+00,	 2.0567790000000000e-01,	 1.2406939737584013e-02,	 6.3272750857689016e+02,	 5.4123690147113446e-01,	 6.1943261538826869e+02,	 2.2109996767269336e+03,	 4.7760293607519316e+02,	 1.3247986816501076e+00 
2.9253550000000001e+00,	 2.0567430000000000e-01,	 1.2362505297498511e-02,	 6.3410638767053933e+02,	 5.4125597023525351e-01,	 6.1866804674434445e+02,	 2.2003618885604396e+03,	 4.7730809126928193e+02,	 1.3285059069183973e+00 
2.9328200000000000e+00,	 2.0567060000000001e-01,	 1.2318041540391353e-02,	 6.3546874051430723e+02,	 5.4037241313982698e-01,	 6.1790506963939799e+02,	 2.1897440766495565e+03,	 4.7701367854076256e+02,	 1.3321818615594911e+00 
2.9402840000000001e+00,	 2.0566699999999999e-01,	 1.2273505836571438e-02,	 6.3681363111968676e+02,	 5.3840350457134789e-01,	 6.1714268437279281e+02,	 2.1791351004493063e+03,	 4.7671931257490974e+02,	 1.3358255936404577e+00 
2.9477490000000000e+00,	 2.0566340000000000e-01,	 1.2228807813425295e-02,	 6.3813884047566864e+02,	 5.3600731060049200e-01,	 6.1637990741229714e+02,	 2.1685154986792427e+03,	 4.7642461335291011e+02,	 1.3394334543200603e+00 
2.9552130000000001e+00,	 2.0565980000000000e-01,	 1.2183878013707499e-02,	 6.3944149858105641e+02,	 5.3415175758636158e-01,	 6.1561505259122032e+02,	 2.1578671814276249e+03,	 4.7612892819897507e+02,	 1.3430011994844577e+00 
2.9626779999999999e+00,	 2.0565620000000001e-01,	 1.2138734372755660e-02,	 6.4072128645772989e+02,	 5.3237758614808317e-01,	 6.1484790477523916e+02,	 2.1471928035150195e+03,	 4.7583217202865148e+02,	 1.3465283461252020e+00 
2.9701420000000001e+00,	 2.0565259999999999e-01,	 1.2093459957171836e-02,	 6.4198029805196938e+02,	 5.3496313408039031e-01,	 6.1407958204102738e+02,	 2.1365111609635323e+03,	 4.7553477574863331e+02,	 1.3500180295627140e+00 
2.9776069999999999e+00,	 2.0564890000000000e-01,	 1.2048352474902798e-02,	 6.4322735082273539e+02,	 5.4581647669959088e-01,	 6.1331550982901570e+02,	 2.1258937213993504e+03,	 4.7523884016317089e+02,	 1.3534827712748332e+00 
2.9850710000000000e+00,	 2.0564510000000000e-01,	 1.2003785464525300e-02,	 6.4447408032509031e+02,	 5.6173740541947970e-01,	 6.1256234911538661e+02,	 2.1154290403890527e+03,	 4.7494695028591826e+02,	 1.3569396008296173e+00 
2.9925359999999999e+00,	 2.0564109999999999e-01,	 1.1960045592097360e-02,	 6.4572855850518010e+02,	 5.7307230486380423e-01,	 6.1182209592678828e+02,	 2.1051736728675828e+03,	 4.7465988785347247e+02,	 1.3604031630329585e+00 
3.0000000000000000e+00,	 2.0563850000000000e-01,	 1.1926997978569427e-02,	 6.4661922911452643e+02,	 5.8842178894570019e-01,	 6.1127968372873488e+02,	 2.0974955354150711e+03,	 4.7444943582555283e+02,	 1.3628838987245806e+00 
2.6491690000000001e+00,	 2.1156670000000000e-01,	 1.4576277847161714e-02,	 6.0905783687283565e+02,	 1.0968583229972404e+00,	 6.2917269446262731e+02,	 2.6384352578524922e+03,	 4.8134325085358364e+02,	 1.2653315974899539e+00 
2.6566339999999999e+00,	 2.1156059999999999e-01,	 1.4541226252308834e-02,	 6.1014437069052315e+02,	 1.0844302996626496e+00,	 6.2855088498562441e+02,	 2.6294893218424972e+03,	 4.8110533701487805e+02,	 1.2682156846833799e+00 
2.6640980000000001e+00,	 2.1155440000000000e-01,	 1.4490578461308459e-02,	 6.1172609373314322e+02,	 1.0480201314091959e+00,	 6.2765733126356020e+02,	 2.6166055977473529e+03,	 4.8076324350368390e+02,	 1.2724079882185371e+00 
2.6715629999999999e+00,	 2.1154829999999999e-01,	 1.4439356283108875e-02,	 6.1327699577588533e+02,	 1.0225785138198438e+00,	 6.2675753373337557e+02,	 2.6036184051097325e+03,	 4.8041851342023176e+02,	 1.2765491569699965e+00 
2.6790270000000000e+00,	 2.1154210000000001e-01,	 1.4387462740394281e-02,	 6.1479596114908475e+02,	 1.0073101120323544e+00,	 6.2585143029339235e+02,	 2.5905107478874274e+03,	 4.8007111726657246e+02,	 1.2806368978429203e+00 
2.6864919999999999e+00,	 2.1153590000000000e-01,	 1.4334927958536130e-02,	 6.1628444328493083e+02,	 9.9775340022708781e-01,	 6.2493869200859797e+02,	 2.5772874932621389e+03,	 4.7972092300072535e+02,	 1.2846745293113908e+00 
2.6939560000000000e+00,	 2.1152969999999999e-01,	 1.4281950072525347e-02,	 6.1774856004041465e+02,	 9.9350732197823710e-01,	 6.2402168263463932e+02,	 2.5639947299027999e+03,	 4.7936883240099320e+02,	 1.2886723483053635e+00 
2.7014209999999999e+00,	 2.1152350000000000e-01,	 1.4228711189827860e-02,	 6.1919348489134495e+02,	 9.9065465273743170e-01,	 6.2310250431244276e+02,	 2.5506742538536596e+03,	 4.7901564930633003e+02,	 1.2926389320835110e+00 
2.7088850000000000e+00,	 2.1151739999999999e-01,	 1.4175397864415646e-02,	 6.2062164718480187e+02,	 1.0005507094326802e+00,	 6.2218294376452297e+02,	 2.5373670510689726e+03,	 4.7866205858574074e+02,	 1.2965774967612826e+00 
2.7163499999999998e+00,	 2.1151120000000001e-01,	 1.4122259051486303e-02,	 6.2203648427118560e+02,	 1.0189232003332784e+00,	 6.2126439607891075e+02,	 2.5241233628742011e+03,	 4.7830859637143425e+02,	 1.3004937053402907e+00 
2.7238140000000000e+00,	 2.1150490000000000e-01,	 1.4069499906547234e-02,	 6.2344170967157606e+02,	 1.0436213276507029e+00,	 6.2034756248229723e+02,	 2.5109824568680669e+03,	 4.7795553308358933e+02,	 1.3043945304764644e+00 
2.7312780000000001e+00,	 2.1149870000000001e-01,	 1.4017278190723136e-02,	 6.2484200567916685e+02,	 1.0738627849467195e+00,	 6.1943303272706464e+02,	 2.4979744469293246e+03,	 4.7760309696614058e+02,	 1.3082891053804828e+00 
2.7387429999999999e+00,	 2.1149250000000000e-01,	 1.3965631617422477e-02,	 6.2623902323162338e+02,	 1.1063119824603267e+00,	 6.1852278227695183e+02,	 2.4851134529679516e+03,	 4.7725205154284481e+02,	 1.3121787500128910e+00 
2.7462070000000001e+00,	 2.1148620000000001e-01,	 1.3914540293561541e-02,	 6.2763354822372230e+02,	 1.1356455961758027e+00,	 6.1761846903034734e+02,	 2.4724019344708572e+03,	 4.7690303997029838e+02,	 1.3160632729149213e+00 
2.7536719999999999e+00,	 2.1147990000000000e-01,	 1.3863918742566182e-02,	 6.2902489454768590e+02,	 1.1568516859921500e+00,	 6.1672089637678573e+02,	 2.4598272348345595e+03,	 4.7655637711720715e+02,	 1.3199402810343355e+00 
2.7611360000000000e+00,	 2.1147360000000001e-01,	 1.3813644344241330e-02,	 6.3041069453603859e+02,	 1.1684348571756984e+00,	 6.1583052626525296e+02,	 2.4473688068141382e+03,	 4.7621224672193165e+02,	 1.3238042106068593e+00 
2.7686009999999999e+00,	 2.1146730000000000e-01,	 1.3763593477948574e-02,	 6.3178861338871388e+02,	 1.1741950958175678e+00,	 6.1494665188779970e+02,	 2.4350014018603738e+03,	 4.7587038080049501e+02,	 1.3276508268083749e+00 
2.7760650000000000e+00,	 2.1146100000000001e-01,	 1.3713733531441608e-02,	 6.3315804385279284e+02,	 1.1809343049457273e+00,	 6.1406838518033430e+02,	 2.4227153037242733e+03,	 4.7553044038147090e+02,	 1.3314797358783834e+00 
2.7835299999999998e+00,	 2.1145470000000000e-01,	 1.3664158860773934e-02,	 6.3452124906695803e+02,	 1.1942931311546430e+00,	 6.1319536520266456e+02,	 2.4105253530581822e+03,	 4.7519228974296118e+02,	 1.3352960195457932e+00 
2.7909940000000000e+00,	 2.1144840000000001e-01,	 1.3615060807067278e-02,	 6.3588285992715146e+02,	 1.2163387302214401e+00,	 6.1232807154971101e+02,	 2.3984666961288372e+03,	 4.7485611866982134e+02,	 1.3391088337131256e+00 
2.7984589999999998e+00,	 2.1144220000000000e-01,	 1.3566615147188484e-02,	 6.3724724527315993e+02,	 1.2452164299723474e+00,	 6.1146761388831180e+02,	 2.3865739863384933e+03,	 4.7452236194151692e+02,	 1.3429260936737279e+00 
2.8059229999999999e+00,	 2.1143590000000001e-01,	 1.3518922890302501e-02,	 6.3861671567434485e+02,	 1.2765570344584933e+00,	 6.1061484934369776e+02,	 2.3748675312253090e+03,	 4.7419135746934489e+02,	 1.3467516467660441e+00 
2.8133880000000002e+00,	 2.1142970000000000e-01,	 1.3471957107232198e-02,	 6.3999066666836495e+02,	 1.3048114370715582e+00,	 6.0976999526007444e+02,	 2.3633425778985702e+03,	 4.7386319547189817e+02,	 1.3505838877249365e+00 
2.8208519999999999e+00,	 2.1142340000000001e-01,	 1.3425612040306496e-02,	 6.4136612781278382e+02,	 1.3250334753478841e+00,	 6.0893244225191825e+02,	 2.3519773949833780e+03,	 4.7353764491375313e+02,	 1.3544171269800913e+00 
2.8283170000000002e+00,	 2.1141720000000000e-01,	 1.3379766820899426e-02,	 6.4273962193031366e+02,	 1.3339122379509378e+00,	 6.0810166408639566e+02,	 2.3407480705232470e+03,	 4.7321450643183601e+02,	 1.3582445114485269e+00 
2.8357809999999999e+00,	 2.1141090000000001e-01,	 1.3334248192364728e-02,	 6.4410655073206976e+02,	 1.3320580510641495e+00,	 6.0727661508296978e+02,	 2.3296196969992311e+03,	 4.7289337782918204e+02,	 1.3620574072799669e+00 
2.8432460000000002e+00,	 2.1140470000000000e-01,	 1.3288894382486665e-02,	 6.4546298873950172e+02,	 1.3289866957204368e+00,	 6.0645485743355709e+02,	 2.3185542717134758e+03,	 4.7257331338642774e+02,	 1.3658502048756562e+00 
2.8507099999999999e+00,	 2.1139839999999999e-01,	 1.3243690395367623e-02,	 6.4680867415528451e+02,	 1.3246240764167529e+00,	 6.0563798118563034e+02,	 2.3075549943594137e+03,	 4.7225493519884753e+02,	 1.3696204789379740e+00 
2.8581750000000001e+00,	 2.1139220000000000e-01,	 1.3198655501398206e-02,	 6.4814555350096634e+02,	 1.3177714237463933e+00,	 6.0482639762414510e+02,	 2.2966264837125996e+03,	 4.7193840713943547e+02,	 1.3733717860258137e+00 
2.8656389999999998e+00,	 2.1138589999999999e-01,	 1.3153701145950195e-02,	 6.4947095527940155e+02,	 1.3109885324464594e+00,	 6.0401951728655149e+02,	 2.2857507965767227e+03,	 4.7162350280471202e+02,	 1.3770990516006187e+00 
2.8731040000000001e+00,	 2.1137970000000000e-01,	 1.3108837937301721e-02,	 6.5078490040575321e+02,	 1.3044566133117537e+00,	 6.0321630965975987e+02,	 2.2749256489600616e+03,	 4.7130982286511630e+02,	 1.3808034040073816e+00 
2.8805679999999998e+00,	 2.1137349999999999e-01,	 1.3064047238635300e-02,	 6.5208618111045519e+02,	 1.2976658654184958e+00,	 6.0241584012205772e+02,	 2.2641440927752797e+03,	 4.7099700440151679e+02,	 1.3844832689107998e+00 
2.8880330000000001e+00,	 2.1136730000000001e-01,	 1.3019298778013140e-02,	 6.5337322137753245e+02,	 1.2905980712948013e+00,	 6.0161666842168768e+02,	 2.2533953380048520e+03,	 4.7068448572979389e+02,	 1.3881368853967893e+00 
2.8954970000000002e+00,	 2.1136099999999999e-01,	 1.2974543856007282e-02,	 6.5464467985934812e+02,	 1.2840934171503955e+00,	 6.0081704637243820e+02,	 2.2426643621769135e+03,	 4.7037158313226314e+02,	 1.3917633690392444e+00 
2.9029620000000000e+00,	 2.1135480000000001e-01,	 1.2929765282697613e-02,	 6.5589954232377374e+02,	 1.2802069529506164e+00,	 6.0001589609581811e+02,	 2.2319442103046949e+03,	 4.7005787363253933e+02,	 1.3953617809431285e+00 
2.9104260000000002e+00,	 2.1134860000000000e-01,	 1.2884987659519117e-02,	 6.5713803264180478e+02,	 1.2786226226009338e+00,	 5.9921340622601008e+02,	 2.2212398980913067e+03,	 4.6974342955232595e+02,	 1.3989323431373446e+00 
2.9178910000000000e+00,	 2.1134240000000001e-01,	 1.2840219298071486e-02,	 6.5836064309587891e+02,	 1.2781579866537849e+00,	 5.9841047470207286e+02,	 2.2105562245908468e+03,	 4.6942860161386773e+02,	 1.4024750122924026e+00 