TITLE = "Final State"
VARIABLES = "X", "Y", "rho", "u", "v", "T", "p", "c", "M"
ZONE I=201, J=75, DATAPACKING=POINT
0.0000000000000000e+00,	 0.0000000000000000e+00,	 4.4550035507597327e-02,	 1.5328995538769639e+03,	 -2.4872430725306481e-04,	 1.1883333665643277e+03,	 1.5230574440011165e+04,	 6.6151409066244480e+02,	 2.3172591113545713e+00 
6.2102999999999995e-04,	 0.0000000000000000e+00,	 4.4550037575953563e-02,	 1.5328995981702078e+03,	 -2.7141013228040872e-04,	 1.1883335384577163e+03,	 1.5230577350246984e+04,	 6.6151413850671884e+02,	 2.3172590107152526e+00 
1.2420599999999999e-03,	 0.0000000000000000e+00,	 4.4550031893324869e-02,	 1.5328997593086542e+03,	 -5.0257914104625330e-05,	 1.1883334965106292e+03,	 1.5230574869868675e+04,	 6.6151412683129672e+02,	 2.3172592952041131e+00 
1.8630900000000000e-03,	 0.0000000000000000e+00,	 4.4550014919372168e-02,	 1.5328999062120067e+03,	 3.0647083321578986e-05,	 1.1883332273783578e+03,	 1.5230565617486060e+04,	 6.6151405192184995e+02,	 2.3172597796805396e+00 
2.4841199999999998e-03,	 0.0000000000000000e+00,	 4.4550005130353856e-02,	 1.5328999813410041e+03,	 3.5282828243076945e-05,	 1.1883330612110940e+03,	 1.5230560141135780e+04,	 6.6151400567136182e+02,	 2.3172600552656246e+00 
3.1051500000000001e-03,	 0.0000000000000000e+00,	 4.4550000013514418e-02,	 1.5329000070236120e+03,	 1.9666860812125114e-05,	 1.1883329936278722e+03,	 1.5230557525616456e+04,	 6.6151398686045343e+02,	 2.3172601599835532e+00 
3.7261799999999999e-03,	 0.0000000000000000e+00,	 4.4549998501749746e-02,	 1.5329000140284497e+03,	 4.9629566998919269e-06,	 1.1883329764192283e+03,	 1.5230556788222273e+04,	 6.6151398207065188e+02,	 2.3172601873511587e+00 
4.3472099999999998e-03,	 0.0000000000000000e+00,	 4.4549999311196832e-02,	 1.5329000124094107e+03,	 -2.4042800305689285e-06,	 1.1883329761437496e+03,	 1.5230557061421730e+04,	 6.6151398199397590e+02,	 2.3172601851722767e+00 
4.9682399999999996e-03,	 0.0000000000000000e+00,	 4.4550000162249630e-02,	 1.5329000083369310e+03,	 -4.0060184892666882e-06,	 1.1883329848258354e+03,	 1.5230557463651956e+04,	 6.6151398441052129e+02,	 2.3172601705509015e+00 
5.5892700000000003e-03,	 0.0000000000000000e+00,	 4.4550000755023356e-02,	 1.5329000044553841e+03,	 -2.7811653716534635e-06,	 1.1883329925323660e+03,	 1.5230557765079440e+04,	 6.6151398655553362e+02,	 2.3172601571693274e+00 
6.2103000000000002e-03,	 0.0000000000000000e+00,	 4.4550001065450595e-02,	 1.5329000017227090e+03,	 -1.6634110781662575e-06,	 1.1883329965899245e+03,	 1.5230557923211618e+04,	 6.6151398768490208e+02,	 2.3172601490822489e+00 
6.8313300000000000e-03,	 0.0000000000000000e+00,	 4.4550001208986029e-02,	 1.5329000002590305e+03,	 -9.4131972136578319e-07,	 1.1883329987611769e+03,	 1.5230558000111261e+04,	 6.6151398828924187e+02,	 2.3172601447526486e+00 
7.4523599999999999e-03,	 0.0000000000000000e+00,	 4.4550001276775567e-02,	 1.5328999996851244e+03,	 -4.1839875302417296e-07,	 1.1883329999934372e+03,	 1.5230558039080412e+04,	 6.6151398863222551e+02,	 2.3172601426836246e+00 
8.0733899999999997e-03,	 0.0000000000000000e+00,	 4.4550001298724017e-02,	 1.5328999995424977e+03,	 -1.3927903619322093e-07,	 1.1883330005209550e+03,	 1.5230558053345112e+04,	 6.6151398877905319e+02,	 2.3172601419536858e+00 
8.6944199999999996e-03,	 0.0000000000000000e+00,	 4.4550001298698613e-02,	 1.5328999995559375e+03,	 -4.6327241037848320e-08,	 1.1883330007199463e+03,	 1.5230558055886848e+04,	 6.6151398883443983e+02,	 2.3172601417799852e+00 
9.3154499999999994e-03,	 0.0000000000000000e+00,	 4.4550001297871490e-02,	 1.5328999995861250e+03,	 -2.1220750618959392e-08,	 1.1883330007936033e+03,	 1.5230558056548118e+04,	 6.6151398885494132e+02,	 2.3172601417538030e+00 
9.9364799999999993e-03,	 0.0000000000000000e+00,	 4.4550001300763802e-02,	 1.5328999995902223e+03,	 -1.7403899697140342e-08,	 1.1883330008365315e+03,	 1.5230558058087128e+04,	 6.6151398886688980e+02,	 2.3172601417181418e+00 
1.0557510000000001e-02,	 0.0000000000000000e+00,	 4.4550001306486890e-02,	 1.5328999995658914e+03,	 -2.2858467093417045e-08,	 1.1883330008795454e+03,	 1.5230558060595009e+04,	 6.6151398887886216e+02,	 2.3172601416394225e+00 
1.1178540000000001e-02,	 0.0000000000000000e+00,	 4.4550001312940755e-02,	 1.5328999995298495e+03,	 -2.7657629799626246e-08,	 1.1883330009297651e+03,	 1.5230558063445083e+04,	 6.6151398889284019e+02,	 2.3172601415359737e+00 
1.1799570000000001e-02,	 0.0000000000000000e+00,	 4.4550001318824681e-02,	 1.5328999994943854e+03,	 -2.6777629743331449e-08,	 1.1883330009812953e+03,	 1.5230558066117102e+04,	 6.6151398890718292e+02,	 2.3172601414321212e+00 
1.2420600000000000e-02,	 0.0000000000000000e+00,	 4.4550001323555133e-02,	 1.5328999994662204e+03,	 -2.0891187086495506e-08,	 1.1883330010265536e+03,	 1.5230558068314391e+04,	 6.6151398891977999e+02,	 2.3172601413454177e+00 
1.3041630000000000e-02,	 0.0000000000000000e+00,	 4.4550001327136941e-02,	 1.5328999994469827e+03,	 -1.3457216556015891e-08,	 1.1883330010606255e+03,	 1.5230558069975616e+04,	 6.6151398892926341e+02,	 2.3172601412831164e+00 
1.3662660000000000e-02,	 0.0000000000000000e+00,	 4.4550001329904818e-02,	 1.5328999994348046e+03,	 -6.9983559392977571e-09,	 1.1883330010831523e+03,	 1.5230558071210604e+04,	 6.6151398893553346e+02,	 2.3172601412427429e+00 
1.4283690000000000e-02,	 0.0000000000000000e+00,	 4.4550001332244030e-02,	 1.5328999994268645e+03,	 -2.6100830465606358e-09,	 1.1883330010966001e+03,	 1.5230558072182681e+04,	 6.6151398893927649e+02,	 2.3172601412176284e+00 
1.4904720000000000e-02,	 0.0000000000000000e+00,	 4.4550001334476258e-02,	 1.5328999994206029e+03,	 -4.6170855995157462e-10,	 1.1883330011041696e+03,	 1.5230558073042843e+04,	 6.6151398894138333e+02,	 2.3172601412007827e+00 
1.5525750000000000e-02,	 0.0000000000000000e+00,	 4.4550001336843587e-02,	 1.5328999994141614e+03,	 -1.4440607833829944e-10,	 1.1883330011093167e+03,	 1.5230558073918144e+04,	 6.6151398894281601e+02,	 2.3172601411860265e+00 
1.6146779999999999e-02,	 0.0000000000000000e+00,	 4.4550001339544079e-02,	 1.5328999994059654e+03,	 -1.3110817413336545e-09,	 1.1883330011147800e+03,	 1.5230558074911398e+04,	 6.6151398894433657e+02,	 2.3172601411683105e+00 
1.6767810000000001e-02,	 0.0000000000000000e+00,	 4.4550001342694170e-02,	 1.5328999993946848e+03,	 -4.0993666905434556e-09,	 1.1883330011229582e+03,	 1.5230558076093155e+04,	 6.6151398894661293e+02,	 2.3172601411432834e+00 
1.7388839999999999e-02,	 0.0000000000000000e+00,	 4.4550001346100529e-02,	 1.5328999993763900e+03,	 -7.9697234535777893e-09,	 1.1883330011380042e+03,	 1.5230558077450545e+04,	 6.6151398895080081e+02,	 2.3172601411009577e+00 
1.8009870000000001e-02,	 0.0000000000000000e+00,	 4.4550001348953129e-02,	 1.5328999993753246e+03,	 -1.2422021156104397e-08,	 1.1883330011560975e+03,	 1.5230558078657677e+04,	 6.6151398895583679e+02,	 2.3172601410817060e+00 
1.8630899999999999e-02,	 0.0000000000000000e+00,	 4.4550001352082522e-02,	 1.5328999994634496e+03,	 -1.5294382636126227e-08,	 1.1883330011588419e+03,	 1.5230558079762715e+04,	 6.6151398895660066e+02,	 2.3172601412122478e+00 
1.9251930000000000e-02,	 0.0000000000000000e+00,	 4.4550001343589142e-02,	 1.5328999998508557e+03,	 2.1054547524268697e-08,	 1.1883330010078589e+03,	 1.5230558074923927e+04,	 6.6151398891457654e+02,	 2.3172601419450922e+00 
1.9872959999999999e-02,	 0.0000000000000000e+00,	 4.4550001283733258e-02,	 1.5329000010902923e+03,	 1.3665650422743312e-07,	 1.1883330003146850e+03,	 1.5230558045576428e+04,	 6.6151398872164066e+02,	 2.3172601444945760e+00 
2.0493990000000000e-02,	 0.0000000000000000e+00,	 4.4550001059242089e-02,	 1.5329000045026053e+03,	 3.1258746339829647e-07,	 1.1883329980938618e+03,	 1.5230557940364659e+04,	 6.6151398810350338e+02,	 2.3172601518182274e+00 
2.1115020000000002e-02,	 0.0000000000000000e+00,	 4.4550000421738976e-02,	 1.5329000130114080e+03,	 6.2880654435635972e-07,	 1.1883329919741959e+03,	 1.5230557643983726e+04,	 6.6151398640017430e+02,	 2.3172601706475486e+00 
2.1736050000000000e-02,	 0.0000000000000000e+00,	 4.4549998831119535e-02,	 1.5329000327443350e+03,	 1.4073094330708345e-06,	 1.1883329767370396e+03,	 1.5230556904899069e+04,	 6.6151398215911047e+02,	 2.3172602153337927e+00 
2.2357080000000001e-02,	 0.0000000000000000e+00,	 4.4549995149486002e-02,	 1.5329000759205348e+03,	 3.2807131622160094e-06,	 1.1883329414402619e+03,	 1.5230555193848804e+04,	 6.6151397233471255e+02,	 2.3172603150170783e+00 
2.2978110000000000e-02,	 0.0000000000000000e+00,	 4.4549987126938723e-02,	 1.5329001657887334e+03,	 7.4919837656126249e-06,	 1.1883328643579866e+03,	 1.5230551463192483e+04,	 6.6151395087986543e+02,	 2.3172605260249703e+00 
2.3599140000000001e-02,	 0.0000000000000000e+00,	 4.4549970517190049e-02,	 1.5329003447110426e+03,	 1.6394007694593927e-05,	 1.1883327043281561e+03,	 1.5230543733665769e+04,	 6.6151390633764493e+02,	 2.3172609525288368e+00 
2.4220169999999999e-02,	 0.0000000000000000e+00,	 4.4549937648032639e-02,	 1.5329006864696476e+03,	 3.4157388625972500e-05,	 1.1883323867732784e+03,	 1.5230528426492652e+04,	 6.6151381795036889e+02,	 2.3172617787776222e+00 
2.4841200000000001e-02,	 0.0000000000000000e+00,	 4.4549875087255456e-02,	 1.5329013107723381e+03,	 6.8358720363968250e-05,	 1.1883317823214556e+03,	 1.5230499291419577e+04,	 6.6151364970902148e+02,	 2.3172633118706067e+00 
2.5462229999999999e-02,	 0.0000000000000000e+00,	 4.4549760280904731e-02,	 1.5329023715295971e+03,	 1.3151360737622227e-04,	 1.1883306573682098e+03,	 1.5230445623812673e+04,	 6.6151333659272063e+02,	 2.3172660122397160e+00 
2.6083260000000000e-02,	 0.0000000000000000e+00,	 4.4549556766484907e-02,	 1.5329037102564207e+03,	 2.4328323835530279e-04,	 1.1883286479269459e+03,	 1.5230350293102942e+04,	 6.6151277729016078e+02,	 2.3172699952008018e+00 
2.6704289999999999e-02,	 0.0000000000000000e+00,	 4.4549207389146583e-02,	 1.5329059955668190e+03,	 4.3413890937016981e-04,	 1.1883251761301449e+03,	 1.5230186353623587e+04,	 6.6151181095831930e+02,	 2.3172768349308677e+00 
2.7325320000000000e-02,	 0.0000000000000000e+00,	 4.4548625355449449e-02,	 1.5329098232685071e+03,	 7.4934656386168056e-04,	 1.1883193586410875e+03,	 1.5229912812862873e+04,	 6.6151019172878989e+02,	 2.3172882934162899e+00 
2.7946349999999998e-02,	 0.0000000000000000e+00,	 4.4547682601661469e-02,	 1.5329160566623484e+03,	 1.2538485521027291e-03,	 1.1883098858443336e+03,	 1.5229469107976258e+04,	 6.6150755507895349e+02,	 2.3173069527224093e+00 
2.8567380000000000e-02,	 0.0000000000000000e+00,	 4.4546194568039932e-02,	 1.5329259306966223e+03,	 2.0385831967855376e-03,	 1.1882948633871113e+03,	 1.5228767872983255e+04,	 6.6150337372000240e+02,	 2.3173365270648287e+00 
2.9188410000000001e-02,	 0.0000000000000000e+00,	 4.4543900779947562e-02,	 1.5329412081155137e+03,	 3.2288450190832690e-03,	 1.1882716075414760e+03,	 1.5227685684620064e+04,	 6.6149690062309287e+02,	 2.3173822986547172e+00 
2.9809440000000000e-02,	 0.0000000000000000e+00,	 4.4540443382631065e-02,	 1.5329643278926135e+03,	 4.9905063320839936e-03,	 1.1882364166399507e+03,	 1.5226052809976123e+04,	 6.6148710536900512e+02,	 2.3174515655079704e+00 
3.0430470000000001e-02,	 0.0000000000000000e+00,	 4.4535337763686400e-02,	 1.5329985823106331e+03,	 7.5400117188110889e-03,	 1.1881842703129632e+03,	 1.5223639339286176e+04,	 6.6147259036977277e+02,	 2.3175542035267211e+00 
3.1051499999999999e-02,	 0.0000000000000000e+00,	 4.4527933936816963e-02,	 1.5330484148215087e+03,	 1.1164353314658256e-02,	 1.1881084200911819e+03,	 1.5220136797180056e+04,	 6.6145147679139825e+02,	 2.3177035181760393e+00 
3.1672529999999997e-02,	 0.0000000000000000e+00,	 4.4517385704899604e-02,	 1.5331195921473186e+03,	 1.6215286736756138e-02,	 1.1880000556495211e+03,	 1.5215143433348661e+04,	 6.6142131142381902e+02,	 2.3179168341775624e+00 
3.2293559999999999e-02,	 0.0000000000000000e+00,	 4.4502570417131009e-02,	 1.5332197777652577e+03,	 2.3159069035479905e-02,	 1.1878475165756781e+03,	 1.5208126894626505e+04,	 6.6137884684957839e+02,	 2.3182171386997426e+00 
3.2914590000000001e-02,	 0.0000000000000000e+00,	 4.4482057753031198e-02,	 1.5333587602411558e+03,	 3.2552986913560247e-02,	 1.1876358966789267e+03,	 1.5198408839259451e+04,	 6.6131993055117357e+02,	 2.3186338257017804e+00 
3.3535620000000002e-02,	 0.0000000000000000e+00,	 4.4453905507727813e-02,	 1.5335497253306580e+03,	 4.5210257673614314e-02,	 1.1873450942387658e+03,	 1.5185070819305665e+04,	 6.6123896077588552e+02,	 2.3192065455393562e+00 
3.4156649999999997e-02,	 0.0000000000000000e+00,	 4.4415685384160380e-02,	 1.5338094344723586e+03,	 6.2135102064916188e-02,	 1.1869495495540395e+03,	 1.5166960844842222e+04,	 6.6112881110503110e+02,	 2.3199857727683328e+00 
3.4777679999999998e-02,	 0.0000000000000000e+00,	 4.4364211147541702e-02,	 1.5341598462343964e+03,	 8.4724909002849985e-02,	 1.1864157629636479e+03,	 1.5142570672935433e+04,	 6.6098013529186710e+02,	 2.3210377538750904e+00 
3.5398710000000000e-02,	 0.0000000000000000e+00,	 4.4295450906583669e-02,	 1.5346282789088384e+03,	 1.1470227289881270e-01,	 1.1857020036175581e+03,	 1.5110005352044895e+04,	 6.6078127931649715e+02,	 2.3224451588320050e+00 
3.6019740000000001e-02,	 0.0000000000000000e+00,	 4.4204812774885902e-02,	 1.5352455389271704e+03,	 1.5354737081395681e-01,	 1.1847611231137544e+03,	 1.5067121407279437e+04,	 6.6051905507870015e+02,	 2.3243016757824755e+00 
3.6640770000000003e-02,	 0.0000000000000000e+00,	 4.4086802322341467e-02,	 1.5360497671551639e+03,	 2.0346629211163200e-01,	 1.1835346528428508e+03,	 1.5011341867142028e+04,	 6.6017708034057068e+02,	 2.3267238842014901e+00 
3.7261799999999998e-02,	 0.0000000000000000e+00,	 4.3935885643890095e-02,	 1.5370822021925371e+03,	 2.6585706848439927e-01,	 1.1819592163893089e+03,	 1.4940041851914011e+04,	 6.5973754382937534e+02,	 2.3298389481706869e+00 
3.7882829999999999e-02,	 0.0000000000000000e+00,	 4.3747964543473891e-02,	 1.5383756738671823e+03,	 3.2807600226292333e-01,	 1.1799838970862668e+03,	 1.4851279432381272e+04,	 6.5918602850448224e+02,	 2.3337504776008453e+00 
3.8503860000000001e-02,	 0.0000000000000000e+00,	 4.3519737956354707e-02,	 1.5399603533929426e+03,	 3.8435249788415582e-01,	 1.1775616099184376e+03,	 1.4743474664104961e+04,	 6.5850908784642240e+02,	 2.3385560348053804e+00 
3.9124890000000002e-02,	 0.0000000000000000e+00,	 4.3248671311339783e-02,	 1.5418607549241392e+03,	 4.4583163674957066e-01,	 1.1746534778734699e+03,	 1.4615459570382824e+04,	 6.5769545093041415e+02,	 2.3443385798083547e+00 
3.9745919999999997e-02,	 0.0000000000000000e+00,	 4.2933684311521725e-02,	 1.5440902127837858e+03,	 5.1714537484202827e-01,	 1.1712372082179782e+03,	 1.4466815967377175e+04,	 6.5673835971792118e+02,	 2.3511498552451489e+00 
4.0366949999999999e-02,	 0.0000000000000000e+00,	 4.2588384287279721e-02,	 1.5466223371107460e+03,	 6.9649179335300038e-01,	 1.1673513700447818e+03,	 1.4302853786129275e+04,	 6.5564801731026319e+02,	 2.3589219415037621e+00 
4.0987980000000000e-02,	 0.0000000000000000e+00,	 4.2204827472368700e-02,	 1.5494473089054932e+03,	 9.5320555372922622e-01,	 1.1630086343789130e+03,	 1.4121310608685379e+04,	 6.5442732268954535e+02,	 2.3676389239666564e+00 
4.1609010000000002e-02,	 0.0000000000000000e+00,	 4.1768338448544169e-02,	 1.5525831832201382e+03,	 1.1477084037818246e+00,	 1.1581787694893883e+03,	 1.3917227815935908e+04,	 6.5306702152401544e+02,	 2.3773725456299064e+00 
4.2230040000000003e-02,	 0.0000000000000000e+00,	 4.1290096581198116e-02,	 1.5560152262700994e+03,	 1.2896147217166272e+00,	 1.1528816011108763e+03,	 1.3694952949069086e+04,	 6.5157184188753502e+02,	 2.3880954649211072e+00 
4.2851069999999998e-02,	 0.0000000000000000e+00,	 4.0775587916231981e-02,	 1.5597248041657190e+03,	 1.4100198651733820e+00,	 1.1471429789783026e+03,	 1.3456983515902019e+04,	 6.4994817593440303e+02,	 2.3997689342925890e+00 
4.3472100000000000e-02,	 0.0000000000000000e+00,	 4.0227750721262834e-02,	 1.5636949133778535e+03,	 1.5230331299441731e+00,	 1.1409862496217570e+03,	 1.3204929849437509e+04,	 6.4820168981945426e+02,	 2.4123597325510979e+00 
4.4093130000000001e-02,	 0.0000000000000000e+00,	 3.9649763839314983e-02,	 1.5679067583291421e+03,	 1.6326159208031723e+00,	 1.1344375154140237e+03,	 1.2940501946751512e+04,	 6.4633882378321061e+02,	 2.4258292255280876e+00 
4.4714160000000003e-02,	 0.0000000000000000e+00,	 3.9045189588519838e-02,	 1.5723386821963422e+03,	 1.7385352931571938e+00,	 1.1275275439234911e+03,	 1.2665566902385644e+04,	 6.4436736014265250e+02,	 2.4401292501802430e+00 
4.5335189999999997e-02,	 0.0000000000000000e+00,	 3.8417883583885266e-02,	 1.5769667050236835e+03,	 1.8394931386559887e+00,	 1.1202910791398754e+03,	 1.2382098410000417e+04,	 6.4229625885438134e+02,	 2.4552031187258514e+00 
4.5956219999999999e-02,	 0.0000000000000000e+00,	 3.7771813465252442e-02,	 1.5817655599644329e+03,	 1.9344305596075515e+00,	 1.1127650630851272e+03,	 1.2092086789621575e+04,	 6.4013517861713774e+02,	 2.4709886218771695e+00 
4.6577250000000001e-02,	 0.0000000000000000e+00,	 3.7110888317328575e-02,	 1.5867098251272073e+03,	 2.0229038273947855e+00,	 1.1049869314694929e+03,	 1.1797457712009184e+04,	 6.3789401057046678e+02,	 2.4874212460664111e+00 
4.7198280000000002e-02,	 0.0000000000000000e+00,	 3.6438853620334291e-02,	 1.5917749159897251e+03,	 2.1048506683183699e+00,	 1.0969935091084822e+03,	 1.1500022784185579e+04,	 6.3558257547162623e+02,	 2.5044366681400172e+00 
4.7819309999999997e-02,	 0.0000000000000000e+00,	 3.5759200441342044e-02,	 1.5969376656122699e+03,	 2.1803528249409645e+00,	 1.0888199818106768e+03,	 1.1201439032719436e+04,	 6.3321033516252351e+02,	 2.5219726611952731e+00 
4.8440339999999998e-02,	 0.0000000000000000e+00,	 3.5075093790894907e-02,	 1.6021764284082915e+03,	 2.2497354080119218e+00,	 1.0804990486124636e+03,	 1.0903179633640499e+04,	 6.3078614839208262e+02,	 2.5399701816569800e+00 
4.9061370000000000e-02,	 0.0000000000000000e+00,	 3.4389380904183420e-02,	 1.6074712547291028e+03,	 2.3134903218855940e+00,	 1.0720609703545078e+03,	 1.0606541126372169e+04,	 6.2831828165722118e+02,	 2.5583736244134370e+00 
4.9682400000000002e-02,	 0.0000000000000000e+00,	 3.3704618648260729e-02,	 1.6128042939216905e+03,	 2.3719385724281188e+00,	 1.0635338161936997e+03,	 1.0312659021705980e+04,	 6.2581447661424443e+02,	 2.5771312399834088e+00 
5.0303430000000003e-02,	 0.0000000000000000e+00,	 3.3023049023512968e-02,	 1.6181596546613719e+03,	 2.4252835514448439e+00,	 1.0549430094586301e+03,	 1.0022500933435567e+04,	 6.2328181050669355e+02,	 2.5961955649592490e+00 
5.0924459999999998e-02,	 0.0000000000000000e+00,	 3.2346585056541671e-02,	 1.6235228957546315e+03,	 2.4739474921833278e+00,	 1.0463110362428047e+03,	 9.7368657273178178e+03,	 6.2072660005829528e+02,	 2.6155231313100069e+00 
5.1545489999999999e-02,	 0.0000000000000000e+00,	 3.1676875596791193e-02,	 1.6288810892034694e+03,	 2.5183791476853319e+00,	 1.0376581294138759e+03,	 9.4564160044428536e+03,	 6.1815459229782800e+02,	 2.6350739059531212e+00 
5.2166520000000001e-02,	 0.0000000000000000e+00,	 3.1015355458153142e-02,	 1.6342231038375667e+03,	 2.5587800913737033e+00,	 1.0290027072416826e+03,	 9.1817025164995266e+03,	 6.1557108579657563e+02,	 2.6548113528153117e+00 
5.2787550000000003e-02,	 0.0000000000000000e+00,	 3.0363220444688938e-02,	 1.6395393618009989e+03,	 2.5954255978123313e+00,	 1.0203609882193700e+03,	 8.9131582201879410e+03,	 6.1298080680434316e+02,	 2.6747026952671482e+00 
5.3408579999999997e-02,	 0.0000000000000000e+00,	 2.9721447256515730e-02,	 1.6448214518915547e+03,	 2.6286625514652489e+00,	 1.0117471180660875e+03,	 8.6511106461882955e+03,	 6.1038793617746990e+02,	 2.6947183174725087e+00 
5.4029609999999999e-02,	 0.0000000000000000e+00,	 2.9090831268171947e-02,	 1.6500620344439112e+03,	 2.6586413753982798e+00,	 1.0031734674448015e+03,	 8.3958004147908650e+03,	 6.0779618828765047e+02,	 2.7148313992265054e+00 
5.4650640000000000e-02,	 0.0000000000000000e+00,	 2.8471990098270894e-02,	 1.6552547064546166e+03,	 2.6856029352885251e+00,	 9.9465057668498639e+02,	 8.1473861455693377e+03,	 6.0520878427150512e+02,	 2.7350179444308838e+00 
5.5271670000000002e-02,	 0.0000000000000000e+00,	 2.7865412011302403e-02,	 1.6603941533901743e+03,	 2.7099857026287482e+00,	 9.8618773952185109e+02,	 7.9059671463604145e+03,	 6.0262861964374360e+02,	 2.7552564063421716e+00 
5.5892699999999997e-02,	 0.0000000000000000e+00,	 2.7271495827016594e-02,	 1.6654765303175557e+03,	 2.7319697701182712e+00,	 9.7779346748906551e+02,	 7.6716013756507373e+03,	 6.0005839950100312e+02,	 2.7755278026250734e+00 
5.6513729999999998e-02,	 0.0000000000000000e+00,	 2.6690504874555626e-02,	 1.6704988192082260e+03,	 2.7515052646908633e+00,	 9.6947471090600743e+02,	 7.4442887668273333e+03,	 5.9750039396778845e+02,	 2.7958158724174216e+00 
5.7134760000000000e-02,	 0.0000000000000000e+00,	 2.6122551526903896e-02,	 1.6754578744814535e+03,	 2.7688267856851732e+00,	 9.6123653250400662e+02,	 7.2239677767881494e+03,	 5.9495632738225368e+02,	 2.8161061328727781e+00 
5.7755790000000001e-02,	 0.0000000000000000e+00,	 2.5567685974994897e-02,	 1.6803509287674756e+03,	 2.7843424478054319e+00,	 9.5308332353585229e+02,	 7.0105522694908104e+03,	 5.9242774410175116e+02,	 2.8363851158628366e+00 
5.8376820000000003e-02,	 0.0000000000000000e+00,	 2.5025945295018052e-02,	 1.6851764736220885e+03,	 2.7982309695311889e+00,	 9.4501948071704419e+02,	 6.8039511920040004e+03,	 5.8991621552510151e+02,	 2.8566409135709772e+00 
5.8997849999999998e-02,	 0.0000000000000000e+00,	 2.4497316631883849e-02,	 1.6899337631984445e+03,	 2.8105078736706259e+00,	 9.3704877757803536e+02,	 6.6040545433150355e+03,	 5.8742314319369370e+02,	 2.8768633306978590e+00 
5.9618879999999999e-02,	 0.0000000000000000e+00,	 2.3981710815317844e-02,	 1.6946220372790340e+03,	 2.8212006902408993e+00,	 9.2917393142954222e+02,	 6.4107245373796222e+03,	 5.8494961841589463e+02,	 2.8970433218317577e+00 
6.0239910000000001e-02,	 0.0000000000000000e+00,	 2.3478972378651111e-02,	 1.6992404454917028e+03,	 2.8303010392840187e+00,	 9.2139669893394353e+02,	 6.2238006603748718e+03,	 5.8249644548457309e+02,	 2.9171728270197890e+00 
6.0860940000000002e-02,	 0.0000000000000000e+00,	 2.2988891584321568e-02,	 1.7037880029084567e+03,	 2.8379517409004928e+00,	 9.1371798464191897e+02,	 6.0431050353694200e+03,	 5.8006416973464775e+02,	 2.9372446280114266e+00 
6.1481969999999997e-02,	 0.0000000000000000e+00,	 2.2511250726755978e-02,	 1.7082638383157159e+03,	 2.8445589987073365e+00,	 9.0613853993935118e+02,	 5.8684602172280565e+03,	 5.7765329463640160e+02,	 2.9572517330386319e+00 
6.2102999999999998e-02,	 0.0000000000000000e+00,	 2.2045872274250412e-02,	 1.7126680463307962e+03,	 2.8503099133909218e+00,	 8.9865973783986510e+02,	 5.6997067144287330e+03,	 5.7526452871191589e+02,	 2.9771875939924901e+00 
6.2724030000000000e-02,	 0.0000000000000000e+00,	 2.1592560045426583e-02,	 1.7170014591682764e+03,	 2.8549822187837250e+00,	 8.9128267506359327e+02,	 5.5366814603665625e+03,	 5.7289850099650846e+02,	 2.9970471728805768e+00 
6.3345059999999995e-02,	 0.0000000000000000e+00,	 2.1151031110967666e-02,	 1.7212637560192768e+03,	 2.8584982459446624e+00,	 8.8400693920310300e+02,	 5.3791933594750317e+03,	 5.7055536128053291e+02,	 3.0168257918123835e+00 
6.3966090000000003e-02,	 0.0000000000000000e+00,	 2.0720985796781787e-02,	 1.7254533694674988e+03,	 2.8612640459306524e+00,	 8.7683168545106730e+02,	 5.2270491732757819e+03,	 5.6823511896188177e+02,	 3.0365172518540984e+00 
6.4587119999999998e-02,	 0.0000000000000000e+00,	 2.0302222163841751e-02,	 1.7295710865227356e+03,	 2.8635830159407814e+00,	 8.6975764279550344e+02,	 5.0800942184972628e+03,	 5.6593829283687501e+02,	 3.0561166808705176e+00 
6.5208150000000006e-02,	 0.0000000000000000e+00,	 1.9894585635157322e-02,	 1.7336200499869565e+03,	 2.8652079630310161e+00,	 8.6278639640866800e+02,	 4.9381937389069835e+03,	 5.6366568695840658e+02,	 3.0756216988290386e+00 
6.5829180000000001e-02,	 0.0000000000000000e+00,	 1.9497823594378447e-02,	 1.7376021540484135e+03,	 2.8658060173542426e+00,	 8.5591780219746147e+02,	 4.8011816064346613e+03,	 5.6141754819850030e+02,	 3.0950306467832016e+00 
6.6450209999999996e-02,	 0.0000000000000000e+00,	 1.9111577221165223e-02,	 1.7415168961231561e+03,	 2.8655146406916234e+00,	 8.4914966737918633e+02,	 4.6688584888671921e+03,	 5.5919344964417587e+02,	 3.1143412976445299e+00 
6.7071240000000004e-02,	 0.0000000000000000e+00,	 1.8735512396987772e-02,	 1.7453631047000808e+03,	 2.8647371731881019e+00,	 8.4248005452464486e+02,	 4.5410380448225742e+03,	 5.5699303882533729e+02,	 3.1335498543852420e+00 
6.7692269999999999e-02,	 0.0000000000000000e+00,	 1.8369389313601873e-02,	 1.7491415839815322e+03,	 2.8634604086524718e+00,	 8.3590856956276889e+02,	 4.4175699344591112e+03,	 5.5481646680166864e+02,	 3.1526532330595516e+00 
6.8313299999999993e-02,	 0.0000000000000000e+00,	 1.8012992902135972e-02,	 1.7528549400633665e+03,	 2.8614667813489674e+00,	 8.2943518348908367e+02,	 4.2983152925295262e+03,	 5.5266400556516771e+02,	 3.1716508729120343e+00 
6.8934330000000002e-02,	 0.0000000000000000e+00,	 1.7666060293483426e-02,	 1.7565056597193911e+03,	 2.8587065008092440e+00,	 8.2305889791588163e+02,	 4.1831222818145179e+03,	 5.5053560401228174e+02,	 3.1905438507221837e+00 
6.9555359999999997e-02,	 0.0000000000000000e+00,	 1.7328306981908022e-02,	 1.7600955969476790e+03,	 2.8553664940564438e+00,	 8.1677820785543645e+02,	 4.0718353893104609e+03,	 5.4843103699525250e+02,	 3.2093331600819690e+00 
7.0176390000000005e-02,	 0.0000000000000000e+00,	 1.6999484006278542e-02,	 1.7636268376129435e+03,	 2.8516860990324409e+00,	 8.1059215754162528e+02,	 3.9643142569405868e+03,	 5.4635025784960510e+02,	 3.2280192381743009e+00 
7.0797420000000000e-02,	 0.0000000000000000e+00,	 1.6679353208423370e-02,	 1.7671016227788205e+03,	 2.8476528376527348e+00,	 8.0449984603211317e+02,	 3.8604249014880779e+03,	 5.4429323462013986e+02,	 3.2466027590468536e+00 
7.1418449999999994e-02,	 0.0000000000000000e+00,	 1.6367633320033596e-02,	 1.7705210687964873e+03,	 2.8431756081620962e+00,	 7.9849938090974592e+02,	 3.7600221931586402e+03,	 5.4225959508745973e+02,	 3.2650844128514898e+00 
7.2039480000000003e-02,	 0.0000000000000000e+00,	 1.6064004642782737e-02,	 1.7738847530983930e+03,	 2.8382744060547518e+00,	 7.9258793532868572e+02,	 3.6629518996367710e+03,	 5.4024863989339292e+02,	 3.2834641177690833e+00 
7.2660509999999998e-02,	 0.0000000000000000e+00,	 1.5768166673152645e-02,	 1.7771918952106932e+03,	 2.8330414905487364e+00,	 7.8676284910070308e+02,	 3.5690693252221649e+03,	 5.3825971330956929e+02,	 3.3017409799694870e+00 
7.3281540000000006e-02,	 0.0000000000000000e+00,	 1.5479877375869457e-02,	 1.7804427510356904e+03,	 2.8276043839942200e+00,	 7.8102248707698936e+02,	 3.4782515853941691e+03,	 5.3629249903493201e+02,	 3.3199140386329957e+00 
7.3902570000000001e-02,	 0.0000000000000000e+00,	 1.5198955240684242e-02,	 1.7836389629066844e+03,	 2.8220530850121972e+00,	 7.7536631899141639e+02,	 3.3903973924747274e+03,	 5.3434705415538542e+02,	 3.3379826491877793e+00 
7.4523599999999995e-02,	 0.0000000000000000e+00,	 1.4925245748314376e-02,	 1.7867829989869674e+03,	 2.8163967599980144e+00,	 7.6979431039951430e+02,	 3.3054159999865274e+03,	 5.3242360539163212e+02,	 3.3559466570387539e+00 
7.5144630000000004e-02,	 0.0000000000000000e+00,	 1.4658576821933163e-02,	 1.7898771245098706e+03,	 2.8105344296693806e+00,	 7.6430599867864316e+02,	 3.2232130521673644e+03,	 5.3052223143099366e+02,	 3.3738064591292583e+00 
7.5765659999999999e-02,	 0.0000000000000000e+00,	 1.4398733095666139e-02,	 1.7929223879049998e+03,	 2.8043520311657706e+00,	 7.5889985610066503e+02,	 3.1436825859655755e+03,	 5.2864263836284590e+02,	 3.3915625622492707e+00 
7.6386689999999993e-02,	 0.0000000000000000e+00,	 1.4145463015141621e-02,	 1.7959184509069548e+03,	 2.7979375576916654e+00,	 7.5357345699121424e+02,	 3.0667099195841024e+03,	 5.2678421150185136e+02,	 3.4092149901348008e+00 
7.7007720000000002e-02,	 0.0000000000000000e+00,	 1.3898521566308778e-02,	 1.7988644511156144e+03,	 2.7914198717824243e+00,	 7.4832432835061354e+02,	 2.9921847648544140e+03,	 5.2494630824833155e+02,	 3.4267630587489100e+00 
7.7628749999999996e-02,	 0.0000000000000000e+00,	 1.3657685588853745e-02,	 1.8017600188665028e+03,	 2.7847787509529534e+00,	 7.4315035314189151e+02,	 2.9200059517325822e+03,	 5.2312839979230171e+02,	 3.4442063777094698e+00 
7.8249780000000005e-02,	 0.0000000000000000e+00,	 1.3422738741370788e-02,	 1.8046053262385785e+03,	 2.7777807890071973e+00,	 7.3804944678453762e+02,	 2.8500766082296814e+03,	 5.2132995906910503e+02,	 3.4615456731885184e+00 
7.8870810000000000e-02,	 0.0000000000000000e+00,	 1.3193469263983210e-02,	 1.8074010157427797e+03,	 2.7701452687851473e+00,	 7.3301942567594574e+02,	 2.7823030454137811e+03,	 5.1955041439535785e+02,	 3.4787829795134044e+00 
7.9491839999999994e-02,	 0.0000000000000000e+00,	 1.2969714177931933e-02,	 1.8101487821107412e+03,	 2.7621604424242565e+00,	 7.2805905336643968e+02,	 2.7166078386238555e+03,	 5.1778952092122074e+02,	 3.4959202849853490e+00 
8.0112870000000003e-02,	 0.0000000000000000e+00,	 1.2751572424601669e-02,	 1.8128527621853889e+03,	 2.7555734019147424e+00,	 7.2317297931407461e+02,	 2.6529915707428086e+03,	 5.1604912848198046e+02,	 3.5129501367068801e+00 
8.0733899999999997e-02,	 0.0000000000000000e+00,	 1.2539588446257011e-02,	 1.8155416513848982e+03,	 2.7522265858305657e+00,	 7.1837635456486737e+02,	 2.5915837584588708e+03,	 5.1433486905715779e+02,	 3.5298865519220737e+00 
8.1354930000000006e-02,	 0.0000000000000000e+00,	 1.2334172132451714e-02,	 1.8182347703358648e+03,	 2.7486891480439706e+00,	 7.1368199906581992e+02,	 2.5324721925455415e+03,	 5.1265160923715416e+02,	 3.5467300116059057e+00 
8.1975960000000000e-02,	 0.0000000000000000e+00,	 1.2133850307776032e-02,	 1.8208894382811727e+03,	 2.7363347732624956e+00,	 7.0905891559846145e+02,	 2.4752033975050281e+03,	 5.1098848630118403e+02,	 3.5634687338437612e+00 