TITLE = "Final State"
VARIABLES = "X", "Y", "rho", "u", "v", "T", "p", "c", "M"
ZONE I=51, J=46, DATAPACKING=POINT
2.2755350000000001e+00,	 7.4007970000000001e-01,	 2.0000764185292608e-02,	 7.8415745070565629e+02,	 1.0728217224158807e+02,	 4.9549444791484490e+02,	 2.8511188367747154e+03,	 4.2715879215358137e+02,	 1.8528523536750527e+00 
2.2830040000000000e+00,	 7.4008059999999998e-01,	 1.9961279794152763e-02,	 7.8490612378194044e+02,	 1.0812822611019277e+02,	 4.9473384585166923e+02,	 2.8411223857715781e+03,	 4.2683081407200109e+02,	 1.8562834152929986e+00 
2.2904730000000000e+00,	 7.4008140000000000e-01,	 1.9913263119789082e-02,	 7.8578154430007896e+02,	 1.0904105738933788e+02,	 4.9387774260632466e+02,	 2.8293835494647055e+03,	 4.2646135333574000e+02,	 1.8602181607053396e+00 
2.2979409999999998e+00,	 7.4008229999999997e-01,	 1.9864773605520157e-02,	 7.8662443045168652e+02,	 1.0993870647523056e+02,	 4.9303452292099792e+02,	 2.8176749276302867e+03,	 4.2609713948393801e+02,	 1.8640580409987353e+00 
2.3054100000000002e+00,	 7.4008320000000005e-01,	 1.9815994989954622e-02,	 7.8743173126920715e+02,	 1.1082094847986011e+02,	 4.9221513195229807e+02,	 2.8060847408968630e+03,	 4.2574291953147531e+02,	 1.8677745961352255e+00 
2.3128790000000001e+00,	 7.4008410000000002e-01,	 1.9767314925694859e-02,	 7.8820953087635439e+02,	 1.1167888690122444e+02,	 4.9140074670498518e+02,	 2.7945599511591322e+03,	 4.2539057127630940e+02,	 1.8714141383721756e+00 
2.3203480000000001e+00,	 7.4008499999999999e-01,	 1.9719151515005189e-02,	 7.8894434682950748e+02,	 1.1250331440961595e+02,	 4.9058206473810765e+02,	 2.7831065163483331e+03,	 4.2503606961501902e+02,	 1.8749595864667001e+00 
2.3278159999999999e+00,	 7.4008589999999996e-01,	 1.9670256373049894e-02,	 7.8962861309117761e+02,	 1.1329422476646553e+02,	 4.8978560029733217e+02,	 2.7716983962112986e+03,	 4.2469090450244926e+02,	 1.8783421253864963e+00 
2.3352849999999998e+00,	 7.4008680000000004e-01,	 1.9619520851204001e-02,	 7.9028544412444251e+02,	 1.1404533050762497e+02,	 4.8901684557920248e+02,	 2.7602101857323260e+03,	 4.2435748172840403e+02,	 1.8816020993661813e+00 
2.3427539999999998e+00,	 7.4008770000000001e-01,	 1.9567857634778182e-02,	 7.9092982611171988e+02,	 1.1474905820587642e+02,	 4.8823995777872301e+02,	 2.7485683222910566e+03,	 4.2402026513211013e+02,	 1.8848402098151018e+00 
2.3502220000000000e+00,	 7.4008870000000004e-01,	 1.9516616639198580e-02,	 7.9151294381255093e+02,	 1.1539907243302129e+02,	 4.8745866950409516e+02,	 2.7369840573026622e+03,	 4.2368086777970063e+02,	 1.8879328896442751e+00 
2.3576910000000000e+00,	 7.4008960000000001e-01,	 1.9464548034563975e-02,	 7.9202325125611719e+02,	 1.1600567064571632e+02,	 4.8673946894560839e+02,	 2.7256546307777230e+03,	 4.2336820127866065e+02,	 1.8907270283458109e+00 
2.3651599999999999e+00,	 7.4009049999999998e-01,	 1.9409903099681693e-02,	 7.9249792812469877e+02,	 1.1657999641387647e+02,	 4.8612668880949070e+02,	 2.7145807786944169e+03,	 4.2310161787542836e+02,	 1.8932254588395072e+00 
2.3726280000000002e+00,	 7.4009139999999995e-01,	 1.9352645455039480e-02,	 7.9295551749861579e+02,	 1.1712006994505677e+02,	 4.8560830728614053e+02,	 2.7036868289679187e+03,	 4.2287597035636736e+02,	 1.8954924513936373e+00 
2.3800970000000001e+00,	 7.4009230000000004e-01,	 1.9293387355495385e-02,	 7.9340069715710592e+02,	 1.1761975019001054e+02,	 4.8514027257649445e+02,	 2.6928102336767552e+03,	 4.2267213493844281e+02,	 1.8976215157513885e+00 
2.3875660000000001e+00,	 7.4009320000000001e-01,	 1.9232724770884668e-02,	 7.9382646148665162e+02,	 1.1807277916722020e+02,	 4.8469323078690837e+02,	 2.6818699159685511e+03,	 4.2247735039184363e+02,	 1.8996507745987037e+00 
2.3950350000000000e+00,	 7.4009409999999998e-01,	 1.9171677710189364e-02,	 7.9423612192906899e+02,	 1.1847488992311992e+02,	 4.8424061327142221e+02,	 2.6708608856552396e+03,	 4.2228004486028931e+02,	 1.9016381854273849e+00 
2.4025029999999998e+00,	 7.4009499999999995e-01,	 1.9111095837308849e-02,	 7.9463808547587041e+02,	 1.1883218180400262e+02,	 4.8378207250644056e+02,	 2.6598999330646679e+03,	 4.2208006320837109e+02,	 1.9036061170354974e+00 
2.4099719999999998e+00,	 7.4009599999999998e-01,	 1.9050893466174737e-02,	 7.9503600501107758e+02,	 1.1914917761475488e+02,	 4.8332877221942289e+02,	 2.6490364557330477e+03,	 4.2188227388942335e+02,	 1.9055426283264882e+00 
2.4174410000000002e+00,	 7.4009689999999995e-01,	 1.8990940474431041e-02,	 7.9543438229092703e+02,	 1.1942830222904598e+02,	 4.8288141948231976e+02,	 2.6382558192231641e+03,	 4.2168698872164606e+02,	 1.9074575566946237e+00 
2.4249090000000000e+00,	 7.4009780000000003e-01,	 1.8931370424663790e-02,	 7.9584115181720017e+02,	 1.1967598020437765e+02,	 4.8244023096801959e+02,	 2.6275773373868565e+03,	 4.2149430583616203e+02,	 1.9093712031699546e+00 
2.4323779999999999e+00,	 7.4009870000000000e-01,	 1.8872104498308208e-02,	 7.9625891202567084e+02,	 1.1989760487443252e+02,	 4.8200246952969439e+02,	 2.6169747567209979e+03,	 4.2130303257861459e+02,	 1.9112968931009011e+00 
2.4398469999999999e+00,	 7.4009959999999997e-01,	 1.8812923580932978e-02,	 7.9668614840030523e+02,	 1.2009741393774887e+02,	 4.8156359417890451e+02,	 2.6063928525957535e+03,	 4.2111118540356000e+02,	 1.9132415409223702e+00 
2.4473159999999998e+00,	 7.4010060000000000e-01,	 1.8753763994413371e-02,	 7.9712318241664411e+02,	 1.2028018155862421e+02,	 4.8112076728040313e+02,	 2.5958075256381121e+03,	 4.2091752224889012e+02,	 1.9152132521344587e+00 
2.4547840000000001e+00,	 7.4010149999999997e-01,	 1.8694698092843229e-02,	 7.9757287557628229e+02,	 1.2045093219900629e+02,	 4.8067306694357944e+02,	 2.5852240168289472e+03,	 4.2072163715265066e+02,	 1.9172224292817732e+00 
2.4622530000000000e+00,	 7.4010240000000005e-01,	 1.8635877069860380e-02,	 7.9803985077883760e+02,	 1.2061481794064809e+02,	 4.8022105455738381e+02,	 2.5746664366013338e+03,	 4.2052377281064815e+02,	 1.9192807370742506e+00 
2.4697220000000000e+00,	 7.4010339999999997e-01,	 1.8577543017776192e-02,	 7.9853049094295852e+02,	 1.2077666891197671e+02,	 4.7976655277968462e+02,	 2.5641780646078200e+03,	 4.2032472484614550e+02,	 1.9214013627341313e+00 
2.4771899999999998e+00,	 7.4010430000000005e-01,	 1.8519946585392248e-02,	 7.9905144850782949e+02,	 1.2094048898561780e+02,	 4.7931170887788920e+02,	 2.5538048389596634e+03,	 4.2012543263732812e+02,	 1.9235971897157886e+00 
2.4846590000000002e+00,	 7.4010520000000002e-01,	 1.8463099401575478e-02,	 7.9960410279224402e+02,	 1.2110829670607795e+02,	 4.7885703334385391e+02,	 2.5435508007225963e+03,	 4.1992611967039784e+02,	 1.9258712694717002e+00 
2.4921280000000001e+00,	 7.4010620000000005e-01,	 1.8406698552508600e-02,	 8.0018334747536824e+02,	 1.2128011735685041e+02,	 4.7840147150473661e+02,	 2.5333683715925526e+03,	 4.1972632325655565e+02,	 1.9282138193442884e+00 
2.4995970000000001e+00,	 7.4010710000000002e-01,	 1.8350228710761647e-02,	 8.0078723912213025e+02,	 1.2145998141250693e+02,	 4.7794297731244575e+02,	 2.5231757592741924e+03,	 4.1952514472379619e+02,	 1.9306259414242706e+00 
2.5070649999999999e+00,	 7.4010810000000005e-01,	 1.8292337866121396e-02,	 8.0142695767149689e+02,	 1.2167629098774034e+02,	 4.7746937464461234e+02,	 2.5127233327544145e+03,	 4.1931723553527991e+02,	 1.9331689467336612e+00 
2.5145339999999998e+00,	 7.4010900000000002e-01,	 1.8228246794356893e-02,	 8.0213195648872238e+02,	 1.2199564365391595e+02,	 4.7696077930983438e+02,	 2.5012523269202702e+03,	 4.1909384988721746e+02,	 1.9359769499557467e+00 
2.5220030000000002e+00,	 7.4010989999999999e-01,	 1.8155312478285647e-02,	 8.0294924338423425e+02,	 1.2266277882097998e+02,	 4.7618547762605112e+02,	 2.4871948630194429e+03,	 4.1875309197755701e+02,	 1.9397218362272972e+00 
2.5294720000000002e+00,	 7.4011090000000002e-01,	 1.8091469181815822e-02,	 8.0355889192833911e+02,	 1.2343491222895079e+02,	 4.7538256677951972e+02,	 2.4742696353260349e+03,	 4.1839990686033786e+02,	 1.9430789529866144e+00 
2.5369400000000000e+00,	 7.4011179999999999e-01,	 1.8062824059038377e-02,	 8.0339540453176210e+02,	 1.2365869005926122e+02,	 4.7495757702356269e+02,	 2.4681435182247787e+03,	 4.1821284127768496e+02,	 1.9436430304657677e+00 
2.5444089999999999e+00,	 7.4011280000000002e-01,	 1.8292010532656076e-02,	 8.0023346072899574e+02,	 1.1878961785840677e+02,	 4.7679153336773925e+02,	 2.5091112349232908e+03,	 4.1901948714096824e+02,	 1.9307030535567860e+00 
2.5518779999999999e+00,	 7.4011380000000004e-01,	 1.9215599472942761e-02,	 7.9029632733197673e+02,	 9.9711559328309818e+01,	 4.8550196831040063e+02,	 2.6839527761913951e+03,	 4.2282966692730491e+02,	 1.8838833909309078e+00 
2.5593460000000001e+00,	 7.4011470000000001e-01,	 2.0904988439411333e-02,	 7.7283848357975501e+02,	 6.5159686955652418e+01,	 5.0292168473548463e+02,	 3.0246855455622958e+03,	 4.3034834231684886e+02,	 1.8022156011927850e+00 
2.5668150000000001e+00,	 7.4011570000000004e-01,	 2.2678808787964119e-02,	 7.5423056980509477e+02,	 2.8832880832514910e+01,	 5.2142633234576442e+02,	 3.4020691466263597e+03,	 4.3819400671900945e+02,	 1.7224824430937873e+00 
2.5742840000000000e+00,	 7.4011660000000001e-01,	 2.3913571935626654e-02,	 7.4165223005287385e+02,	 3.6251926818767202e+00,	 5.3344545649068345e+02,	 3.6699860109670826e+03,	 4.4321552427903254e+02,	 1.6733644228029996e+00 
2.5817530000000000e+00,	 7.4011760000000004e-01,	 2.4599732700378324e-02,	 7.3568253229691550e+02,	 -8.6145719140476729e+00,	 5.3964945927843223e+02,	 3.8191970992943311e+03,	 4.4578538558869792e+02,	 1.6504196662506574e+00 
2.5892210000000002e+00,	 7.4011859999999996e-01,	 2.4914245572639916e-02,	 7.3391796971968188e+02,	 -1.3597062499191626e+01,	 5.4246497533345178e+02,	 3.8882070303654355e+03,	 4.4694677198926104e+02,	 1.6423519737065349e+00 
2.5966900000000002e+00,	 7.4011950000000004e-01,	 2.5045290887786599e-02,	 7.3374102183967943e+02,	 -1.5521855603419386e+01,	 5.4364451946798624e+02,	 3.9171574815799408e+03,	 4.4743243207248446e+02,	 1.6402592406983811e+00 
2.6041590000000001e+00,	 7.4012049999999996e-01,	 2.5098502157911352e-02,	 7.3378599386710312e+02,	 -1.6297489277029584e+01,	 5.4404975478476479e+02,	 3.9284059535612200e+03,	 4.4759916018349242e+02,	 1.6397862677116588e+00 
2.6116269999999999e+00,	 7.4012149999999999e-01,	 2.5107793033036292e-02,	 7.3402494583978319e+02,	 -1.6678630051965094e+01,	 5.4404574739112411e+02,	 3.9298312102453951e+03,	 4.4759751170436402e+02,	 1.6403451525403765e+00 
2.6190959999999999e+00,	 7.4012250000000002e-01,	 2.5090787508982734e-02,	 7.3441546605600536e+02,	 -1.6921677729309842e+01,	 5.4389454631051899e+02,	 3.9260780949513819e+03,	 4.4753530927870941e+02,	 1.6414579392358672e+00 
2.6265649999999998e+00,	 7.4012339999999999e-01,	 2.5063181425560938e-02,	 7.3481249299625824e+02,	 -1.7020730997754207e+01,	 5.4371180117786662e+02,	 3.9204407501501159e+03,	 4.4746011844348925e+02,	 1.6426259346470435e+00 
2.6340340000000002e+00,	 7.4012440000000002e-01,	 2.5024925076002895e-02,	 7.3523028741699909e+02,	 -1.7045084402493103e+01,	 5.4348645105876358e+02,	 3.9128341939268716e+03,	 4.4736738030434555e+02,	 1.6439013529795343e+00 
2.6415020000000000e+00,	 7.4012540000000004e-01,	 2.4980917242108228e-02,	 7.3565020615791855e+02,	 -1.6984835513770733e+01,	 5.4323997955259415e+02,	 3.9041818872948602e+03,	 4.4726592808251132e+02,	 1.6452097252026545e+00 
2.6489710000000000e+00,	 7.4012639999999996e-01,	 2.4940424964945071e-02,	 7.3597804403423913e+02,	 -1.6869151890072061e+01,	 5.4300928440771941e+02,	 3.8961982052108892e+03,	 4.4717094884796654e+02,	 1.6462861622816025e+00 
2.2755350000000001e+00,	 7.4584609999999996e-01,	 1.9908702577994028e-02,	 7.8347738395996271e+02,	 1.0838615452051089e+02,	 4.9626792792220215e+02,	 2.8424255953655361e+03,	 4.2749206525816089e+02,	 1.8501838532231847e+00 
2.2830029999999999e+00,	 7.4584709999999999e-01,	 1.9872864818939431e-02,	 7.8430967995462800e+02,	 1.0925882538227361e+02,	 4.9542606850914171e+02,	 2.8324957737122477e+03,	 4.2712931667483087e+02,	 1.8539661683754756e+00 
2.2904719999999998e+00,	 7.4584799999999996e-01,	 1.9829507957262550e-02,	 7.8529120413773421e+02,	 1.1021279118173641e+02,	 4.9446200761208968e+02,	 2.8208162915517651e+03,	 4.2671353396182838e+02,	 1.8583602612471342e+00 
2.2979409999999998e+00,	 7.4584899999999998e-01,	 1.9785966386985827e-02,	 7.8623675035793269e+02,	 1.1115619659899122e+02,	 4.9350326998242502e+02,	 2.8091649371731191e+03,	 4.2629964490911260e+02,	 1.8626695508955806e+00 
2.3054100000000002e+00,	 7.4585000000000001e-01,	 1.9742105081060456e-02,	 7.8714378482665484e+02,	 1.1208455205391883e+02,	 4.9256532918075101e+02,	 2.7976104143604766e+03,	 4.2589434466162731e+02,	 1.8668569622147886e+00 
2.3128780000000000e+00,	 7.4585089999999998e-01,	 1.9697622648943904e-02,	 7.8801443194513718e+02,	 1.1298872868426859e+02,	 4.9165335879888903e+02,	 2.7861388829016141e+03,	 4.2549989650321885e+02,	 1.8709137647833833e+00 
2.3203469999999999e+00,	 7.4585190000000001e-01,	 1.9652919995315953e-02,	 7.8883798718191861e+02,	 1.1385800181623836e+02,	 4.9075677295541630e+02,	 2.7747465858408623e+03,	 4.2511174572440075e+02,	 1.8748307101066042e+00 
2.3278159999999999e+00,	 7.4585290000000004e-01,	 1.9607825504243399e-02,	 7.8960572060206437e+02,	 1.1468851892061461e+02,	 4.8987666925878835e+02,	 2.7634151051645290e+03,	 4.2473038541198429e+02,	 1.8785832258810304e+00 
2.3352840000000001e+00,	 7.4585389999999996e-01,	 1.9561565053678523e-02,	 7.9031337322265699e+02,	 1.1547288602396529e+02,	 4.8902285236148612e+02,	 2.7520903669876366e+03,	 4.2436008799360593e+02,	 1.8821390926065702e+00 
2.3427530000000001e+00,	 7.4585480000000004e-01,	 1.9513655114768588e-02,	 7.9096566704782754e+02,	 1.1620363524924832e+02,	 4.8822600312392274e+02,	 2.7408765098959470e+03,	 4.2401420551059181e+02,	 1.8854463759482440e+00 
2.3502220000000000e+00,	 7.4585579999999996e-01,	 1.9464192022170201e-02,	 7.9159745739259063e+02,	 1.1688507248190427e+02,	 4.8748134255388152e+02,	 2.7297590622816106e+03,	 4.2369072094911814e+02,	 1.8885954997305765e+00 
2.3576910000000000e+00,	 7.4585679999999999e-01,	 1.9414284660413776e-02,	 7.9221724382084949e+02,	 1.1752479323155683e+02,	 4.8673440545472772e+02,	 2.7185878813460567e+03,	 4.2336599914924813e+02,	 1.8917134553177442e+00 
2.3651589999999998e+00,	 7.4585780000000002e-01,	 1.9364476063164146e-02,	 7.9279261903464703e+02,	 1.1812378042183622e+02,	 4.8598497064206452e+02,	 2.7074380434418822e+03,	 4.2303994099367452e+02,	 1.8947250232308255e+00 
2.3726280000000002e+00,	 7.4585880000000004e-01,	 1.9313290768162111e-02,	 7.9331620949044327e+02,	 1.1868217839927570e+02,	 4.8528992424963451e+02,	 2.6964196967662092e+03,	 4.2273732094601326e+02,	 1.8975014218622825e+00 
2.3800970000000001e+00,	 7.4585979999999996e-01,	 1.9259325091881791e-02,	 7.9380605968815530e+02,	 1.1919618525689185e+02,	 4.8466196595441818e+02,	 2.6854059144207740e+03,	 4.2246372435400855e+02,	 1.9000573278792541e+00 
2.3875660000000001e+00,	 7.4586070000000004e-01,	 1.9203040252654353e-02,	 7.9426263195346826e+02,	 1.1965775565208273e+02,	 4.8408512046062827e+02,	 2.6743710567584744e+03,	 4.2221224098216669e+02,	 1.9024210142427387e+00 
2.3950339999999999e+00,	 7.4586169999999996e-01,	 1.9145379148309025e-02,	 7.9469582580402414e+02,	 1.2006379694187439e+02,	 4.8355113428569007e+02,	 2.6633995082348051e+03,	 4.2197930910882218e+02,	 1.9046297808110120e+00 
2.4025029999999998e+00,	 7.4586269999999999e-01,	 1.9087086824900491e-02,	 7.9511942768784934e+02,	 1.2042123095218257e+02,	 4.8304510405685363e+02,	 2.6525114737764602e+03,	 4.2175845327197260e+02,	 1.9067469766801814e+00 
2.4099719999999998e+00,	 7.4586370000000002e-01,	 1.9028537359167839e-02,	 7.9553696132819232e+02,	 1.2073459352493481e+02,	 4.8255795939064240e+02,	 2.6417081013856982e+03,	 4.2154573068600558e+02,	 1.9087998877685941e+00 
2.4174400000000000e+00,	 7.4586470000000005e-01,	 1.8969977661706734e-02,	 7.9595382946751977e+02,	 1.2100846458868176e+02,	 4.8208474941285624e+02,	 2.6309957702786664e+03,	 4.2133899015897771e+02,	 1.9108122707680062e+00 
2.4249090000000000e+00,	 7.4586569999999996e-01,	 1.8911600876705709e-02,	 7.9637789560189867e+02,	 1.2124973461562344e+02,	 4.8162258180466893e+02,	 2.6203848061389263e+03,	 4.2113697596234749e+02,	 1.9128105337182517e+00 
2.4323779999999999e+00,	 7.4586669999999999e-01,	 1.8853330816910662e-02,	 7.9681135433127906e+02,	 1.2146365405490866e+02,	 4.8116690599396145e+02,	 2.6098393508474537e+03,	 4.2093770442427393e+02,	 1.9148105944851674e+00 
2.4398469999999999e+00,	 7.4586770000000002e-01,	 1.8795016697581574e-02,	 7.9725301096568751e+02,	 1.2165488604856647e+02,	 4.8071290443409168e+02,	 2.5993121330674207e+03,	 4.2073907119267074e+02,	 1.9168208314636457e+00 
2.4473150000000001e+00,	 7.4586870000000005e-01,	 1.8736670177547730e-02,	 7.9770363743663279e+02,	 1.2182794533659550e+02,	 4.8025797137645014e+02,	 2.5887906506022164e+03,	 4.2053993630612587e+02,	 1.9188498609076445e+00 
2.4547840000000001e+00,	 7.4586969999999997e-01,	 1.8678383872499173e-02,	 7.9816682114446155e+02,	 1.2198822460430210e+02,	 4.7980097266413742e+02,	 2.5782816528128756e+03,	 4.2033980225087646e+02,	 1.9209103474896008e+00 
2.4622530000000000e+00,	 7.4587070000000000e-01,	 1.8620304480805702e-02,	 7.9864754106280475e+02,	 1.2214190082031337e+02,	 4.7934189481626049e+02,	 2.5678053778679464e+03,	 4.2013866169111537e+02,	 1.9230163102168689e+00 
2.4697209999999998e+00,	 7.4587170000000003e-01,	 1.8562642596582385e-02,	 7.9915187527329726e+02,	 1.2229460483217973e+02,	 4.7888178961855300e+02,	 2.5573964786375095e+03,	 4.1993697434234491e+02,	 1.9251820511289039e+00 
2.4771899999999998e+00,	 7.4587270000000006e-01,	 1.8505613110176691e-02,	 7.9968540695412639e+02,	 1.2244936853873097e+02,	 4.7842216859172237e+02,	 2.5470924648848104e+03,	 4.1973540247012880e+02,	 1.9274188624590136e+00 
2.4846590000000002e+00,	 7.4587369999999997e-01,	 1.8449197439087517e-02,	 8.0024924736469916e+02,	 1.2260661230866937e+02,	 4.7796309941191925e+02,	 2.5368908658975738e+03,	 4.1953397594241858e+02,	 1.9297294758524925e+00 
2.4921280000000001e+00,	 7.4587479999999995e-01,	 1.8392943611783424e-02,	 8.0084208388030345e+02,	 1.2277001850064720e+02,	 4.7750165857622727e+02,	 2.5267138522463724e+03,	 4.1933141129277885e+02,	 1.9321181441260233e+00 
2.4995959999999999e+00,	 7.4587579999999998e-01,	 1.8335182356244189e-02,	 8.0147485533824943e+02,	 1.2297362009823286e+02,	 4.7702128003505578e+02,	 2.5162449981980867e+03,	 4.1912042930311748e+02,	 1.9346567115152482e+00 
2.5070649999999999e+00,	 7.4587680000000001e-01,	 1.8272807406857029e-02,	 8.0216520581918087e+02,	 1.2329824729387946e+02,	 4.7648464422631258e+02,	 2.5048638402454467e+03,	 4.1888461349010657e+02,	 1.9374924548720327e+00 
2.5145339999999998e+00,	 7.4587780000000004e-01,	 1.8204127114797339e-02,	 8.0292675016202884e+02,	 1.2385593421759746e+02,	 4.7579670119440607e+02,	 2.4918461422837986e+03,	 4.1858211387826111e+02,	 1.9408935494245629e+00 
2.5220020000000001e+00,	 7.4587879999999995e-01,	 1.8140006314006859e-02,	 8.0351945917939747e+02,	 1.2444336768802647e+02,	 4.7516856363605814e+02,	 2.4797909578219801e+03,	 4.1830572063985142e+02,	 1.9437907941122574e+00 
2.5294710000000000e+00,	 7.4587990000000004e-01,	 1.8138225580435062e-02,	 8.0320094469305991e+02,	 1.2377158711545351e+02,	 4.7519632070769535e+02,	 2.4796923697193242e+03,	 4.1831793816978040e+02,	 1.9427363512529925e+00 
2.5369400000000000e+00,	 7.4588089999999996e-01,	 1.8431150218426253e-02,	 7.9960119217132080e+02,	 1.1662419559595634e+02,	 4.7842216866406375e+02,	 2.5368434738212195e+03,	 4.1973540250186255e+02,	 1.9251686229160045e+00 
2.5444089999999999e+00,	 7.4588189999999999e-01,	 1.9389320338821046e-02,	 7.8902396985384291e+02,	 9.4908692539536887e+01,	 4.8940261128804309e+02,	 2.7299758525765201e+03,	 4.2452482800119282e+02,	 1.8720025802945937e+00 
2.5518770000000002e+00,	 7.4588290000000002e-01,	 2.1075280826187176e-02,	 7.7144715080301739e+02,	 6.0008106725593251e+01,	 5.0736563143881790e+02,	 3.0762693101537443e+03,	 4.3224549549443708e+02,	 1.7901344183770278e+00 
2.5593460000000001e+00,	 7.4588399999999999e-01,	 2.2912887346366449e-02,	 7.5359018725223359e+02,	 2.5835179946811575e+01,	 5.2451260968040572e+02,	 3.4575278799380944e+03,	 4.3948890964265195e+02,	 1.7157040639406829e+00 
2.5668150000000001e+00,	 7.4588500000000002e-01,	 2.4218185748384507e-02,	 7.4176263924384773e+02,	 3.6173905908637392e+00,	 5.3560566675141263e+02,	 3.7317857889369784e+03,	 4.4411202772842978e+02,	 1.6702350160146855e+00 
2.5742840000000000e+00,	 7.4588600000000005e-01,	 2.4832579795422634e-02,	 7.3635356524103656e+02,	 -7.7260846878637741e+00,	 5.4103595286305813e+02,	 3.8652527952144728e+03,	 4.4635768495491226e+02,	 1.6497847384892192e+00 
2.5817519999999998e+00,	 7.4588710000000003e-01,	 2.5044295221963057e-02,	 7.3454060730300114e+02,	 -1.2808993926945943e+01,	 5.4302875770396940e+02,	 3.9125651442970066e+03,	 4.4717896695607499e+02,	 1.6428596498737882e+00 
2.5892210000000002e+00,	 7.4588810000000005e-01,	 2.5110113903350127e-02,	 7.3401197481994200e+02,	 -1.4913157550814979e+01,	 5.4371059721505844e+02,	 3.9277733393241565e+03,	 4.4745962302878809e+02,	 1.6407367706843643e+00 
2.5966900000000002e+00,	 7.4588920000000003e-01,	 2.5132394758963499e-02,	 7.3388874829503811e+02,	 -1.5801851104184355e+01,	 5.4394098750347462e+02,	 3.9329243741660421e+03,	 4.4755441558354670e+02,	 1.6401555278029949e+00 
2.6041580000000000e+00,	 7.4589019999999995e-01,	 2.5135189319742905e-02,	 7.3405901510675778e+02,	 -1.6205162884792450e+01,	 5.4396764877436567e+02,	 3.9335544838285564e+03,	 4.4756538389037945e+02,	 1.6405153150221561e+00 
2.6116269999999999e+00,	 7.4589130000000003e-01,	 2.5124916091502823e-02,	 7.3439616560521881e+02,	 -1.6329384504271637e+01,	 5.4392294382638659e+02,	 3.9316236259854027e+03,	 4.4754699235702827e+02,	 1.6413420235248266e+00 
2.6190959999999999e+00,	 7.4589229999999995e-01,	 2.5102352354045454e-02,	 7.3480803882018392e+02,	 -1.6392847002017671e+01,	 5.4378249581114801e+02,	 3.9270784985046248e+03,	 4.4748920738429422e+02,	 1.6424773114507554e+00 
2.6265649999999998e+00,	 7.4589340000000004e-01,	 2.5071500326435778e-02,	 7.3524639750036408e+02,	 -1.6410739526826102e+01,	 5.4359080236611601e+02,	 3.9208692588140420e+03,	 4.4741032629709565e+02,	 1.6437473070448472e+00 
2.6340330000000001e+00,	 7.4589439999999996e-01,	 2.5032968079682430e-02,	 7.3570182142349495e+02,	 -1.6368459350070502e+01,	 5.4335599008677877e+02,	 3.9131522212231830e+03,	 4.4731368302627646e+02,	 1.6451182153566895e+00 
2.6415020000000000e+00,	 7.4589550000000004e-01,	 2.4989231671015352e-02,	 7.3615962474388505e+02,	 -1.6271843132202207e+01,	 5.4308853775129467e+02,	 3.9043925697740060e+03,	 4.4720358042612725e+02,	 1.6465419081823667e+00 
2.6489710000000000e+00,	 7.4589660000000002e-01,	 2.4949466159090973e-02,	 7.3650828521853225e+02,	 -1.6140697510391551e+01,	 5.4284467872745495e+02,	 3.8964291161575720e+03,	 4.4710316689707429e+02,	 1.6476848779474587e+00 
2.2755339999999999e+00,	 7.5161230000000001e-01,	 1.9764059808128530e-02,	 7.8193727511758402e+02,	 1.0953490260603294e+02,	 4.9804572287790063e+02,	 2.8318830347261696e+03,	 4.2825708932526612e+02,	 1.8436867180417766e+00 
2.2830029999999999e+00,	 7.5161339999999999e-01,	 1.9734484227766406e-02,	 7.8291480889969876e+02,	 1.1044489166623755e+02,	 4.9706218053627788e+02,	 2.8220612697484357e+03,	 4.2783401859310158e+02,	 1.8480685627381139e+00 
2.2904719999999998e+00,	 7.5161440000000002e-01,	 1.9697914665951159e-02,	 7.8406233841761878e+02,	 1.1144655072915566e+02,	 4.9593147990480702e+02,	 2.8104241309002077e+03,	 4.2734713019848340e+02,	 1.8531614628345356e+00 
2.2979400000000001e+00,	 7.5161549999999999e-01,	 1.9661412505020428e-02,	 7.8517236104186486e+02,	 1.1244419097901314e+02,	 4.9480158037348269e+02,	 2.7988249098221936e+03,	 4.2686003199577129e+02,	 1.8581806191420653e+00 
2.3054090000000000e+00,	 7.5161650000000002e-01,	 1.9624889633580497e-02,	 7.8624065746425651e+02,	 1.1342829128567928e+02,	 4.9368479152687166e+02,	 2.7873205007299334e+03,	 4.2637803897476078e+02,	 1.8630895788761965e+00 
2.3128780000000000e+00,	 7.5161760000000000e-01,	 1.9587974523438616e-02,	 7.8726269499197304e+02,	 1.1438671007538275e+02,	 4.9259250593142326e+02,	 2.7759220610645825e+03,	 4.2590609362575935e+02,	 1.8678514205907932e+00 
2.3203469999999999e+00,	 7.5161860000000003e-01,	 1.9550196288734275e-02,	 7.8823058562749259e+02,	 1.1530804251527314e+02,	 4.9153127753671851e+02,	 2.7645994551261638e+03,	 4.2544706579586295e+02,	 1.8724303191262766e+00 
2.3278150000000002e+00,	 7.5161970000000000e-01,	 1.9511364179613879e-02,	 7.8913686832276574e+02,	 1.1618715273854764e+02,	 4.9050310624340483e+02,	 2.7533367693927348e+03,	 4.2500186375922107e+02,	 1.8768019198521657e+00 
2.3352840000000001e+00,	 7.5162070000000003e-01,	 1.9471341010918183e-02,	 7.8998466531799113e+02,	 1.1702155712161837e+02,	 4.8950737604850565e+02,	 2.7421110608957501e+03,	 4.2457026386624420e+02,	 1.8809723306770900e+00 
2.3427530000000001e+00,	 7.5162180000000001e-01,	 1.9430086639356598e-02,	 7.9077404147013601e+02,	 1.1780804045734631e+02,	 4.8854991009509200e+02,	 2.7309491412649827e+03,	 4.2415483544880556e+02,	 1.8849279252560001e+00 
2.3502220000000000e+00,	 7.5162280000000004e-01,	 1.9386984640357749e-02,	 7.9151172110670586e+02,	 1.1854291102978817e+02,	 4.8764971694874822e+02,	 2.7198702088642626e+03,	 4.2376388529773408e+02,	 1.8886447671833406e+00 
2.3576899999999998e+00,	 7.5162390000000001e-01,	 1.9341760179601965e-02,	 7.9220430451801519e+02,	 1.1922068088562602e+02,	 4.8682684012698337e+02,	 2.7089466098561329e+03,	 4.2340619749886611e+02,	 1.8920955409417655e+00 
2.3651589999999998e+00,	 7.5162490000000004e-01,	 1.9295165166264755e-02,	 7.9286324249261349e+02,	 1.1984332514723395e+02,	 4.8604626674422616e+02,	 2.6980876228147022e+03,	 4.2306661865184867e+02,	 1.8953738498808836e+00 
2.3726280000000002e+00,	 7.5162600000000002e-01,	 1.9248149690122542e-02,	 7.9348574170782354e+02,	 1.2041947283619990e+02,	 4.8524737494521207e+02,	 2.6870894237617267e+03,	 4.2271878813464775e+02,	 1.8985935462540229e+00 
2.3800960000000000e+00,	 7.5162700000000005e-01,	 1.9200625357928870e-02,	 7.9405962202031503e+02,	 1.2094428464635811e+02,	 4.8443219026423139e+02,	 2.6759519156381225e+03,	 4.2236356856635774e+02,	 1.9017203826972786e+00 
2.3875649999999999e+00,	 7.5162810000000002e-01,	 1.9151712368790375e-02,	 7.9458360067185049e+02,	 1.2141024251290861e+02,	 4.8366469830614682e+02,	 2.6649062684317419e+03,	 4.2202885800879710e+02,	 1.9046225127135761e+00 
2.3950339999999999e+00,	 7.5162920000000000e-01,	 1.9100435318380727e-02,	 7.9507392673501477e+02,	 1.2182373440419570e+02,	 4.8298890005711030e+02,	 2.6540576543473476e+03,	 4.2173391601720454e+02,	 1.9072520828755253e+00 
2.4025029999999998e+00,	 7.5163020000000003e-01,	 1.9046820777158500e-02,	 7.9554547146642312e+02,	 1.2218800373663026e+02,	 4.8238482285919497e+02,	 2.6432976387457775e+03,	 4.2147010089691594e+02,	 1.9096828349961255e+00 
2.4099710000000001e+00,	 7.5163130000000000e-01,	 1.8991705636008056e-02,	 7.9600417107474618e+02,	 1.2250484171505830e+02,	 4.8182902054175031e+02,	 2.6326120312542985e+03,	 4.2122722263529585e+02,	 1.9119745662589283e+00 
2.4174400000000000e+00,	 7.5163239999999998e-01,	 1.8935935972842894e-02,	 7.9646087071846023e+02,	 1.2277788224891270e+02,	 4.8130262713124364e+02,	 2.6220136373080732e+03,	 4.2099706648263538e+02,	 1.9141907215955869e+00 
2.4249090000000000e+00,	 7.5163340000000001e-01,	 1.8879853299546414e-02,	 7.9692241256084026e+02,	 1.2301569736256110e+02,	 4.8079311774992823e+02,	 2.6114805479652132e+03,	 4.2077417267210546e+02,	 1.9163749433140711e+00 
2.4323769999999998e+00,	 7.5163449999999998e-01,	 1.8823475962112271e-02,	 7.9738941760001023e+02,	 1.2322469959600232e+02,	 4.8029736936174191e+02,	 2.6009977061964496e+03,	 4.2055718545911105e+02,	 1.9185369881579499e+00 
2.4398460000000002e+00,	 7.5163559999999996e-01,	 1.8766835577779830e-02,	 7.9786101238474680e+02,	 1.2340838326976746e+02,	 4.7981102221696324e+02,	 2.5905453942265572e+03,	 4.2034420428960607e+02,	 1.9206845968050994e+00 
2.4473150000000001e+00,	 7.5163670000000005e-01,	 1.8710002075939789e-02,	 7.9833933560360151e+02,	 1.2357174714024264e+02,	 4.7933007007597826e+02,	 2.5801113416762137e+03,	 4.2013347952234415e+02,	 1.9228325189748325e+00 
2.4547840000000001e+00,	 7.5163780000000002e-01,	 1.8653100311525565e-02,	 7.9882961434280082e+02,	 1.2372149287573255e+02,	 4.7885210227238343e+02,	 2.5696996279622554e+03,	 4.1992395755217149e+02,	 1.9250002774383592e+00 
2.4622519999999999e+00,	 7.5163880000000005e-01,	 1.8596304355299482e-02,	 7.9933756993918121e+02,	 1.2386492393235264e+02,	 4.7837629705698578e+02,	 2.5593296949493570e+03,	 4.1971527968955854e+02,	 1.9272056556314556e+00 
2.4697209999999998e+00,	 7.5163990000000003e-01,	 1.8539785137931513e-02,	 7.9986817684667335e+02,	 1.2400813279542739e+02,	 4.7790255535828015e+02,	 2.5490243659166576e+03,	 4.1950740371122026e+02,	 1.9294628283046549e+00 
2.4771899999999998e+00,	 7.5164100000000000e-01,	 1.8483621135995259e-02,	 8.0042518178221576e+02,	 1.2415365066494874e+02,	 4.7743057178725189e+02,	 2.5387925821604204e+03,	 4.1930019670689887e+02,	 1.9317822252279599e+00 
2.4846590000000002e+00,	 7.5164209999999998e-01,	 1.8427527630542222e-02,	 8.0101297171902434e+02,	 1.2430500657280358e+02,	 4.7695739563896115e+02,	 2.5285794019916793e+03,	 4.1909236330988284e+02,	 1.9341815402087030e+00 
2.4921270000000000e+00,	 7.5164319999999996e-01,	 1.8369645332363554e-02,	 8.0165147397248893e+02,	 1.2450054957433420e+02,	 4.7646304316917463e+02,	 2.5180243704542404e+03,	 4.1887511848000275e+02,	 1.9367625791543983e+00 
2.4995959999999999e+00,	 7.5164430000000004e-01,	 1.8303793605600673e-02,	 8.0237425176671707e+02,	 1.2488497011220710e+02,	 4.7588288971883435e+02,	 2.5059427071563282e+03,	 4.1862002433561344e+02,	 1.9397899363697522e+00 