TITLE = "Final State"
VARIABLES = "X", "Y", "rho", "u", "v", "T", "p", "c", "M"
ZONE I=76, J=20, DATAPACKING=POINT
1.8594500000000000e-01,	 3.0387082499999996e-01,	 1.1586407740522199e-02,	 1.7360000000000000e+03,	 -1.1584322612101078e-13,	 2.9999999999999989e+02,	 9.9999999999999966e+02,	 3.4760788074254759e+02,	 4.9941330337264462e+00 
1.9044300000000000e-01,	 3.0386317499999999e-01,	 1.1586407740522199e-02,	 1.7360000000000000e+03,	 -9.1841234442555507e-14,	 2.9999999999999955e+02,	 9.9999999999999852e+02,	 3.4760788074254742e+02,	 4.9941330337264489e+00 
1.9494100000000000e-01,	 3.0385549999999995e-01,	 1.1586407740522199e-02,	 1.7360000000000000e+03,	 -9.1113860058624004e-14,	 3.0000000000000023e+02,	 1.0000000000000008e+03,	 3.4760788074254782e+02,	 4.9941330337264436e+00 
1.9943900000000001e-01,	 3.0384782499999996e-01,	 1.1586407740522199e-02,	 1.7360000000000000e+03,	 -9.6555301380842861e-14,	 3.0000000000000000e+02,	 1.0000000000000000e+03,	 3.4760788074254771e+02,	 4.9941330337264445e+00 
2.0393700000000001e-01,	 3.0384017499999999e-01,	 1.1586407740522199e-02,	 1.7360000000000000e+03,	 -4.1718817755784166e-14,	 3.0000000000000000e+02,	 1.0000000000000000e+03,	 3.4760788074254771e+02,	 4.9941330337264445e+00 
2.0843500000000001e-01,	 3.0383249999999995e-01,	 1.1586407740522199e-02,	 1.7360000000000000e+03,	 -3.9067524747268001e-14,	 3.0000000000000034e+02,	 1.0000000000000011e+03,	 3.4760788074254788e+02,	 4.9941330337264427e+00 
2.1293300000000001e-01,	 3.0382482499999997e-01,	 1.1586407740522199e-02,	 1.7360000000000000e+03,	 -1.0519934314998855e-13,	 3.0000000000000000e+02,	 1.0000000000000000e+03,	 3.4760788074254771e+02,	 4.9941330337264445e+00 
2.1743099999999999e-01,	 3.0381717499999999e-01,	 1.1586407740522199e-02,	 1.7360000000000000e+03,	 -7.9955016245440662e-14,	 3.0000000000000000e+02,	 1.0000000000000000e+03,	 3.4760788074254771e+02,	 4.9941330337264445e+00 
2.2192899999999999e-01,	 3.0380949999999995e-01,	 1.1586407740522199e-02,	 1.7360000000000000e+03,	 -7.3420654113630024e-14,	 3.0000000000000000e+02,	 1.0000000000000000e+03,	 3.4760788074254771e+02,	 4.9941330337264445e+00 
2.2642699999999999e-01,	 3.0380182499999997e-01,	 1.1586407740522199e-02,	 1.7360000000000000e+03,	 -9.9667405510943088e-14,	 3.0000000000000006e+02,	 1.0000000000000002e+03,	 3.4760788074254771e+02,	 4.9941330337264445e+00 
2.3092499999999999e-01,	 3.0379417500000000e-01,	 1.1586407740522199e-02,	 1.7360000000000000e+03,	 -1.1630647527532401e-13,	 3.0000000000000000e+02,	 1.0000000000000000e+03,	 3.4760788074254771e+02,	 4.9941330337264445e+00 
2.3542299999999999e-01,	 3.0378649999999996e-01,	 1.1586407740522199e-02,	 1.7360000000000000e+03,	 -9.2410274584930638e-14,	 3.0000000000000000e+02,	 1.0000000000000000e+03,	 3.4760788074254771e+02,	 4.9941330337264445e+00 
2.3992100000000000e-01,	 3.0377882499999997e-01,	 1.1586407740522199e-02,	 1.7360000000000000e+03,	 -4.6702143080930614e-14,	 3.0000000000000000e+02,	 1.0000000000000000e+03,	 3.4760788074254771e+02,	 4.9941330337264445e+00 
2.4441900000000000e-01,	 3.0377117500000000e-01,	 1.1586407740522199e-02,	 1.7360000000000000e+03,	 -4.9255184461488071e-14,	 2.9999999999999983e+02,	 9.9999999999999943e+02,	 3.4760788074254759e+02,	 4.9941330337264462e+00 
2.4891700000000000e-01,	 3.0376349999999996e-01,	 1.1586407740522199e-02,	 1.7360000000000000e+03,	 -4.4763796530482416e-14,	 3.0000000000000000e+02,	 1.0000000000000000e+03,	 3.4760788074254771e+02,	 4.9941330337264445e+00 
2.5341500000000000e-01,	 3.0375582499999998e-01,	 1.1586407740522199e-02,	 1.7360000000000000e+03,	 -4.0231988925270529e-14,	 3.0000000000000006e+02,	 1.0000000000000002e+03,	 3.4760788074254771e+02,	 4.9941330337264445e+00 
2.5791300000000000e-01,	 3.0374817499999995e-01,	 1.1586407740522199e-02,	 1.7360000000000000e+03,	 -1.3669165253464654e-14,	 3.0000000000000000e+02,	 1.0000000000000000e+03,	 3.4760788074254771e+02,	 4.9941330337264445e+00 
2.6241100000000001e-01,	 3.0374049999999997e-01,	 1.1586407740522199e-02,	 1.7360000000000000e+03,	 -8.9551345592074859e-15,	 3.0000000000000000e+02,	 1.0000000000000000e+03,	 3.4760788074254771e+02,	 4.9941330337264445e+00 
2.6690900000000001e-01,	 3.0373282499999998e-01,	 1.1586407740522199e-02,	 1.7360000000000000e+03,	 6.5970395561925294e-15,	 2.9999999999999994e+02,	 9.9999999999999989e+02,	 3.4760788074254765e+02,	 4.9941330337264453e+00 
2.7140700000000001e-01,	 3.0372517499999996e-01,	 1.1586407740522199e-02,	 1.7360000000000000e+03,	 -4.2172800170582578e-15,	 3.0000000000000000e+02,	 1.0000000000000000e+03,	 3.4760788074254771e+02,	 4.9941330337264445e+00 
2.7590500000000001e-01,	 3.0371749999999997e-01,	 1.1586407740522199e-02,	 1.7360000000000000e+03,	 6.0524031887216546e-16,	 3.0000000000000006e+02,	 1.0000000000000002e+03,	 3.4760788074254771e+02,	 4.9941330337264445e+00 
2.8040300000000001e-01,	 3.0370982499999999e-01,	 1.1586407740522199e-02,	 1.7360000000000000e+03,	 -2.6753651942243528e-14,	 3.0000000000000000e+02,	 1.0000000000000000e+03,	 3.4760788074254771e+02,	 4.9941330337264445e+00 
2.8490100000000002e-01,	 3.0370217499999996e-01,	 1.1586407740522199e-02,	 1.7360000000000000e+03,	 -2.1990649128809648e-14,	 3.0000000000000000e+02,	 1.0000000000000000e+03,	 3.4760788074254771e+02,	 4.9941330337264445e+00 
2.8939900000000002e-01,	 3.0369449999999998e-01,	 1.1586407740522199e-02,	 1.7360000000000000e+03,	 -1.7183614840743250e-14,	 3.0000000000000000e+02,	 1.0000000000000000e+03,	 3.4760788074254771e+02,	 4.9941330337264445e+00 
2.9389700000000002e-01,	 3.0368682499999999e-01,	 1.1586407740522199e-02,	 1.7360000000000000e+03,	 -2.2813321365732543e-14,	 3.0000000000000000e+02,	 1.0000000000000000e+03,	 3.4760788074254771e+02,	 4.9941330337264445e+00 
2.9839500000000002e-01,	 3.0367917499999997e-01,	 1.1586407740522199e-02,	 1.7360000000000000e+03,	 -2.1681429280547293e-14,	 2.9999999999999983e+02,	 9.9999999999999943e+02,	 3.4760788074254759e+02,	 4.9941330337264462e+00 
3.0289300000000002e-01,	 3.0367149999999998e-01,	 1.1586407740522199e-02,	 1.7360000000000000e+03,	 -2.6763169179214817e-14,	 3.0000000000000006e+02,	 1.0000000000000002e+03,	 3.4760788074254771e+02,	 4.9941330337264445e+00 
3.0739100000000003e-01,	 3.0366382500000000e-01,	 1.1586407740522199e-02,	 1.7360000000000000e+03,	 -3.8772125030813031e-14,	 3.0000000000000000e+02,	 1.0000000000000000e+03,	 3.4760788074254771e+02,	 4.9941330337264445e+00 
3.1188899999999997e-01,	 3.0365617499999997e-01,	 1.1586407740522199e-02,	 1.7360000000000000e+03,	 -3.8956630349880713e-14,	 3.0000000000000000e+02,	 1.0000000000000000e+03,	 3.4760788074254771e+02,	 4.9941330337264445e+00 
3.1638699999999997e-01,	 3.0364849999999999e-01,	 1.1586407740522199e-02,	 1.7360000000000000e+03,	 -3.4092727808486425e-14,	 3.0000000000000000e+02,	 1.0000000000000000e+03,	 3.4760788074254771e+02,	 4.9941330337264445e+00 
3.2088499999999998e-01,	 3.0364082500000000e-01,	 1.1586407740522199e-02,	 1.7360000000000000e+03,	 -2.9181929743671780e-14,	 2.9999999999999955e+02,	 9.9999999999999852e+02,	 3.4760788074254742e+02,	 4.9941330337264489e+00 
3.2538299999999998e-01,	 3.0363317499999998e-01,	 1.1586407740522199e-02,	 1.7360000000000000e+03,	 -2.4223176269656338e-14,	 3.0000000000000000e+02,	 1.0000000000000000e+03,	 3.4760788074254771e+02,	 4.9941330337264445e+00 
3.2988099999999998e-01,	 3.0362549999999999e-01,	 1.1586407740522199e-02,	 1.7360000000000000e+03,	 2.1138280041363283e-14,	 3.0000000000000000e+02,	 1.0000000000000000e+03,	 3.4760788074254771e+02,	 4.9941330337264445e+00 
3.3437899999999998e-01,	 3.0361782500000001e-01,	 1.1586407740522199e-02,	 1.7360000000000000e+03,	 6.3081233138871598e-14,	 3.0000000000000000e+02,	 1.0000000000000000e+03,	 3.4760788074254771e+02,	 4.9941330337264445e+00 
3.3887699999999998e-01,	 3.0361017499999998e-01,	 1.1586407740522199e-02,	 1.7360000000000000e+03,	 4.6572367157998332e-14,	 3.0000000000000000e+02,	 1.0000000000000000e+03,	 3.4760788074254771e+02,	 4.9941330337264445e+00 
3.4337499999999999e-01,	 3.0360250000000000e-01,	 1.1586407740522199e-02,	 1.7360000000000000e+03,	 -2.9251446091941518e-14,	 2.9999999999999983e+02,	 9.9999999999999943e+02,	 3.4760788074254759e+02,	 4.9941330337264462e+00 
3.4787299999999999e-01,	 3.0359482500000001e-01,	 1.1586407740522199e-02,	 1.7360000000000000e+03,	 -4.2461728961987419e-14,	 3.0000000000000006e+02,	 1.0000000000000002e+03,	 3.4760788074254771e+02,	 4.9941330337264445e+00 
3.5237099999999999e-01,	 3.0358717499999999e-01,	 1.1586407740522199e-02,	 1.7360000000000000e+03,	 -4.6611779702124883e-14,	 3.0000000000000000e+02,	 1.0000000000000000e+03,	 3.4760788074254771e+02,	 4.9941330337264445e+00 
3.5686899999999999e-01,	 3.0357950000000000e-01,	 1.1586407740522199e-02,	 1.7360000000000000e+03,	 -3.8927819127587194e-14,	 3.0000000000000000e+02,	 1.0000000000000000e+03,	 3.4760788074254771e+02,	 4.9941330337264445e+00 
3.6136699999999999e-01,	 3.0357182500000002e-01,	 1.1586407740522199e-02,	 1.7360000000000000e+03,	 -4.7081244143028664e-14,	 3.0000000000000006e+02,	 1.0000000000000002e+03,	 3.4760788074254771e+02,	 4.9941330337264445e+00 
3.6586500000000000e-01,	 3.0356417499999999e-01,	 1.1586407740522199e-02,	 1.7360000000000000e+03,	 -4.9318125939744874e-14,	 2.9999999999999983e+02,	 9.9999999999999943e+02,	 3.4760788074254759e+02,	 4.9941330337264462e+00 
3.7036300000000000e-01,	 3.0355650000000001e-01,	 1.1586407740522199e-02,	 1.7360000000000000e+03,	 2.8133744278275784e-14,	 3.0000000000000006e+02,	 1.0000000000000002e+03,	 3.4760788074254771e+02,	 4.9941330337264445e+00 
3.7486100000000000e-01,	 3.0354882500000002e-01,	 1.1586407740522199e-02,	 1.7360000000000000e+03,	 -8.7525806551035891e-15,	 3.0000000000000006e+02,	 1.0000000000000002e+03,	 3.4760788074254771e+02,	 4.9941330337264445e+00 
3.7935900000000000e-01,	 3.0354117500000000e-01,	 1.1586407740522199e-02,	 1.7360000000000000e+03,	 -3.9249963394299177e-14,	 3.0000000000000051e+02,	 1.0000000000000017e+03,	 3.4760788074254799e+02,	 4.9941330337264409e+00 
3.8385700000000000e-01,	 3.0353350000000001e-01,	 1.1586407740522199e-02,	 1.7360000000000000e+03,	 -9.5230568217159511e-15,	 2.9999999999999983e+02,	 9.9999999999999943e+02,	 3.4760788074254759e+02,	 4.9941330337264462e+00 
3.8835500000000001e-01,	 3.0352582500000003e-01,	 1.1586407740522199e-02,	 1.7360000000000000e+03,	 -1.5042484334329238e-14,	 3.0000000000000000e+02,	 1.0000000000000000e+03,	 3.4760788074254771e+02,	 4.9941330337264445e+00 
3.9285300000000001e-01,	 3.0351817500000000e-01,	 1.1586407740522199e-02,	 1.7360000000000000e+03,	 2.0619156562049150e-15,	 3.0000000000000000e+02,	 1.0000000000000000e+03,	 3.4760788074254771e+02,	 4.9941330337264445e+00 
3.9735100000000001e-01,	 3.0351050000000002e-01,	 1.1586407740522199e-02,	 1.7360000000000000e+03,	 -2.9018217933621215e-14,	 3.0000000000000000e+02,	 1.0000000000000000e+03,	 3.4760788074254771e+02,	 4.9941330337264445e+00 
4.0184900000000001e-01,	 3.0350282500000003e-01,	 1.1586407740522199e-02,	 1.7360000000000000e+03,	 -1.1112840154114767e-14,	 3.0000000000000000e+02,	 1.0000000000000000e+03,	 3.4760788074254771e+02,	 4.9941330337264445e+00 
4.0634700000000001e-01,	 3.0349517500000001e-01,	 1.1586407740522199e-02,	 1.7360000000000000e+03,	 -1.7455536013804881e-14,	 3.0000000000000000e+02,	 1.0000000000000000e+03,	 3.4760788074254771e+02,	 4.9941330337264445e+00 
4.1084500000000002e-01,	 3.0348750000000002e-01,	 1.1586407740522199e-02,	 1.7360000000000000e+03,	 -1.1933002661973255e-14,	 3.0000000000000000e+02,	 1.0000000000000000e+03,	 3.4760788074254771e+02,	 4.9941330337264445e+00 
4.1534300000000002e-01,	 3.0347982500000004e-01,	 1.1586407740522199e-02,	 1.7360000000000000e+03,	 -3.1050838909332668e-14,	 3.0000000000000011e+02,	 1.0000000000000005e+03,	 3.4760788074254776e+02,	 4.9941330337264436e+00 
4.1984100000000002e-01,	 3.0347217500000001e-01,	 1.1586407740522199e-02,	 1.7360000000000000e+03,	 3.3345949556017680e-14,	 3.0000000000000000e+02,	 1.0000000000000000e+03,	 3.4760788074254771e+02,	 4.9941330337264445e+00 
4.2433900000000002e-01,	 3.0346449999999997e-01,	 1.1586407740522199e-02,	 1.7360000000000000e+03,	 1.9973210579231538e-14,	 3.0000000000000000e+02,	 1.0000000000000000e+03,	 3.4760788074254771e+02,	 4.9941330337264445e+00 
4.2883700000000002e-01,	 3.0345682499999999e-01,	 1.1586407740522199e-02,	 1.7360000000000000e+03,	 1.4344224420837627e-14,	 3.0000000000000000e+02,	 1.0000000000000000e+03,	 3.4760788074254771e+02,	 4.9941330337264445e+00 
4.3333500000000003e-01,	 3.0344917500000002e-01,	 1.1586407740522199e-02,	 1.7360000000000000e+03,	 -3.8219515327310241e-14,	 3.0000000000000006e+02,	 1.0000000000000002e+03,	 3.4760788074254771e+02,	 4.9941330337264445e+00 
4.3783300000000003e-01,	 3.0344149999999998e-01,	 1.1586407740522199e-02,	 1.7360000000000000e+03,	 -1.9577439122192848e-14,	 2.9999999999999994e+02,	 9.9999999999999989e+02,	 3.4760788074254765e+02,	 4.9941330337264453e+00 
4.4233099999999992e-01,	 3.0343382499999999e-01,	 1.1586407740522199e-02,	 1.7360000000000000e+03,	 -2.6247651784084730e-14,	 3.0000000000000000e+02,	 1.0000000000000000e+03,	 3.4760788074254771e+02,	 4.9941330337264445e+00 
4.4682899999999998e-01,	 3.0342617500000002e-01,	 1.1586407740522199e-02,	 1.7360000000000000e+03,	 -3.7390327434207934e-14,	 3.0000000000000000e+02,	 1.0000000000000000e+03,	 3.4760788074254771e+02,	 4.9941330337264445e+00 
4.5132700000000003e-01,	 3.0341849999999998e-01,	 1.1586407740522199e-02,	 1.7360000000000000e+03,	 -3.3175989351955928e-14,	 3.0000000000000000e+02,	 1.0000000000000000e+03,	 3.4760788074254771e+02,	 4.9941330337264445e+00 
4.5582499999999998e-01,	 3.0341082500000000e-01,	 1.1586407740522199e-02,	 1.7360000000000000e+03,	 -4.0035095514738618e-14,	 3.0000000000000000e+02,	 1.0000000000000000e+03,	 3.4760788074254771e+02,	 4.9941330337264445e+00 
4.6032299999999993e-01,	 3.0340317500000002e-01,	 1.1586407740522199e-02,	 1.7360000000000000e+03,	 -4.5479773980307225e-14,	 3.0000000000000006e+02,	 1.0000000000000002e+03,	 3.4760788074254771e+02,	 4.9941330337264445e+00 
4.6482099999999998e-01,	 3.0339549999999998e-01,	 1.1586407740522199e-02,	 1.7360000000000000e+03,	 -5.6235790342851555e-14,	 3.0000000000000000e+02,	 1.0000000000000000e+03,	 3.4760788074254771e+02,	 4.9941330337264445e+00 
4.6931900000000004e-01,	 3.0338782500000000e-01,	 1.1586407740522199e-02,	 1.7360000000000000e+03,	 -5.1278752745005705e-14,	 3.0000000000000000e+02,	 1.0000000000000000e+03,	 3.4760788074254771e+02,	 4.9941330337264445e+00 
4.7381699999999999e-01,	 3.0338017500000003e-01,	 1.1586407740522199e-02,	 1.7360000000000000e+03,	 -4.5505379154123212e-14,	 3.0000000000000000e+02,	 1.0000000000000000e+03,	 3.4760788074254771e+02,	 4.9941330337264445e+00 
4.7831499999999993e-01,	 3.0337249999999999e-01,	 1.1586407740522199e-02,	 1.7360000000000000e+03,	 -9.3825714411370923e-14,	 3.0000000000000000e+02,	 1.0000000000000000e+03,	 3.4760788074254771e+02,	 4.9941330337264445e+00 
4.8281299999999999e-01,	 3.0336482500000000e-01,	 1.1586407740522199e-02,	 1.7360000000000000e+03,	 -1.1662188226633059e-13,	 3.0000000000000000e+02,	 1.0000000000000000e+03,	 3.4760788074254771e+02,	 4.9941330337264445e+00 
4.8731100000000005e-01,	 3.0335717500000003e-01,	 1.1586407740522199e-02,	 1.7360000000000000e+03,	 -9.7237322390261784e-14,	 3.0000000000000000e+02,	 1.0000000000000000e+03,	 3.4760788074254771e+02,	 4.9941330337264445e+00 
4.9180900000000000e-01,	 3.0334949999999999e-01,	 1.1586407740522199e-02,	 1.7360000000000000e+03,	 -7.7626751162655493e-15,	 3.0000000000000000e+02,	 1.0000000000000000e+03,	 3.4760788074254771e+02,	 4.9941330337264445e+00 
4.9630699999999994e-01,	 3.0334182499999995e-01,	 1.1586407740522199e-02,	 1.7360000000000000e+03,	 -2.8891960871847152e-14,	 3.0000000000000000e+02,	 1.0000000000000000e+03,	 3.4760788074254771e+02,	 4.9941330337264445e+00 
5.0080499999999994e-01,	 3.0333417499999998e-01,	 1.1586407740522199e-02,	 1.7360000000000000e+03,	 -2.2779482085762929e-14,	 3.0000000000000000e+02,	 1.0000000000000000e+03,	 3.4760788074254771e+02,	 4.9941330337264445e+00 
5.0530300000000006e-01,	 3.0332649999999994e-01,	 1.1586407740522199e-02,	 1.7360000000000000e+03,	 -1.6594315653884319e-14,	 3.0000000000000000e+02,	 1.0000000000000000e+03,	 3.4760788074254771e+02,	 4.9941330337264445e+00 
5.0980099999999995e-01,	 3.0331882499999996e-01,	 1.1586407740522199e-02,	 1.7360000000000000e+03,	 -1.0334585585844793e-14,	 3.0000000000000006e+02,	 1.0000000000000002e+03,	 3.4760788074254771e+02,	 4.9941330337264445e+00 
5.1429900000000006e-01,	 3.0331117499999999e-01,	 1.1586407740522199e-02,	 1.7360000000000000e+03,	 -4.6386802346719615e-14,	 3.0000000000000000e+02,	 1.0000000000000000e+03,	 3.4760788074254771e+02,	 4.9941330337264445e+00 
5.1879699999999995e-01,	 3.0330349999999995e-01,	 1.1586407740522199e-02,	 1.7360000000000000e+03,	 -4.0232547509479749e-14,	 3.0000000000000000e+02,	 1.0000000000000000e+03,	 3.4760788074254771e+02,	 4.9941330337264445e+00 
5.2329500000000007e-01,	 3.0329582499999996e-01,	 1.1586407740522199e-02,	 1.7360000000000000e+03,	 -3.8860275706569427e-14,	 3.0000000000000000e+02,	 1.0000000000000000e+03,	 3.4760788074254771e+02,	 4.9941330337264445e+00 
1.8594500000000000e-01,	 3.0755942500000000e-01,	 1.1586407740522199e-02,	 1.7360000000000000e+03,	 -4.3714252947203012e-14,	 3.0000000000000006e+02,	 1.0000000000000002e+03,	 3.4760788074254771e+02,	 4.9941330337264445e+00 
1.9044300000000000e-01,	 3.0753647500000003e-01,	 1.1586407740522199e-02,	 1.7360000000000000e+03,	 -6.5576444090977920e-14,	 2.9999999999999983e+02,	 9.9999999999999943e+02,	 3.4760788074254759e+02,	 4.9941330337264462e+00 
1.9494100000000000e-01,	 3.0751347499999998e-01,	 1.1586407740522199e-02,	 1.7360000000000000e+03,	 -3.3198944546291018e-14,	 3.0000000000000011e+02,	 1.0000000000000005e+03,	 3.4760788074254776e+02,	 4.9941330337264436e+00 
1.9943900000000001e-01,	 3.0749047499999993e-01,	 1.1586407740522199e-02,	 1.7360000000000000e+03,	 -2.8967415581804570e-14,	 3.0000000000000006e+02,	 1.0000000000000002e+03,	 3.4760788074254771e+02,	 4.9941330337264445e+00 
2.0393700000000001e-01,	 3.0746750000000000e-01,	 1.1586407740522199e-02,	 1.7360000000000000e+03,	 -2.3602349298373784e-14,	 2.9999999999999983e+02,	 9.9999999999999943e+02,	 3.4760788074254759e+02,	 4.9941330337264462e+00 
2.0843500000000001e-01,	 3.0744450000000001e-01,	 1.1586407740522199e-02,	 1.7360000000000000e+03,	 3.8586860817290130e-15,	 3.0000000000000000e+02,	 1.0000000000000000e+03,	 3.4760788074254771e+02,	 4.9941330337264445e+00 
2.1293300000000001e-01,	 3.0742152499999997e-01,	 1.1586407740522199e-02,	 1.7360000000000000e+03,	 1.2732847199594005e-14,	 3.0000000000000045e+02,	 1.0000000000000016e+03,	 3.4760788074254793e+02,	 4.9941330337264418e+00 
2.1743099999999999e-01,	 3.0739854999999999e-01,	 1.1586407740522199e-02,	 1.7360000000000000e+03,	 1.1119972141540662e-14,	 2.9999999999999983e+02,	 9.9999999999999943e+02,	 3.4760788074254759e+02,	 4.9941330337264462e+00 
2.2192899999999999e-01,	 3.0737555000000000e-01,	 1.1586407740522199e-02,	 1.7360000000000000e+03,	 3.3504475188486901e-15,	 3.0000000000000000e+02,	 1.0000000000000000e+03,	 3.4760788074254771e+02,	 4.9941330337264445e+00 
2.2642699999999999e-01,	 3.0735255000000000e-01,	 1.1586407740522199e-02,	 1.7360000000000000e+03,	 -2.8041892252392418e-15,	 3.0000000000000034e+02,	 1.0000000000000011e+03,	 3.4760788074254788e+02,	 4.9941330337264427e+00 
2.3092499999999999e-01,	 3.0732957500000002e-01,	 1.1586407740522199e-02,	 1.7360000000000000e+03,	 2.2531860338799127e-15,	 3.0000000000000034e+02,	 1.0000000000000011e+03,	 3.4760788074254788e+02,	 4.9941330337264427e+00 
2.3542299999999999e-01,	 3.0730659999999999e-01,	 1.1586407740522199e-02,	 1.7360000000000000e+03,	 3.3945630473876961e-15,	 3.0000000000000000e+02,	 1.0000000000000000e+03,	 3.4760788074254771e+02,	 4.9941330337264445e+00 
2.3992100000000000e-01,	 3.0728359999999999e-01,	 1.1586407740522199e-02,	 1.7360000000000000e+03,	 6.8190465857537283e-15,	 3.0000000000000006e+02,	 1.0000000000000002e+03,	 3.4760788074254771e+02,	 4.9941330337264445e+00 
2.4441900000000000e-01,	 3.0726062500000001e-01,	 1.1586407740522199e-02,	 1.7360000000000000e+03,	 1.7123310843835105e-15,	 2.9999999999999994e+02,	 9.9999999999999989e+02,	 3.4760788074254765e+02,	 4.9941330337264453e+00 
2.4891700000000000e-01,	 3.0723762500000001e-01,	 1.1586407740522199e-02,	 1.7360000000000000e+03,	 5.7331416378677977e-15,	 3.0000000000000000e+02,	 1.0000000000000000e+03,	 3.4760788074254771e+02,	 4.9941330337264445e+00 
2.5341500000000000e-01,	 3.0721462499999996e-01,	 1.1586407740522199e-02,	 1.7360000000000000e+03,	 1.2669218696588703e-14,	 3.0000000000000000e+02,	 1.0000000000000000e+03,	 3.4760788074254771e+02,	 4.9941330337264445e+00 
2.5791300000000000e-01,	 3.0719167500000000e-01,	 1.1586407740522199e-02,	 1.7360000000000000e+03,	 -4.0491882801640517e-15,	 3.0000000000000000e+02,	 1.0000000000000000e+03,	 3.4760788074254771e+02,	 4.9941330337264445e+00 
2.6241100000000001e-01,	 3.0716867500000000e-01,	 1.1586407740522199e-02,	 1.7360000000000000e+03,	 0.0000000000000000e+00,	 3.0000000000000000e+02,	 1.0000000000000000e+03,	 3.4760788074254771e+02,	 4.9941330337264445e+00 
2.6690900000000001e-01,	 3.0714567500000001e-01,	 1.1586407740522199e-02,	 1.7360000000000000e+03,	 5.2531952454550169e-15,	 2.9999999999999983e+02,	 9.9999999999999943e+02,	 3.4760788074254759e+02,	 4.9941330337264462e+00 
2.7140700000000001e-01,	 3.0712269999999997e-01,	 1.1586407740522199e-02,	 1.7360000000000000e+03,	 1.0554271127210363e-14,	 3.0000000000000000e+02,	 1.0000000000000000e+03,	 3.4760788074254771e+02,	 4.9941330337264445e+00 
2.7590500000000001e-01,	 3.0709969999999998e-01,	 1.1586407740522199e-02,	 1.7360000000000000e+03,	 5.8902380017667278e-15,	 3.0000000000000000e+02,	 1.0000000000000000e+03,	 3.4760788074254771e+02,	 4.9941330337264445e+00 
2.8040300000000001e-01,	 3.0707672499999999e-01,	 1.1586407740522199e-02,	 1.7360000000000000e+03,	 1.1834291330853225e-14,	 3.0000000000000006e+02,	 1.0000000000000002e+03,	 3.4760788074254771e+02,	 4.9941330337264445e+00 
2.8490100000000002e-01,	 3.0705374999999996e-01,	 1.1586407740522199e-02,	 1.7360000000000000e+03,	 7.1333666516823500e-15,	 2.9999999999999994e+02,	 9.9999999999999989e+02,	 3.4760788074254765e+02,	 4.9941330337264453e+00 
2.8939900000000002e-01,	 3.0703075000000002e-01,	 1.1586407740522199e-02,	 1.7360000000000000e+03,	 2.3887839815216119e-15,	 3.0000000000000000e+02,	 1.0000000000000000e+03,	 3.4760788074254771e+02,	 4.9941330337264445e+00 
2.9389700000000002e-01,	 3.0700775000000002e-01,	 1.1586407740522199e-02,	 1.7360000000000000e+03,	 6.5996688804812363e-15,	 3.0000000000000000e+02,	 1.0000000000000000e+03,	 3.4760788074254771e+02,	 4.9941330337264445e+00 
2.9839500000000002e-01,	 3.0698477499999999e-01,	 1.1586407740522199e-02,	 1.7360000000000000e+03,	 9.6444523094457498e-15,	 3.0000000000000000e+02,	 1.0000000000000000e+03,	 3.4760788074254771e+02,	 4.9941330337264445e+00 
3.0289300000000002e-01,	 3.0696179999999995e-01,	 1.1586407740522199e-02,	 1.7360000000000000e+03,	 9.0839157186107776e-15,	 3.0000000000000006e+02,	 1.0000000000000002e+03,	 3.4760788074254771e+02,	 4.9941330337264445e+00 
3.0739100000000003e-01,	 3.0693880000000001e-01,	 1.1586407740522199e-02,	 1.7360000000000000e+03,	 1.0952023878139502e-14,	 3.0000000000000006e+02,	 1.0000000000000002e+03,	 3.4760788074254771e+02,	 4.9941330337264445e+00 
3.1188899999999997e-01,	 3.0691582499999998e-01,	 1.1586407740522199e-02,	 1.7360000000000000e+03,	 1.5283324045699100e-14,	 3.0000000000000000e+02,	 1.0000000000000000e+03,	 3.4760788074254771e+02,	 4.9941330337264445e+00 
3.1638699999999997e-01,	 3.0689282499999998e-01,	 1.1586407740522199e-02,	 1.7360000000000000e+03,	 1.5970185788221665e-14,	 3.0000000000000000e+02,	 1.0000000000000000e+03,	 3.4760788074254771e+02,	 4.9941330337264445e+00 
3.2088499999999998e-01,	 3.0686982500000004e-01,	 1.1586407740522199e-02,	 1.7360000000000000e+03,	 -3.2710019162849432e-14,	 3.0000000000000000e+02,	 1.0000000000000000e+03,	 3.4760788074254771e+02,	 4.9941330337264445e+00 
3.2538299999999998e-01,	 3.0684687499999996e-01,	 1.1586407740522199e-02,	 1.7360000000000000e+03,	 -2.7905850959757009e-14,	 3.0000000000000000e+02,	 1.0000000000000000e+03,	 3.4760788074254771e+02,	 4.9941330337264445e+00 
3.2988099999999998e-01,	 3.0682387500000002e-01,	 1.1586407740522199e-02,	 1.7360000000000000e+03,	 -2.3055368068325199e-14,	 2.9999999999999983e+02,	 9.9999999999999943e+02,	 3.4760788074254759e+02,	 4.9941330337264462e+00 
3.3437899999999998e-01,	 3.0680087500000003e-01,	 1.1586407740522199e-02,	 1.7360000000000000e+03,	 -8.1397495086018717e-15,	 2.9999999999999989e+02,	 9.9999999999999966e+02,	 3.4760788074254759e+02,	 4.9941330337264462e+00 
3.3887699999999998e-01,	 3.0677789999999999e-01,	 1.1586407740522199e-02,	 1.7360000000000000e+03,	 -2.5167591614178115e-14,	 3.0000000000000034e+02,	 1.0000000000000011e+03,	 3.4760788074254788e+02,	 4.9941330337264427e+00 
3.4337499999999999e-01,	 3.0675490000000000e-01,	 1.1586407740522199e-02,	 1.7360000000000000e+03,	 -3.7303612421077873e-14,	 3.0000000000000006e+02,	 1.0000000000000002e+03,	 3.4760788074254771e+02,	 4.9941330337264445e+00 
3.4787299999999999e-01,	 3.0673192499999996e-01,	 1.1586407740522199e-02,	 1.7360000000000000e+03,	 -2.1602209183968725e-14,	 3.0000000000000000e+02,	 1.0000000000000000e+03,	 3.4760788074254771e+02,	 4.9941330337264445e+00 
3.5237099999999999e-01,	 3.0670894999999998e-01,	 1.1586407740522199e-02,	 1.7360000000000000e+03,	 -1.6601099337371201e-14,	 3.0000000000000006e+02,	 1.0000000000000002e+03,	 3.4760788074254771e+02,	 4.9941330337264445e+00 
3.5686899999999999e-01,	 3.0668594999999998e-01,	 1.1586407740522199e-02,	 1.7360000000000000e+03,	 -1.1550045168652214e-14,	 3.0000000000000000e+02,	 1.0000000000000000e+03,	 3.4760788074254771e+02,	 4.9941330337264445e+00 
3.6136699999999999e-01,	 3.0666294999999999e-01,	 1.1586407740522199e-02,	 1.7360000000000000e+03,	 5.8037903768402590e-15,	 3.0000000000000000e+02,	 1.0000000000000000e+03,	 3.4760788074254771e+02,	 4.9941330337264445e+00 
3.6586500000000000e-01,	 3.0663997500000001e-01,	 1.1586407740522199e-02,	 1.7360000000000000e+03,	 -1.2962078673268807e-15,	 3.0000000000000000e+02,	 1.0000000000000000e+03,	 3.4760788074254771e+02,	 4.9941330337264445e+00 
3.7036300000000000e-01,	 3.0661699999999997e-01,	 1.1586407740522199e-02,	 1.7360000000000000e+03,	 1.4981127719807438e-14,	 2.9999999999999994e+02,	 9.9999999999999989e+02,	 3.4760788074254765e+02,	 4.9941330337264453e+00 
3.7486100000000000e-01,	 3.0659399999999992e-01,	 1.1586407740522199e-02,	 1.7360000000000000e+03,	 2.5531185873430257e-14,	 3.0000000000000006e+02,	 1.0000000000000002e+03,	 3.4760788074254771e+02,	 4.9941330337264445e+00 
3.7935900000000000e-01,	 3.0657102500000000e-01,	 1.1586407740522199e-02,	 1.7360000000000000e+03,	 4.4742767192676431e-14,	 3.0000000000000000e+02,	 1.0000000000000000e+03,	 3.4760788074254771e+02,	 4.9941330337264445e+00 
3.8385700000000000e-01,	 3.0654802500000000e-01,	 1.1586407740522199e-02,	 1.7360000000000000e+03,	 3.9680448503592264e-15,	 3.0000000000000000e+02,	 1.0000000000000000e+03,	 3.4760788074254771e+02,	 4.9941330337264445e+00 
3.8835500000000001e-01,	 3.0652502500000001e-01,	 1.1586407740522199e-02,	 1.7360000000000000e+03,	 -1.3294674243205020e-15,	 2.9999999999999994e+02,	 9.9999999999999989e+02,	 3.4760788074254765e+02,	 4.9941330337264453e+00 
3.9285300000000001e-01,	 3.0650207500000004e-01,	 1.1586407740522199e-02,	 1.7360000000000000e+03,	 1.1358736838300387e-14,	 3.0000000000000006e+02,	 1.0000000000000002e+03,	 3.4760788074254771e+02,	 4.9941330337264445e+00 
3.9735100000000001e-01,	 3.0647907500000005e-01,	 1.1586407740522199e-02,	 1.7360000000000000e+03,	 6.0446105016856831e-15,	 3.0000000000000000e+02,	 1.0000000000000000e+03,	 3.4760788074254771e+02,	 4.9941330337264445e+00 
4.0184900000000001e-01,	 3.0645607499999999e-01,	 1.1586407740522199e-02,	 1.7360000000000000e+03,	 1.2152184095166399e-14,	 3.0000000000000000e+02,	 1.0000000000000000e+03,	 3.4760788074254771e+02,	 4.9941330337264445e+00 
4.0634700000000001e-01,	 3.0643310000000001e-01,	 1.1586407740522199e-02,	 1.7360000000000000e+03,	 1.1537335200689404e-14,	 3.0000000000000000e+02,	 1.0000000000000000e+03,	 3.4760788074254771e+02,	 4.9941330337264445e+00 
4.1084500000000002e-01,	 3.0641009999999996e-01,	 1.1586407740522199e-02,	 1.7360000000000000e+03,	 6.1401384871924771e-15,	 3.0000000000000000e+02,	 1.0000000000000000e+03,	 3.4760788074254771e+02,	 4.9941330337264445e+00 
4.1534300000000002e-01,	 3.0638712499999998e-01,	 1.1586407740522199e-02,	 1.7360000000000000e+03,	 2.4690021873196061e-14,	 3.0000000000000006e+02,	 1.0000000000000002e+03,	 3.4760788074254771e+02,	 4.9941330337264445e+00 
4.1984100000000002e-01,	 3.0636415000000000e-01,	 1.1586407740522199e-02,	 1.7360000000000000e+03,	 6.8949146333339122e-15,	 2.9999999999999983e+02,	 9.9999999999999943e+02,	 3.4760788074254759e+02,	 4.9941330337264462e+00 
4.2433900000000002e-01,	 3.0634114999999995e-01,	 1.1586407740522199e-02,	 1.7360000000000000e+03,	 1.3863515578402971e-15,	 3.0000000000000000e+02,	 1.0000000000000000e+03,	 3.4760788074254771e+02,	 4.9941330337264445e+00 
4.2883700000000002e-01,	 3.0631814999999996e-01,	 1.1586407740522199e-02,	 1.7360000000000000e+03,	 7.6658903889969511e-15,	 3.0000000000000000e+02,	 1.0000000000000000e+03,	 3.4760788074254771e+02,	 4.9941330337264445e+00 
4.3333500000000003e-01,	 3.0629517499999998e-01,	 1.1586407740522199e-02,	 1.7360000000000000e+03,	 1.4714159518251427e-14,	 3.0000000000000034e+02,	 1.0000000000000011e+03,	 3.4760788074254788e+02,	 4.9941330337264427e+00 
4.3783300000000003e-01,	 3.0627219999999999e-01,	 1.1586407740522199e-02,	 1.7360000000000000e+03,	 -1.3384840858156949e-14,	 3.0000000000000000e+02,	 1.0000000000000000e+03,	 3.4760788074254771e+02,	 4.9941330337264445e+00 