TITLE = "Final State"
VARIABLES = "X", "Y", "rho", "u", "v", "T", "p", "c", "M"
ZONE I=51, J=46, DATAPACKING=POINT
4.1223810000000000e-01,	 6.8663989999999997e-01,	 1.1586407740519450e-02,	 1.0000000000000000e+03,	 2.1965125569146906e-11,	 2.9999999999999903e+02,	 9.9999999999975955e+02,	 3.3237670711487232e+02,	 3.0086344156914437e+00 
4.1890719999999998e-01,	 6.8746609999999997e-01,	 1.1586407740520308e-02,	 1.0000000000000002e+03,	 1.9460170712743520e-11,	 2.9999999999999818e+02,	 9.9999999999983083e+02,	 3.3237670711487181e+02,	 3.0086344156914491e+00 
4.2557250000000002e-01,	 6.8831850000000006e-01,	 1.1586407740521575e-02,	 1.0000000000000008e+03,	 1.4145457757200582e-11,	 2.9999999999999841e+02,	 9.9999999999994088e+02,	 3.3237670711487198e+02,	 3.0086344156914491e+00 
4.3223590000000001e-01,	 6.8919790000000003e-01,	 1.1586407740521951e-02,	 1.0000000000000025e+03,	 5.2904707926748268e-12,	 2.9999999999999716e+02,	 9.9999999999996930e+02,	 3.3237670711487124e+02,	 3.0086344156914611e+00 
4.3889860000000003e-01,	 6.9010470000000002e-01,	 1.1586407740522005e-02,	 1.0000000000000002e+03,	 5.1388430466926909e-12,	 2.9999999999999716e+02,	 9.9999999999997374e+02,	 3.3237670711487124e+02,	 3.0086344156914544e+00 
4.4594240000000002e-01,	 6.9109259999999995e-01,	 1.1586407740522112e-02,	 9.9999999999999795e+02,	 -8.0093943357254069e-13,	 2.9999999999999898e+02,	 9.9999999999998920e+02,	 3.3237670711487226e+02,	 3.0086344156914380e+00 
4.5298990000000000e-01,	 6.9211049999999996e-01,	 1.1586407740522215e-02,	 9.9999999999999591e+02,	 -3.5767097706468832e-12,	 3.0000000000000171e+02,	 1.0000000000000070e+03,	 3.3237670711487380e+02,	 3.0086344156914180e+00 
4.6004319999999999e-01,	 6.9315939999999998e-01,	 1.1586407740522348e-02,	 9.9999999999999454e+02,	 -6.2793693225538348e-12,	 3.0000000000000426e+02,	 1.0000000000000272e+03,	 3.3237670711487522e+02,	 3.0086344156914011e+00 
4.6710350000000000e-01,	 6.9423769999999996e-01,	 1.1586407740522303e-02,	 9.9999999999999386e+02,	 -5.4721984554782524e-12,	 3.0000000000000608e+02,	 1.0000000000000293e+03,	 3.3237670711487618e+02,	 3.0086344156913905e+00 
4.7417239999999999e-01,	 6.9534510000000005e-01,	 1.1586407740522407e-02,	 9.9999999999999386e+02,	 -6.1207822360705723e-12,	 3.0000000000000676e+02,	 1.0000000000000406e+03,	 3.3237670711487658e+02,	 3.0086344156913865e+00 
4.8125160000000000e-01,	 6.9648030000000005e-01,	 1.1586407740522399e-02,	 9.9999999999999329e+02,	 -4.7268170447552570e-12,	 3.0000000000000705e+02,	 1.0000000000000408e+03,	 3.3237670711487675e+02,	 3.0086344156913833e+00 
4.8834359999999999e-01,	 6.9764360000000003e-01,	 1.1586407740520940e-02,	 9.9999999999999295e+02,	 -2.3830538521231023e-12,	 3.0000000000000637e+02,	 9.9999999999991257e+02,	 3.3237670711487635e+02,	 3.0086344156913860e+00 
4.9545040000000001e-01,	 6.9883289999999998e-01,	 1.1586407740537019e-02,	 1.0000000000000030e+03,	 3.1313245442216739e-12,	 2.9999999999999972e+02,	 1.0000000000012782e+03,	 3.3237670711487266e+02,	 3.0086344156914495e+00 
5.0257490000000005e-01,	 7.0004759999999999e-01,	 1.1586407739945025e-02,	 1.0000000000105797e+03,	 -2.1345475826130119e-08,	 2.9999999998952649e+02,	 9.9999999991527363e+02,	 3.3237670710907088e+02,	 3.0086344157757883e+00 
5.0971999999999995e-01,	 7.0128550000000001e-01,	 1.1586407752536235e-02,	 9.9999999975265405e+02,	 4.2047433263108830e-07,	 3.0000000021521788e+02,	 1.0000000017543008e+03,	 3.3237670723409519e+02,	 3.0086344138680787e+00 
5.1688869999999998e-01,	 7.0254390000000000e-01,	 1.1586453998136325e-02,	 9.9999911642772554e+02,	 1.6636436856024579e-03,	 3.0000083040272943e+02,	 1.0000067604235896e+03,	 3.3237716712542914e+02,	 3.0086275933982547e+00 
5.2408549999999998e-01,	 7.0381609999999994e-01,	 1.8774448251889841e-02,	 8.2951624116291009e+02,	 2.4136984819498807e+01,	 4.1246822210921181e+02,	 2.2278585577636472e+03,	 3.8973122352230286e+02,	 2.1293324263323541e+00 
5.3131360000000005e-01,	 7.0509040000000001e-01,	 4.2041694570408482e-02,	 2.8298669738177489e+02,	 1.0514333653504849e+02,	 7.5974988141366600e+02,	 9.1892653241109529e+03,	 5.2893861540233650e+02,	 5.7074368956669186e-01 
5.3857630000000001e-01,	 7.0635099999999995e-01,	 4.2560502302211894e-02,	 2.7110367345986083e+02,	 1.1143651561684635e+02,	 7.6285753368737028e+02,	 9.3407150130490463e+03,	 5.3001928673195778e+02,	 5.5302349055234556e-01 
5.4587370000000002e-01,	 7.0757219999999998e-01,	 4.2539442522232442e-02,	 2.7272010990856586e+02,	 1.1241984113025836e+02,	 7.6275629515984178e+02,	 9.3348540528635731e+03,	 5.2998411623802917e+02,	 5.5658680754328227e-01 
5.5320939999999996e-01,	 7.0875800000000000e-01,	 4.2447934031544267e-02,	 2.7840395721108126e+02,	 1.1378585391858675e+02,	 7.6149647776709116e+02,	 9.2993885529223171e+03,	 5.2954625742466226e+02,	 5.6795607343646271e-01 
5.6057659999999998e-01,	 7.0985710000000002e-01,	 4.2396610627094662e-02,	 2.9026817784890000e+02,	 1.1621359482226772e+02,	 7.5778552455269073e+02,	 9.2428814126592351e+03,	 5.2825437924739481e+02,	 5.9188889044485560e-01 
5.6797339999999996e-01,	 7.1075710000000003e-01,	 4.2474956179665117e-02,	 3.0831784510043110e+02,	 1.2095405464157719e+02,	 7.5134476586450432e+02,	 9.1812569580423551e+03,	 5.2600465336630486e+02,	 6.2964171106627087e-01 
5.7538679999999998e-01,	 7.1117390000000003e-01,	 4.3121773400377345e-02,	 3.3258840970817994e+02,	 1.2925153145688512e+02,	 7.4044547167675864e+02,	 9.1858559788441835e+03,	 5.2217550364088902e+02,	 6.8333480390910550e-01 
5.8281289999999997e-01,	 7.1066900000000000e-01,	 4.3585958108721970e-02,	 3.6008620124928228e+02,	 1.3680205929030103e+02,	 7.2943274631400368e+02,	 9.1466443082784390e+03,	 5.1827777020241786e+02,	 7.4322537621560847e-01 
5.8998580000000000e-01,	 7.1223749999999997e-01,	 4.3596415371010791e-02,	 3.7014496831428880e+02,	 1.3646599780348018e+02,	 7.2604780552756188e+02,	 9.1063835078314078e+03,	 5.1707383497598903e+02,	 7.6294717263238732e-01 
5.9719979999999995e-01,	 7.1371470000000004e-01,	 4.3682358020020448e-02,	 3.8344262526028376e+02,	 1.3864195207703654e+02,	 7.2055175385039684e+02,	 9.0552655572917283e+03,	 5.1511303910972902e+02,	 7.9154948686389892e-01 
6.0444350000000002e-01,	 7.1512089999999995e-01,	 4.3770354651046291e-02,	 3.9676429369815656e+02,	 1.3988228302828031e+02,	 7.1505398287590401e+02,	 9.0042767140153883e+03,	 5.1314413392131621e+02,	 8.1984870962667067e-01 
6.1171549999999997e-01,	 7.1645440000000005e-01,	 4.3937317198276510e-02,	 4.0903465808007786e+02,	 1.4147976949928449e+02,	 7.0977582536522095e+02,	 8.9719052062679257e+03,	 5.1124674416810342e+02,	 8.4658063811035678e-01 
6.1901370000000000e-01,	 7.1771629999999997e-01,	 4.3992195838678597e-02,	 4.2241442383410697e+02,	 1.4312177904081776e+02,	 7.0363096918231531e+02,	 8.9053403745863488e+03,	 5.0902888422401037e+02,	 8.7618211762514076e-01 
6.2633600000000000e-01,	 7.1890659999999995e-01,	 4.3984009089888178e-02,	 4.3493139880587773e+02,	 1.4340060635184028e+02,	 6.9793453726254961e+02,	 8.8316009927563991e+03,	 5.0696420749205907e+02,	 9.0334158250499741e-01 
6.3368029999999997e-01,	 7.2002679999999997e-01,	 4.4001238514961821e-02,	 4.4607615635186528e+02,	 1.4312621680188471e+02,	 6.9274806140870078e+02,	 8.7694056010748373e+03,	 5.0507702429567848e+02,	 9.2753227373504388e-01 
6.4104419999999995e-01,	 7.2107969999999999e-01,	 4.3951144836446909e-02,	 4.5656700015586352e+02,	 1.4248911633615143e+02,	 6.8788260851409541e+02,	 8.6979009756804644e+03,	 5.0330021775685930e+02,	 9.5029768970891582e-01 
6.4842540000000004e-01,	 7.2206769999999998e-01,	 4.3873656482289636e-02,	 4.6616419290655369e+02,	 1.4137854859244237e+02,	 6.8335717561873082e+02,	 8.6254453348087827e+03,	 5.0164193351465570e+02,	 9.7107381572873519e-01 
6.5582189999999996e-01,	 7.2299380000000002e-01,	 4.3764230891222847e-02,	 4.7492574023691441e+02,	 1.3989293304117621e+02,	 6.7919394453826180e+02,	 8.5515146351861476e+03,	 5.0011151723398552e+02,	 9.8998017273718253e-01 
6.6323069999999995e-01,	 7.2386539999999999e-01,	 4.3627178512777198e-02,	 4.8283310840118668e+02,	 1.3809611937541081e+02,	 6.7544497521333335e+02,	 8.4776803904256976e+03,	 4.9872936626067872e+02,	 1.0069459934051355e+00 
6.7064999999999997e-01,	 7.2468730000000003e-01,	 4.3454781997370420e-02,	 4.9017090399351321e+02,	 1.3605160516678058e+02,	 6.7195427118625980e+02,	 8.4005405358091375e+03,	 4.9743897861309955e+02,	 1.0226416794270836e+00 
6.7807810000000002e-01,	 7.2546400000000000e-01,	 4.3242095907656528e-02,	 4.9710198690168068e+02,	 1.3372134432403729e+02,	 6.6864393168703600e+02,	 8.3182425676715739e+03,	 4.9621216522599377e+02,	 1.0374060982516395e+00 
6.8551399999999996e-01,	 7.2619750000000005e-01,	 4.3010816042773466e-02,	 5.0352285812744663e+02,	 1.3100618719826184e+02,	 6.6557996664514303e+02,	 8.2358392547068324e+03,	 4.9507394921542436e+02,	 1.0509265422332514e+00 
6.9295600000000002e-01,	 7.2689409999999999e-01,	 4.2805114684092448e-02,	 5.0894624620579862e+02,	 1.2792890884565939e+02,	 6.6304438578655299e+02,	 8.1652259008559849e+03,	 4.9413003720132099e+02,	 1.0620243497433499e+00 
7.0040320000000000e-01,	 7.2755709999999996e-01,	 4.2637129613499386e-02,	 5.1326293403196496e+02,	 1.2446705088301118e+02,	 6.6104961632617164e+02,	 8.1087134751519088e+03,	 4.9338618204061038e+02,	 1.0704375146566865e+00 
7.0785500000000001e-01,	 7.2818870000000002e-01,	 4.2499797687223201e-02,	 5.1684142270855716e+02,	 1.2130624356898846e+02,	 6.5931861571947798e+02,	 8.0614309476605649e+03,	 4.9273977699791106e+02,	 1.0774171730413993e+00 
7.1531080000000002e-01,	 7.2879039999999995e-01,	 4.2323555018744567e-02,	 5.2058233503919018e+02,	 1.1804103925829909e+02,	 6.5742729268167534e+02,	 8.0049718071297912e+03,	 4.9203253215133128e+02,	 1.0848823116231656e+00 
7.2277020000000003e-01,	 7.2936369999999995e-01,	 4.2074286724671978e-02,	 5.2471167901744798e+02,	 1.1485078897676050e+02,	 6.5540921332794187e+02,	 7.9333979898727694e+03,	 4.9127676501881712e+02,	 1.0933431949276251e+00 
7.3023260000000001e-01,	 7.2991090000000003e-01,	 4.1809398905082638e-02,	 5.2861954704372556e+02,	 1.1151797219934386e+02,	 6.5361801336035182e+02,	 7.8619064867868301e+03,	 4.9060498854520404e+02,	 1.1012005066164345e+00 
7.3769779999999996e-01,	 7.3043259999999999e-01,	 4.1536270768340350e-02,	 5.3235520989524434e+02,	 1.0805751385866323e+02,	 6.5199845268087279e+02,	 7.7911937497753761e+03,	 4.8999679129237666e+02,	 1.1086017105656367e+00 
7.4516550000000004e-01,	 7.3092860000000004e-01,	 4.1255255228818788e-02,	 5.3602452153824947e+02,	 1.0458833606839414e+02,	 6.5045424681852046e+02,	 7.7201541001403648e+03,	 4.8941618832811218e+02,	 1.1158862085967567e+00 
7.5263559999999996e-01,	 7.3139900000000002e-01,	 4.0973988702241754e-02,	 5.3960779426984936e+02,	 1.0112730997117743e+02,	 6.4895197729971937e+02,	 7.6498116245814463e+03,	 4.8885069118866801e+02,	 1.1230465838956794e+00 
7.6010789999999995e-01,	 7.3184210000000005e-01,	 4.0692014298279511e-02,	 5.4319447301092328e+02,	 9.7634584037021853e+01,	 6.4741537665193391e+02,	 7.5791785091735883e+03,	 4.8827159327399704e+02,	 1.1303119538780406e+00 
7.6794410000000002e-01,	 7.3232140000000001e-01,	 4.0407221751945180e-02,	 5.4682127850985239e+02,	 9.4024829213879713e+01,	 6.4583326474592150e+02,	 7.5077419817539321e+03,	 4.8767462504224540e+02,	 1.1377382736352566e+00 
7.7575950000000005e-01,	 7.3276870000000005e-01,	 4.0240419198282376e-02,	 5.4894283445429403e+02,	 9.0864956729239708e+01,	 6.4496653832550328e+02,	 7.4667157276921389e+03,	 4.8734727864133487e+02,	 1.1417162869032178e+00 
4.1231180000000001e-01,	 6.9355370000000005e-01,	 1.1586407740517666e-02,	 1.0000000000000043e+03,	 5.3705680221802106e-12,	 2.9999999999999568e+02,	 9.9999999999959448e+02,	 3.3237670711487044e+02,	 3.0086344156914735e+00 
4.1899320000000001e-01,	 6.9436180000000003e-01,	 1.1586407740523760e-02,	 1.0000000000000053e+03,	 1.5264679861033403e-11,	 2.9999999999999523e+02,	 1.0000000000001189e+03,	 3.3237670711487021e+02,	 3.0086344156914788e+00 
4.2567100000000002e-01,	 6.9519569999999997e-01,	 1.1586407740521686e-02,	 9.9999999999999704e+02,	 1.6863108351145206e-11,	 2.9999999999999659e+02,	 9.9999999999994441e+02,	 3.3237670711487095e+02,	 3.0086344156914473e+00 
4.3234679999999998e-01,	 6.9605609999999996e-01,	 1.1586407740521906e-02,	 9.9999999999999568e+02,	 1.2188313071939533e-11,	 2.9999999999999977e+02,	 9.9999999999997397e+02,	 3.3237670711487272e+02,	 3.0086344156914273e+00 
4.3902200000000002e-01,	 6.9694339999999999e-01,	 1.1586407740521871e-02,	 9.9999999999999363e+02,	 5.6794745021559990e-12,	 3.0000000000000318e+02,	 9.9999999999998238e+02,	 3.3237670711487459e+02,	 3.0086344156914038e+00 
4.4608179999999997e-01,	 6.9791060000000005e-01,	 1.1586407740522230e-02,	 9.9999999999999341e+02,	 3.8968725836619817e-13,	 3.0000000000000580e+02,	 1.0000000000000221e+03,	 3.3237670711487607e+02,	 3.0086344156913900e+00 
4.5314539999999998e-01,	 6.9890730000000001e-01,	 1.1586407740522317e-02,	 9.9999999999999318e+02,	 -2.9272605678910989e-12,	 3.0000000000000739e+02,	 1.0000000000000349e+03,	 3.3237670711487692e+02,	 3.0086344156913816e+00 
4.6021459999999997e-01,	 6.9993450000000001e-01,	 1.1586407740522402e-02,	 9.9999999999999397e+02,	 -6.5568163696708980e-12,	 3.0000000000000773e+02,	 1.0000000000000434e+03,	 3.3237670711487709e+02,	 3.0086344156913825e+00 
4.6729070000000000e-01,	 7.0099060000000002e-01,	 1.1586407740522364e-02,	 9.9999999999999443e+02,	 -6.5320838134747261e-12,	 3.0000000000000711e+02,	 1.0000000000000380e+03,	 3.3237670711487675e+02,	 3.0086344156913869e+00 
4.7437530000000000e-01,	 7.0207540000000002e-01,	 1.1586407740522480e-02,	 9.9999999999999591e+02,	 -5.2906982746493080e-12,	 3.0000000000000637e+02,	 1.0000000000000455e+03,	 3.3237670711487635e+02,	 3.0086344156913949e+00 
4.8146990000000001e-01,	 7.0318760000000002e-01,	 1.1586407740522237e-02,	 9.9999999999999363e+02,	 -3.7264093485031792e-12,	 3.0000000000000597e+02,	 1.0000000000000233e+03,	 3.3237670711487613e+02,	 3.0086344156913900e+00 
4.8857719999999999e-01,	 7.0432729999999999e-01,	 1.1586407740519895e-02,	 9.9999999999998226e+02,	 -9.5699182627760528e-13,	 3.0000000000000784e+02,	 9.9999999999982742e+02,	 3.3237670711487715e+02,	 3.0086344156913465e+00 
4.9569910000000000e-01,	 7.0549269999999997e-01,	 1.1586407740538519e-02,	 1.0000000000000598e+03,	 -2.2749564168353095e-12,	 2.9999999999999943e+02,	 1.0000000000014068e+03,	 3.3237670711487249e+02,	 3.0086344156916223e+00 
5.0283829999999996e-01,	 7.0668290000000000e-01,	 1.1586407740394000e-02,	 1.0000000000024518e+03,	 -4.8727664220906598e-09,	 2.9999999999754243e+02,	 9.9999999998074350e+02,	 3.3237670711351143e+02,	 3.0086344157111387e+00 
5.0999760000000005e-01,	 7.0789599999999997e-01,	 1.1586407740648940e-02,	 9.9999999998414319e+02,	 1.7434897559018105e-09,	 3.0000000000638670e+02,	 1.0000000000322277e+03,	 3.3237670711841082e+02,	 3.0086344156117062e+00 
5.1718019999999998e-01,	 7.0912920000000002e-01,	 1.1586414223600214e-02,	 9.9999985340224566e+02,	 2.4883896417990229e-04,	 3.0000013379803050e+02,	 1.0000010055353615e+03,	 3.3237678123377924e+02,	 3.0086333037172071e+00 
5.2439040000000003e-01,	 7.1037580000000000e-01,	 1.7100846842299337e-02,	 8.4734000858116769e+02,	 2.4555101642608186e+01,	 4.0729918159935892e+02,	 2.0038310059825849e+03,	 3.8728147374336572e+02,	 2.1888362419764320e+00 
5.3163130000000003e-01,	 7.1162449999999999e-01,	 4.0237746071995546e-02,	 2.9826805006843449e+02,	 1.0770563516484876e+02,	 7.5542122060432359e+02,	 8.7448580361870754e+03,	 5.2742965405387474e+02,	 6.0125326271756530e-01 
5.3890610000000005e-01,	 7.1285929999999997e-01,	 4.2419855111293633e-02,	 2.6601413289924022e+02,	 1.1170818009370811e+02,	 7.6489301185367094e+02,	 9.3346881003779108e+03,	 5.3072592194696495e+02,	 5.4362768993501598e-01 
5.4621489999999995e-01,	 7.1405520000000000e-01,	 4.2430874683763789e-02,	 2.6651944739132455e+02,	 1.0963344620214505e+02,	 7.6606146834541653e+02,	 9.3513764551725417e+03,	 5.3113113776868329e+02,	 5.4259222726924305e-01 
5.5356130000000003e-01,	 7.1521590000000002e-01,	 4.2316226807917467e-02,	 2.7150165582050863e+02,	 1.0784681470145415e+02,	 7.6591202397308859e+02,	 9.3242897618169500e+03,	 5.3107932832891174e+02,	 5.5008184901611146e-01 
5.6093870000000001e-01,	 7.1629109999999996e-01,	 4.2260805229999872e-02,	 2.7922673057097938e+02,	 1.0679496638156581e+02,	 7.6384281092791673e+02,	 9.2869199214243617e+03,	 5.3036145247559080e+02,	 5.6367732574344420e-01 
5.6834490000000004e-01,	 7.1716950000000002e-01,	 4.2239327643337835e-02,	 2.9004201491086445e+02,	 1.0783410962763497e+02,	 7.6037377860333629e+02,	 9.2400445663300998e+03,	 5.2915574975330742e+02,	 5.8477889485855572e-01 
5.7576729999999998e-01,	 7.1757099999999996e-01,	 4.2539723797985769e-02,	 3.0552703309280542e+02,	 1.1261493092511364e+02,	 7.5390171169244218e+02,	 9.2265498517603992e+03,	 5.2689893194857154e+02,	 6.1799475680951610e-01 
5.8320190000000005e-01,	 7.1706199999999998e-01,	 4.2808555561887979e-02,	 3.2870298413709077e+02,	 1.1982368790394140e+02,	 7.4477612694411528e+02,	 9.1724691337961212e+03,	 5.2370030546612600e+02,	 6.6805751943892744e-01 
5.9036970000000000e-01,	 7.1859620000000002e-01,	 4.2852474353642506e-02,	 3.4181213129519040e+02,	 1.2088867273837562e+02,	 7.4002998756384341e+02,	 9.1233673033665455e+03,	 5.2202897963764678e+02,	 6.9452043515001805e-01 
5.9757769999999999e-01,	 7.2004100000000004e-01,	 4.2945161859368704e-02,	 3.5535303182487627e+02,	 1.2318373432744582e+02,	 7.3461973667841198e+02,	 9.0762567666261384e+03,	 5.2011724039867715e+02,	 7.2310312939449484e-01 
6.0481479999999999e-01,	 7.2141630000000001e-01,	 4.3049669206599084e-02,	 3.6889086177181798e+02,	 1.2526882211577242e+02,	 7.2902894916873868e+02,	 9.0291013995606318e+03,	 5.1813429703360441e+02,	 7.5189042591211730e-01 
6.1207950000000000e-01,	 7.2272069999999999e-01,	 4.3196324263163111e-02,	 3.8227394026441482e+02,	 1.2774557565157610e+02,	 7.2318380933990579e+02,	 8.9872210696393595e+03,	 5.1605299256749493e+02,	 7.8103164057291818e-01 
6.1936979999999997e-01,	 7.2395489999999996e-01,	 4.3287401408423055e-02,	 3.9671102729655058e+02,	 1.3018409696087406e+02,	 7.1662653426085421e+02,	 8.9245091153905614e+03,	 5.1370807899749866e+02,	 8.1276801210283722e-01 
6.2668369999999995e-01,	 7.2511919999999996e-01,	 4.3355375860554594e-02,	 4.1062151793512271e+02,	 1.3160758037674879e+02,	 7.1034576189535676e+02,	 8.8601828935051726e+03,	 5.1145196370058432e+02,	 8.4308345936284856e-01 
6.3401920000000000e-01,	 7.2621490000000000e-01,	 4.3428803890145973e-02,	 4.2370705289041007e+02,	 1.3258370300672098e+02,	 7.0429434626671070e+02,	 8.7995812938586732e+03,	 5.0926878166982186e+02,	 8.7177213513042395e-01 
6.4137370000000005e-01,	 7.2724480000000002e-01,	 4.3454707103880691e-02,	 4.3624106057685401e+02,	 1.3314904619207167e+02,	 6.9846151244569319e+02,	 8.7319098741623657e+03,	 5.0715556293555585e+02,	 8.9934627141014756e-01 
6.4874529999999997e-01,	 7.2821119999999995e-01,	 4.3452004330610139e-02,	 4.4796391991051541e+02,	 1.3324458445859639e+02,	 6.9294517640858942e+02,	 8.6624078490625088e+03,	 5.0514887666311733e+02,	 9.2519349122207695e-01 
6.5613169999999998e-01,	 7.2911709999999996e-01,	 4.3410761085406910e-02,	 4.5884576143048349e+02,	 1.3289864625003500e+02,	 6.8779518034605087e+02,	 8.5898675178596495e+03,	 5.0326823263780346e+02,	 9.4920433616397781e-01 
6.6353019999999996e-01,	 7.2996980000000000e-01,	 4.3341815897495028e-02,	 4.6876968982451808e+02,	 1.3213242539558559e+02,	 6.8308942808104575e+02,	 8.5175482906201432e+03,	 5.0154364922331564e+02,	 9.7107387095346120e-01 
6.7093899999999995e-01,	 7.3077369999999997e-01,	 4.3236665021635375e-02,	 4.7796616522894618e+02,	 1.3105587932505659e+02,	 6.7870197700466224e+02,	 8.4423089210650342e+03,	 4.9993035896416927e+02,	 9.9135409590142742e-01 
6.7835630000000002e-01,	 7.3153349999999995e-01,	 4.3091734003861966e-02,	 4.8653969705988891e+02,	 1.2951841417512733e+02,	 6.7459746398964296e+02,	 8.3631254624485209e+03,	 4.9841637895396701e+02,	 1.0101669630111134e+00 
6.8578130000000004e-01,	 7.3225110000000004e-01,	 4.2927642551437287e-02,	 4.9441942785850210e+02,	 1.2741513565716727e+02,	 6.7081079526336555e+02,	 8.2845136829307121e+03,	 4.9701554824450858e+02,	 1.0272785079820757e+00 
6.9321230000000000e-01,	 7.3293260000000005e-01,	 4.2779996497298377e-02,	 5.0111308030916911e+02,	 1.2486099630495548e+02,	 6.6766187116327706e+02,	 8.2172643294349655e+03,	 4.9584762932002786e+02,	 1.0415185320873186e+00 
7.0064830000000000e-01,	 7.3358120000000004e-01,	 4.2649052921739553e-02,	 5.0666791063819170e+02,	 1.2199679991248269e+02,	 6.6504339036826639e+02,	 8.1599840624375584e+03,	 4.9487434998567983e+02,	 1.0530922417933459e+00 
7.0808890000000002e-01,	 7.3419909999999999e-01,	 4.2504708610640887e-02,	 5.1145351313078464e+02,	 1.1931224870418602e+02,	 6.6285538366954938e+02,	 8.1056112083620210e+03,	 4.9405960580832237e+02,	 1.0630008582840229e+00 
7.1553330000000004e-01,	 7.3478779999999999e-01,	 4.2323193687139472e-02,	 5.1608977738218300e+02,	 1.1642635588002949e+02,	 6.6071283871100366e+02,	 8.0449086178069201e+03,	 4.9326048603675764e+02,	 1.0725759027469448e+00 
7.2298130000000005e-01,	 7.3534869999999997e-01,	 4.2087645484504596e-02,	 5.2093680080886293e+02,	 1.1354784196820316e+02,	 6.5840550243693394e+02,	 7.9721969604946435e+03,	 4.9239845255141518e+02,	 1.0827981581669532e+00 
7.3043219999999998e-01,	 7.3588410000000004e-01,	 4.1864610254012329e-02,	 5.2536767942826407e+02,	 1.1042709022698349e+02,	 6.5625794717446126e+02,	 7.9040843373941152e+03,	 4.9159475590820909e+02,	 1.0920531374556299e+00 
7.3788580000000004e-01,	 7.3639449999999995e-01,	 4.1643927320295468e-02,	 5.2956268250179642e+02,	 1.0718958467396000e+02,	 6.5419219952519438e+02,	 7.8376700874109983e+03,	 4.9082043300361318e+02,	 1.1008139737684068e+00 
7.4534199999999995e-01,	 7.3687990000000003e-01,	 4.1404438867023823e-02,	 5.3366072458328620e+02,	 1.0390939809075526e+02,	 6.5221610212998974e+02,	 7.7690578861884678e+03,	 4.9007856957919500e+02,	 1.1093787468562468e+00 
7.5280040000000004e-01,	 7.3734010000000005e-01,	 4.1150777371903889e-02,	 5.3761784843788519e+02,	 1.0057365388209534e+02,	 6.5039063977520698e+02,	 7.6998499798331886e+03,	 4.8939225806866142e+02,	 1.1175988981079208e+00 
7.6026099999999996e-01,	 7.3777369999999998e-01,	 4.0884082223578297e-02,	 5.4152499133446724e+02,	 9.7186757485492222e+01,	 6.4863731335086459e+02,	 7.6293250523112420e+03,	 4.8873215981399960e+02,	 1.1257226546403851e+00 
7.6808869999999996e-01,	 7.3824250000000002e-01,	 4.0607105903265217e-02,	 5.4541011411821410e+02,	 9.3660127558084085e+01,	 6.4691789710136879e+02,	 7.5575519599108447e+03,	 4.8808396117405562e+02,	 1.1338080858923649e+00 
7.7589609999999998e-01,	 7.3867989999999994e-01,	 4.0449871944844812e-02,	 5.4768108232495706e+02,	 9.0550758597071535e+01,	 6.4597682998082155e+02,	 7.5173371641540843e+03,	 4.8772882574347011e+02,	 1.1381656809962226e+00 
4.1238750000000002e-01,	 7.0046920000000001e-01,	 1.1586407740497837e-02,	 9.9999999999996817e+02,	 4.9250365444307482e-12,	 3.0000000000000671e+02,	 9.9999999999791987e+02,	 3.3237670711487658e+02,	 3.0086344156913092e+00 
4.1908119999999999e-01,	 7.0125919999999997e-01,	 1.1586407740520785e-02,	 9.9999999999999136e+02,	 9.6633561424126640e-12,	 3.0000000000000819e+02,	 9.9999999999990530e+02,	 3.3237670711487738e+02,	 3.0086344156913718e+00 
4.2577130000000002e-01,	 7.0207470000000005e-01,	 1.1586407740523108e-02,	 9.9999999999999375e+02,	 1.1397028907809585e-11,	 3.0000000000000955e+02,	 1.0000000000001104e+03,	 3.3237670711487812e+02,	 3.0086344156913722e+00 
4.3245939999999999e-01,	 7.0291610000000004e-01,	 1.1586407740522553e-02,	 9.9999999999999216e+02,	 6.0440790723837611e-12,	 3.0000000000001046e+02,	 1.0000000000000656e+03,	 3.3237670711487863e+02,	 3.0086344156913629e+00 
4.3914700000000001e-01,	 7.0378390000000002e-01,	 1.1586407740522893e-02,	 9.9999999999999216e+02,	 -1.8253353939034250e-12,	 3.0000000000001063e+02,	 1.0000000000000954e+03,	 3.3237670711487874e+02,	 3.0086344156913620e+00 
4.4622289999999998e-01,	 7.0473050000000004e-01,	 1.1586407740522714e-02,	 9.9999999999999375e+02,	 -1.7005598700047646e-12,	 3.0000000000000892e+02,	 1.0000000000000742e+03,	 3.3237670711487777e+02,	 3.0086344156913754e+00 
4.5330239999999999e-01,	 7.0570600000000006e-01,	 1.1586407740522605e-02,	 9.9999999999999386e+02,	 -2.2069971152123233e-12,	 3.0000000000000716e+02,	 1.0000000000000590e+03,	 3.3237670711487681e+02,	 3.0086344156913847e+00 
4.6038760000000001e-01,	 7.0671150000000005e-01,	 1.1586407740522633e-02,	 9.9999999999999523e+02,	 -4.8198759568957705e-13,	 3.0000000000000523e+02,	 1.0000000000000549e+03,	 3.3237670711487573e+02,	 3.0086344156913984e+00 
4.6747939999999999e-01,	 7.0774559999999997e-01,	 1.1586407740522499e-02,	 9.9999999999999557e+02,	 7.9017766620186946e-13,	 3.0000000000000387e+02,	 1.0000000000000389e+03,	 3.3237670711487499e+02,	 3.0086344156914060e+00 
4.7457949999999999e-01,	 7.0880770000000004e-01,	 1.1586407740522700e-02,	 9.9999999999999807e+02,	 -1.3871701006723243e-12,	 3.0000000000000284e+02,	 1.0000000000000529e+03,	 3.3237670711487442e+02,	 3.0086344156914189e+00 
4.8168960000000000e-01,	 7.0989679999999999e-01,	 1.1586407740522145e-02,	 9.9999999999999488e+02,	 -5.4570804087259467e-13,	 3.0000000000000159e+02,	 1.0000000000000007e+03,	 3.3237670711487374e+02,	 3.0086344156914153e+00 
4.8881210000000003e-01,	 7.1101309999999995e-01,	 1.1586407740520529e-02,	 9.9999999999998602e+02,	 -2.2406024428563266e-12,	 3.0000000000000239e+02,	 9.9999999999986380e+02,	 3.3237670711487414e+02,	 3.0086344156913851e+00 
4.9594890000000003e-01,	 7.1215450000000002e-01,	 1.1586407740532987e-02,	 1.0000000000000493e+03,	 1.2193091286787996e-12,	 2.9999999999999613e+02,	 1.0000000000009182e+03,	 3.3237670711487067e+02,	 3.0086344156916072e+00 
5.0310270000000001e-01,	 7.1332030000000002e-01,	 1.1586407740540060e-02,	 9.9999999999977501e+02,	 8.3900417215832832e-10,	 3.0000000000036368e+02,	 1.0000000000027538e+03,	 3.3237670711507428e+02,	 3.0086344156889386e+00 
5.1027630000000002e-01,	 7.1450860000000005e-01,	 1.1586407739568066e-02,	 1.0000000000124318e+03,	 -3.8409270052028135e-08,	 2.9999999998235836e+02,	 9.9999999985884529e+02,	 3.3237670710510002e+02,	 3.0086344158173040e+00 
5.1747259999999995e-01,	 7.1571660000000004e-01,	 1.1586405491958511e-02,	 1.0000000280175221e+03,	 -9.2258259238652690e-05,	 2.9999995743236434e+02,	 9.9999966403881183e+02,	 3.3237668353405439e+02,	 3.0086347134367175e+00 
5.2469610000000000e-01,	 7.1693759999999995e-01,	 1.5230334255376152e-02,	 8.6869119929128976e+02,	 3.0067212256382486e+01,	 4.0243765378643235e+02,	 1.7633478012574712e+03,	 3.8496323724403368e+02,	 2.2579075191543647e+00 
5.3194969999999997e-01,	 7.1816060000000004e-01,	 3.8271051644280601e-02,	 3.1725071804295885e+02,	 1.1626243593843947e+02,	 7.5295023593375163e+02,	 8.2902305328603161e+03,	 5.2656633564863944e+02,	 6.4167238149694938e-01 
5.3923659999999995e-01,	 7.1936970000000000e-01,	 4.2323757413919028e-02,	 2.6520969795848197e+02,	 1.1086975803171971e+02,	 7.6754824313135009e+02,	 9.3458721556283635e+03,	 5.3164629852137648e+02,	 5.4068158777761022e-01 
5.4655679999999995e-01,	 7.2054030000000002e-01,	 4.2445452022833299e-02,	 2.6891779657097436e+02,	 1.0614485404994122e+02,	 7.6681192628816495e+02,	 9.3637532174787666e+03,	 5.3139123048122315e+02,	 5.4405890484977049e-01 
5.5391389999999996e-01,	 7.2167599999999998e-01,	 4.2386437248333325e-02,	 2.7518952531610449e+02,	 1.0335469643099962e+02,	 7.6561159924390313e+02,	 9.3360970126090269e+03,	 5.3097516165764171e+02,	 5.5361963680926696e-01 
5.6130130000000000e-01,	 7.2272709999999996e-01,	 4.2328824136972906e-02,	 2.8158399214894041e+02,	 1.0124270352191182e+02,	 7.6415826947411938e+02,	 9.3057088172540934e+03,	 5.3047095784760381e+02,	 5.6408692678255878e-01 
5.6871700000000003e-01,	 7.2358420000000001e-01,	 4.2278345825630670e-02,	 2.8789041565118845e+02,	 1.0018573997688245e+02,	 7.6245617497375918e+02,	 9.2739085787243657e+03,	 5.2987984008729518e+02,	 5.7527129337848648e-01 
5.7614829999999995e-01,	 7.2397029999999996e-01,	 4.2302591963757644e-02,	 2.9514725005134625e+02,	 1.0165599631000721e+02,	 7.5966068031821101e+02,	 9.2452053906869405e+03,	 5.2890756354563541e+02,	 5.9020362963111184e-01 
5.8359130000000004e-01,	 7.2345729999999997e-01,	 4.2343422537509577e-02,	 3.0757487415447059e+02,	 1.0580527705464607e+02,	 7.5487527835099911e+02,	 9.1958334829830801e+03,	 5.2723903313314793e+02,	 6.1692056037167864e-01 
5.9075400000000000e-01,	 7.2495710000000002e-01,	 4.2327589835314761e-02,	 3.1782142788843078e+02,	 1.0667073293748228e+02,	 7.5101780966289823e+02,	 9.1454212321707146e+03,	 5.2589019246553551e+02,	 6.3748069197157786e-01 
5.9795600000000004e-01,	 7.2636950000000000e-01,	 4.2338043871879380e-02,	 3.2811575988678936e+02,	 1.0820184870289988e+02,	 7.4687726572635972e+02,	 9.0972465758706221e+03,	 5.2443850852807566e+02,	 6.5879249461498668e-01 
6.0518640000000001e-01,	 7.2771399999999997e-01,	 4.2372853205793634e-02,	 3.3878000853140821e+02,	 1.0992636684586732e+02,	 7.4238151365637577e+02,	 9.0499211390140881e+03,	 5.2285772384620395e+02,	 6.8119502206670857e-01 
6.1244390000000004e-01,	 7.2898920000000000e-01,	 4.2434442265500860e-02,	 3.5019501086648518e+02,	 1.1208987416081226e+02,	 7.3733050840730357e+02,	 9.0014119965112277e+03,	 5.2107598188937493e+02,	 7.0564844895349066e-01 
6.1972640000000001e-01,	 7.3019579999999995e-01,	 4.2491433511811685e-02,	 3.6279587933226355e+02,	 1.1430738817485633e+02,	 7.3168661425340053e+02,	 8.9445074542807142e+03,	 5.1907786363037587e+02,	 7.3279465175814174e-01 
6.2703200000000003e-01,	 7.3133389999999998e-01,	 4.2554232310054244e-02,	 3.7583214768083155e+02,	 1.1612987541952039e+02,	 7.2585877755898468e+02,	 8.8863789756303104e+03,	 5.1700652000133698e+02,	 7.6085096265945662e-01 