TITLE = "Final State"
VARIABLES = "X", "Y", "rho", "u", "v", "T", "p", "c", "M"
ZONE I=98, J=25, DATAPACKING=POINT
1.3750830000000001e+00,	 2.8192020000000001e-01,	 4.4321780794293893e-02,	 1.5959397475963963e+03,	 -2.4076702870982807e+01,	 5.8443518748244492e+02,	 7.4521827208144159e+03,	 4.6391469716746980e+02,	 3.4405492222242398e+00 
1.3782770000000000e+00,	 2.8188779999999997e-01,	 4.4357313384056532e-02,	 1.5964020603167801e+03,	 -1.9518224287221454e+01,	 5.8476810291812717e+02,	 7.4624055413429724e+03,	 4.6404680965729045e+02,	 3.4404317437021450e+00 
1.3814979999999999e+00,	 2.8185519999999997e-01,	 4.4339984249913714e-02,	 1.5970782688944746e+03,	 -1.4308793213951528e+01,	 5.8490058824099822e+02,	 7.4611802182851716e+03,	 4.6409937400655366e+02,	 3.4413801350523281e+00 
1.3847449999999999e+00,	 2.8182219999999997e-01,	 4.4276848640920394e-02,	 1.5978559695277593e+03,	 -9.4922582495592582e+00,	 5.8481713168457611e+02,	 7.4494931768639653e+03,	 4.6406626280946011e+02,	 3.4432241520085389e+00 
1.3880189999999999e+00,	 2.8178900000000001e-01,	 4.4179974020464724e-02,	 1.5987399053488166e+03,	 -5.0338885256586483e+00,	 5.8455537464044244e+02,	 7.4298672040271822e+03,	 4.6396239597475869e+02,	 3.4458564836321086e+00 
1.3913210000000000e+00,	 2.8175549999999999e-01,	 4.4051450630192848e-02,	 1.5997036910344546e+03,	 -8.5296016929564422e-01,	 5.8415448650464953e+02,	 7.4031724928476260e+03,	 4.6380327595961205e+02,	 3.4491000847791153e+00 
1.3946490000000000e+00,	 2.8172179999999997e-01,	 4.3905057465471312e-02,	 1.6007260716579342e+03,	 3.1903961118062325e+00,	 5.8366561249533083e+02,	 7.3723949738115170e+03,	 4.6360915879399658e+02,	 3.4527558842820834e+00 
1.3980060000000001e+00,	 2.8168769999999999e-01,	 4.3744203004122573e-02,	 1.6017973179888168e+03,	 7.1117596936704395e+00,	 5.8310940052378987e+02,	 7.3383849309666057e+03,	 4.6338820485909457e+02,	 3.4567412133749489e+00 
1.4013899999999999e+00,	 2.8165340000000000e-01,	 4.3571941428049647e-02,	 1.6029061167126488e+03,	 1.0938396562130688e+01,	 5.8250375533566717e+02,	 7.3018949092501443e+03,	 4.6314749381247589e+02,	 3.4609783277807824e+00 
1.4048030000000000e+00,	 2.8161880000000000e-01,	 4.3390165142806560e-02,	 1.6040470632315787e+03,	 1.4685567720373305e+01,	 5.8185894104851889e+02,	 7.2633831259638555e+03,	 4.6289107759915458e+02,	 3.4654249455295423e+00 
1.4082440000000001e+00,	 2.8158390000000000e-01,	 4.3199584145731072e-02,	 1.6052189900496608e+03,	 1.8357345097054900e+01,	 5.8117889791183211e+02,	 7.2230287034975590e+03,	 4.6262049833343826e+02,	 3.4700666313911133e+00 
1.4117139999999999e+00,	 2.8154869999999999e-01,	 4.2999984226877251e-02,	 1.6064227471232175e+03,	 2.1947414674142451e+01,	 5.8046284169582577e+02,	 7.1807971306223899e+03,	 4.6233541883157864e+02,	 3.4749071792256050e+00 
1.4152119999999999e+00,	 2.8151319999999996e-01,	 4.2790579231838419e-02,	 1.6076617095658532e+03,	 2.5442047273940570e+01,	 5.7970660551152923e+02,	 7.1365177743587055e+03,	 4.6203415172234241e+02,	 3.4799657287322612e+00 
1.4187399999999999e+00,	 2.8147739999999999e-01,	 4.2570084120696794e-02,	 1.6089426003822987e+03,	 2.8824137418326472e+01,	 5.7890305291323875e+02,	 7.0899028735930597e+03,	 4.6171381943171713e+02,	 3.4852774674155067e+00 
1.4222969999999999e+00,	 2.8144130000000001e-01,	 4.2337158355310954e-02,	 1.6102734850314373e+03,	 3.2073663168708180e+01,	 5.7804454477535887e+02,	 7.0406531448014957e+03,	 4.6137133364128755e+02,	 3.4908819856789219e+00 
1.4258830000000000e+00,	 2.8140490000000001e-01,	 4.2090410438155201e-02,	 1.6116620455723996e+03,	 3.5171637663108413e+01,	 5.7712298887766110e+02,	 6.9884598169282181e+03,	 4.6100341297259160e+02,	 3.4968196189581167e+00 
1.4295000000000000e+00,	 2.8136830000000002e-01,	 4.1828367563323476e-02,	 1.6131152660888119e+03,	 3.8102096588252941e+01,	 5.7612972159961964e+02,	 6.9329989354514682e+03,	 4.6060653327563966e+02,	 3.5031313631976162e+00 
1.4331460000000000e+00,	 2.8133130000000001e-01,	 4.1549948714549173e-02,	 1.6146395217245708e+03,	 4.0849245968112214e+01,	 5.7505792559686756e+02,	 6.8740394928100459e+03,	 4.6017789191443984e+02,	 3.5098517248746299e+00 
1.4368230000000000e+00,	 2.8129399999999999e-01,	 4.1254330618976938e-02,	 1.6162410496558632e+03,	 4.3400558352515048e+01,	 5.7390151589307766e+02,	 6.8114073575427856e+03,	 4.5971496291331084e+02,	 3.5170133404666704e+00 
1.4405310000000000e+00,	 2.8125639999999996e-01,	 4.0941023378159268e-02,	 1.6179252163270921e+03,	 4.5746559857607920e+01,	 5.7265617315605289e+02,	 6.7450096981115776e+03,	 4.5921591073400344e+02,	 3.5246423030586924e+00 
1.4442690000000000e+00,	 2.8121839999999998e-01,	 4.0609996883854929e-02,	 1.6196956322042658e+03,	 4.7880507509138603e+01,	 5.7131982910695956e+02,	 6.6748604627397881e+03,	 4.5867978721843957e+02,	 3.5327547251443661e+00 
1.4480390000000001e+00,	 2.8118019999999999e-01,	 4.0261514126375700e-02,	 1.6215541142560633e+03,	 4.9801457078663894e+01,	 5.6989168010929211e+02,	 6.6010398975164817e+03,	 4.5810613921193311e+02,	 3.5413598524989416e+00 
1.4518400000000000e+00,	 2.8114159999999999e-01,	 3.9896226684146344e-02,	 1.6235003146774327e+03,	 5.1510988545281009e+01,	 5.6837327212091384e+02,	 6.5237214195501720e+03,	 4.5749544774701263e+02,	 3.5504556307446498e+00 
1.4556730000000000e+00,	 2.8110279999999999e-01,	 3.9515107706240657e-02,	 1.6255325835015701e+03,	 5.3015834306850536e+01,	 5.6676757496828168e+02,	 6.4431479456597290e+03,	 4.5684876120101552e+02,	 3.5600335006017385e+00 
1.4595380000000000e+00,	 2.8106359999999997e-01,	 3.9119456845839951e-02,	 1.6276480301844276e+03,	 5.4324510269850833e+01,	 5.6507981682555658e+02,	 6.3596402508347555e+03,	 4.5616803674869584e+02,	 3.5700755341202144e+00 
1.4634339999999999e+00,	 2.8102400000000000e-01,	 3.8710904436332960e-02,	 1.6298430156153504e+03,	 5.5445744332909712e+01,	 5.6331653235511067e+02,	 6.2735845137860179e+03,	 4.5545576349811006e+02,	 3.5805581572292247e+00 
1.4673639999999999e+00,	 2.8098419999999996e-01,	 3.8291153871230235e-02,	 1.6321132145751917e+03,	 5.6390602159470376e+01,	 5.6148525413656250e+02,	 6.1853851351977737e+03,	 4.5471484330579619e+02,	 3.5914532251491975e+00 
1.4713259999999999e+00,	 2.8094399999999997e-01,	 3.7862210928944970e-02,	 1.6344524168829948e+03,	 5.7166880705372307e+01,	 5.5959554863636754e+02,	 6.0955115602879432e+03,	 4.5394901611990724e+02,	 3.6027214344002920e+00 
1.4753210000000001e+00,	 2.8090339999999997e-01,	 3.7426374599331270e-02,	 1.6368533990394551e+03,	 5.7779722279298852e+01,	 5.5765847169900371e+02,	 6.0044882842341112e+03,	 4.5316264776846299e+02,	 3.6143156998905752e+00 
1.4793499999999999e+00,	 2.8086259999999996e-01,	 3.6986254050795628e-02,	 1.6393074130753016e+03,	 5.8228233878994409e+01,	 5.5568760345188252e+02,	 5.9129062646592693e+03,	 4.5236115865601431e+02,	 3.6261760979160189e+00 
1.4834120000000000e+00,	 2.8082140000000000e-01,	 3.6545330511829427e-02,	 1.6418032537884519e+03,	 5.8501066252821595e+01,	 5.5370078968179553e+02,	 5.8215277811579854e+03,	 4.5155174508397084e+02,	 3.6382213156748402e+00 
1.4875090000000000e+00,	 2.8077979999999997e-01,	 3.6107883572955454e-02,	 1.6443267592923244e+03,	 5.8571730224926156e+01,	 5.5172430678064370e+02,	 5.7313124941309252e+03,	 4.5074509806949749e+02,	 3.6503327770145462e+00 
1.4916389999999999e+00,	 2.8073789999999998e-01,	 3.5680185772500962e-02,	 1.6468574202190207e+03,	 5.8380116677501661e+01,	 5.4979733787912528e+02,	 5.6436448615981299e+03,	 4.4995726662624315e+02,	 3.6623297094592937e+00 
1.4958039999999999e+00,	 2.8069569999999999e-01,	 3.5270511559420216e-02,	 1.6493662100124270e+03,	 5.7813586028364050e+01,	 5.4796842998440252e+02,	 5.5602873288522078e+03,	 4.4920824889437677e+02,	 3.6739733608523530e+00 
1.5000030000000000e+00,	 2.8065309999999999e-01,	 3.4910971306291512e-02,	 1.6517426872188571e+03,	 5.6986471105552354e+01,	 5.4643925496457939e+02,	 5.4882484079401002e+03,	 4.4858102486284912e+02,	 3.6843409398679965e+00 
1.5042380000000000e+00,	 2.8061009999999997e-01,	 4.7991798139402707e-02,	 1.4358075893724249e+03,	 2.1419728394125534e+02,	 8.2679840165661903e+02,	 1.1415543362794662e+04,	 5.5178484439675560e+02,	 2.6309111637688662e+00 
1.5085080000000000e+00,	 2.8056680000000001e-01,	 1.2137397054832452e-01,	 7.5208035417370536e+02,	 4.6215826247916584e+02,	 1.6541536691801643e+03,	 5.7760553924262138e+04,	 7.8047299346130035e+02,	 1.1310213558448081e+00 
1.5128140000000001e+00,	 2.8052309999999997e-01,	 1.6261184322489972e-01,	 5.4891583209194482e+02,	 3.1825839671114875e+02,	 1.8672533247475703e+03,	 8.7354513928444387e+04,	 8.2922344817397868e+02,	 7.6518014389117461e-01 
1.5171550000000000e+00,	 2.8047909999999998e-01,	 1.5166218533848580e-01,	 6.0535921834764031e+02,	 2.1220328809616396e+02,	 1.8597561930656484e+03,	 8.1145279524577069e+04,	 8.2755708344919299e+02,	 7.7514275513671060e-01 
1.5215330000000000e+00,	 2.8043469999999998e-01,	 1.4164401437079127e-01,	 6.2340417228807485e+02,	 1.1684815872352237e+02,	 1.8764212517479866e+03,	 7.6464263040073522e+04,	 8.3125663544830775e+02,	 7.6301393857647892e-01 
1.5259480000000001e+00,	 2.8038989999999997e-01,	 1.3607693397617290e-01,	 6.2746542557177099e+02,	 3.5195031894064371e+01,	 1.8951150477609376e+03,	 7.4190796378732819e+04,	 8.3538705951725638e+02,	 7.5228805839233259e-01 
1.5303990000000001e+00,	 2.8034470000000000e-01,	 1.3438185693311164e-01,	 6.2799366684816584e+02,	 -3.4508236490502391e+01,	 1.8997265450535992e+03,	 7.3444903863971165e+04,	 8.3640284071080691e+02,	 7.5195950441389914e-01 
1.5348880000000000e+00,	 2.8029919999999997e-01,	 1.3491408292602647e-01,	 6.0660797143310606e+02,	 -8.6726905508169096e+01,	 1.9096864689453805e+03,	 7.4122369476355569e+04,	 8.3859252910266241e+02,	 7.3071995429252601e-01 
1.5394140000000001e+00,	 2.8025329999999998e-01,	 1.3606200762749016e-01,	 5.6227897436260116e+02,	 -1.1477523473209146e+02,	 1.9366215123488976e+03,	 7.5807393423362373e+04,	 8.4448575745595429e+02,	 6.7955400549204703e-01 
1.5439780000000001e+00,	 2.8020699999999998e-01,	 1.3668206970937880e-01,	 5.0628376618927643e+02,	 -1.2243218497257951e+02,	 1.9786065558581533e+03,	 7.7803821296973532e+04,	 8.5359070134047113e+02,	 6.1021873851922381e-01 
1.5485800000000001e+00,	 2.8016029999999997e-01,	 1.3666538530645278e-01,	 4.4726961027365837e+02,	 -1.1626388178727220e+02,	 2.0320440050473308e+03,	 7.9895363351259773e+04,	 8.6504063315856627e+02,	 5.3423331437008514e-01 
1.5532210000000000e+00,	 2.8011330000000001e-01,	 1.3502262397765416e-01,	 3.9077911044991959e+02,	 -1.0349118247679326e+02,	 2.0957274562730354e+03,	 8.1408787096378117e+04,	 8.7849107799645924e+02,	 4.6016498703303327e-01 
1.5579000000000001e+00,	 2.8006579999999998e-01,	 1.3245390413120783e-01,	 3.4154495508261436e+02,	 -8.8956352578017956e+01,	 2.1667569929210777e+03,	 8.2566696380580892e+04,	 8.9325417963629820e+02,	 3.9511637788622200e-01 
1.5626180000000001e+00,	 2.8001789999999999e-01,	 1.2861391040732084e-01,	 3.0218355176661657e+02,	 -7.6636929790908638e+01,	 2.2523915374168319e+03,	 8.3341587223904542e+04,	 9.1073472736115218e+02,	 3.4230613985972158e-01 
1.5673760000000001e+00,	 2.7996969999999999e-01,	 1.2255422378537909e-01,	 2.7194932110123864e+02,	 -6.8251509261402020e+01,	 2.3776670826214968e+03,	 8.3831891717858496e+04,	 9.3571906070924535e+02,	 2.9964456817478047e-01 
1.5721740000000000e+00,	 2.7992099999999998e-01,	 1.1335402158538167e-01,	 2.4827145142380408e+02,	 -6.3777033945956362e+01,	 2.5797752335907512e+03,	 8.4129583578392558e+04,	 9.7467738202565204e+02,	 2.6299189576647092e-01 
1.5770120000000001e+00,	 2.7987190000000001e-01,	 1.0181328089698705e-01,	 2.2830838408568809e+02,	 -6.2352005152374147e+01,	 2.8755505990018419e+03,	 8.4227785817728873e+04,	 1.0290357442678956e+03,	 2.2999160406460609e-01 
1.5818900000000000e+00,	 2.7982239999999997e-01,	 9.0930011938035363e-02,	 2.1011879379185126e+02,	 -6.3132691362073771e+01,	 3.2123075225662406e+03,	 8.4033857578945157e+04,	 1.0876233202445871e+03,	 2.0172275152236402e-01 
1.5868100000000001e+00,	 2.7977249999999998e-01,	 8.3689905663638417e-02,	 1.9340817722447542e+02,	 -6.5602066620352730e+01,	 3.4735706987930475e+03,	 8.3633285544079772e+04,	 1.1309880726055644e+03,	 1.8057761546297435e-01 
1.5917699999999999e+00,	 2.7972219999999998e-01,	 8.0620750744691189e-02,	 1.7985567398926483e+02,	 -6.9301015796925199e+01,	 3.5864044373015072e+03,	 8.3183279547496117e+04,	 1.1492104994573158e+03,	 1.6771962468473695e-01 
1.5967720000000001e+00,	 2.7967149999999996e-01,	 8.0182779149984729e-02,	 1.7277044999157926e+02,	 -7.2959661494628932e+01,	 3.5840879396213882e+03,	 8.2677949931423485e+04,	 1.1488392957185492e+03,	 1.6324647882887872e-01 
1.6018150000000000e+00,	 2.7962029999999999e-01,	 8.0691849825461154e-02,	 1.7566282584629994e+02,	 -7.4037482095549521e+01,	 3.5367276349732583e+03,	 8.2103415653360018e+04,	 1.1412236457356667e+03,	 1.6703811786999420e-01 
1.6069009999999999e+00,	 2.7956870000000000e-01,	 8.1056002985697831e-02,	 1.9097640336006356e+02,	 -6.9494063041645177e+01,	 3.4935931502198264e+03,	 8.1468073958376859e+04,	 1.1342430249973931e+03,	 1.7917455292875337e-01 
1.6120300000000001e+00,	 2.7951670000000001e-01,	 8.0718856838938147e-02,	 2.1869360786002466e+02,	 -5.7410904055219348e+01,	 3.4807388802805140e+03,	 8.0830708321687795e+04,	 1.1321544443652722e+03,	 1.9971104799219422e-01 
1.6172010000000001e+00,	 2.7946420000000000e-01,	 7.9903836109101539e-02,	 2.5561390554791745e+02,	 -3.8565885953730685e+01,	 3.4920603082860634e+03,	 8.0274813041064393e+04,	 1.1339941685984488e+03,	 2.2796136557677357e-01 
1.6224160000000001e+00,	 2.7941129999999997e-01,	 7.9456680624337417e-02,	 2.9603655043494973e+02,	 -1.6341096278797210e+01,	 3.4949727773873856e+03,	 7.9892158116848484e+04,	 1.1344669603507989e+03,	 2.6134495641724986e-01 
1.6276740000000001e+00,	 2.7935800000000000e-01,	 8.0111966665152801e-02,	 3.3389093087205868e+02,	 4.0306374289526223e+00,	 3.4610799205788053e+03,	 7.9769883652291304e+04,	 1.1289527543111330e+03,	 2.9577434225790472e-01 
1.6329769999999999e+00,	 2.7930420000000000e-01,	 8.1981210678327601e-02,	 3.6305874493051562e+02,	 1.7322177264421839e+01,	 3.3889207115399640e+03,	 7.9929238077025133e+04,	 1.1171221361242733e+03,	 3.2536437528638379e-01 
1.6383230000000000e+00,	 2.7925000000000000e-01,	 8.4533285223806681e-02,	 3.8106011805449526e+02,	 2.1215476553792350e+01,	 3.3013694644367697e+03,	 8.0288217256030344e+04,	 1.1025975384196454e+03,	 3.4613740042742314e-01 
1.6437150000000000e+00,	 2.7919529999999998e-01,	 8.7143592838789974e-02,	 3.9091061425711086e+02,	 1.6557239350326157e+01,	 3.2222748662510467e+03,	 8.0784489103606596e+04,	 1.0893093853347693e+03,	 3.5918271521660144e-01 
1.6491510000000000e+00,	 2.7914010000000000e-01,	 8.9434579166578834e-02,	 3.9700675379955226e+02,	 6.2798937378168773e+00,	 3.1618878444519987e+03,	 8.1354553563507565e+04,	 1.0790540125726575e+03,	 3.6796713980007528e-01 
1.6546339999999999e+00,	 2.7908450000000001e-01,	 9.1394454410442055e-02,	 4.0364270529927330e+02,	 -5.2042024178192863e+00,	 3.1159121732407884e+03,	 8.1928497437625352e+04,	 1.0711802519497880e+03,	 3.7685184384224973e-01 
1.6601619999999999e+00,	 2.7902840000000001e-01,	 9.3162529784745512e-02,	 4.1319993984194389e+02,	 -1.3226117879288633e+01,	 3.0748464266418778e+03,	 8.2412794434314608e+04,	 1.0640981017580930e+03,	 3.8850888126427052e-01 
1.6657360000000001e+00,	 2.7897189999999999e-01,	 9.4813983181887093e-02,	 4.2456481508174215e+02,	 -1.5009956065922420e+01,	 3.0344639642982575e+03,	 8.2772164798696089e+04,	 1.0570875204730532e+03,	 4.0188731119693077e-01 
1.6713570000000000e+00,	 2.7891489999999997e-01,	 9.6307275780301099e-02,	 4.3345055636165489e+02,	 -1.1057259941978963e+01,	 2.9966618587783360e+03,	 8.3028420460964408e+04,	 1.0504825043201545e+03,	 4.1275467813954897e-01 
1.6770250000000000e+00,	 2.7885739999999998e-01,	 9.7428014355363676e-02,	 4.3479321033271651e+02,	 -4.5885913933584161e+00,	 2.9698262543151850e+03,	 8.3242445636365708e+04,	 1.0457683038576033e+03,	 4.1578753239206639e-01 
1.6827410000000000e+00,	 2.7879939999999998e-01,	 9.7769934069850378e-02,	 4.2549254089715760e+02,	 1.1611397737237756e+00,	 2.9671630148666218e+03,	 8.3459670686200494e+04,	 1.0452992939147130e+03,	 4.0705482889580025e-01 
1.6885049999999999e+00,	 2.7874090000000001e-01,	 9.6897506374066120e-02,	 4.0556856390172641e+02,	 4.9206566271075891e+00,	 3.0023053945395041e+03,	 8.3694593590280216e+04,	 1.0514712123003585e+03,	 3.8574371658899292e-01 
1.6943170000000001e+00,	 2.7868199999999999e-01,	 9.4612794141391690e-02,	 3.7725632897362811e+02,	 7.1099040576646537e+00,	 3.0831987167993607e+03,	 8.3923062270432856e+04,	 1.0655423411779611e+03,	 3.5411386887866203e-01 
1.7001770000000000e+00,	 2.7862250000000000e-01,	 9.1294709161749227e-02,	 3.4367097921780061e+02,	 8.7106604243193910e+00,	 3.2017846947098265e+03,	 8.4094515184882039e+04,	 1.0858404490516696e+03,	 3.1660392803321907e-01 
1.7060869999999999e+00,	 2.7856259999999999e-01,	 8.7952984349115457e-02,	 3.0817792583936864e+02,	 1.0247846603190595e+01,	 3.3263832724947583e+03,	 8.4169123699912481e+04,	 1.1067667351942068e+03,	 2.7860275781739463e-01 
1.7120460000000000e+00,	 2.7850209999999997e-01,	 8.5624415963855074e-02,	 2.7397513304505401e+02,	 1.1651639697671401e+01,	 3.4160090619104535e+03,	 8.4148537782006388e+04,	 1.1215779449589465e+03,	 2.4449730253208740e-01 
1.7180550000000001e+00,	 2.7844120000000000e-01,	 8.4608835530198018e-02,	 2.4352875053604919e+02,	 1.2621772266307438e+01,	 3.4532466102883327e+03,	 8.4056876827390457e+04,	 1.1276744760219738e+03,	 2.1624646227451075e-01 
1.7241139999999999e+00,	 2.7837970000000001e-01,	 8.4460645281289035e-02,	 2.1824570999940556e+02,	 1.2974556098547303e+01,	 3.4537582402591838e+03,	 8.3922085300476057e+04,	 1.1277580105556765e+03,	 1.9386342812840257e-01 
1.7302249999999999e+00,	 2.7831770000000000e-01,	 8.4586818708929284e-02,	 1.9825832250155071e+02,	 1.3033630017133774e+01,	 3.4419618083621444e+03,	 8.3760387172963194e+04,	 1.1258304147683384e+03,	 1.7647975896369311e-01 
1.7363860000000000e+00,	 2.7825519999999998e-01,	 8.4682173441744404e-02,	 1.8274913065742589e+02,	 1.2999115884263347e+01,	 3.4310728117046592e+03,	 8.3589527038611574e+04,	 1.1240481644919430e+03,	 1.6299200758555746e-01 
1.7425990000000000e+00,	 2.7819220000000000e-01,	 8.4722993470827151e-02,	 1.7094205728122245e+02,	 1.3014019828689069e+01,	 3.4237842589389697e+03,	 8.3452167376291996e+04,	 1.1228536343376350e+03,	 1.5267949679121681e-01 
1.7488640000000000e+00,	 2.7812860000000000e-01,	 8.4640526365406477e-02,	 1.6182302936100035e+02,	 1.3115476463963194e+01,	 3.4209483948719953e+03,	 8.3301882486028713e+04,	 1.1223885174269296e+03,	 1.4465013692512874e-01 
1.7551820000000000e+00,	 2.7806460000000000e-01,	 8.4467830100589836e-02,	 1.5436537558898209e+02,	 1.3018612530180393e+01,	 3.4223106733594641e+03,	 8.3165022033462417e+04,	 1.1226119720609711e+03,	 1.3799369495787825e-01 
1.7615529999999999e+00,	 2.7799989999999997e-01,	 8.4196464708533730e-02,	 1.4795130125948674e+02,	 1.2439175709953872e+01,	 3.4276380448847590e+03,	 8.3026885796661431e+04,	 1.1234853944364440e+03,	 1.3215418744379814e-01 
1.7679769999999999e+00,	 2.7793479999999998e-01,	 8.3846382371061484e-02,	 1.4200816597850084e+02,	 1.1161402607403019e+01,	 3.4356825050699849e+03,	 8.2875715371835366e+04,	 1.1248029981050197e+03,	 1.2664094669367643e-01 
1.7744549999999999e+00,	 2.7786909999999998e-01,	 8.3444317273860091e-02,	 1.3614213412759997e+02,	 9.1060188724113171e+00,	 3.4450566702528586e+03,	 8.2703344659510272e+04,	 1.1263364498381097e+03,	 1.2114171341317144e-01 
1.7809870000000001e+00,	 2.7780280000000002e-01,	 8.3012658759393010e-02,	 1.3014546859189863e+02,	 6.3448233206892235e+00,	 3.4546469412622296e+03,	 8.2504555939342186e+04,	 1.1279030952925239e+03,	 1.1552414215798627e-01 
1.7875740000000000e+00,	 2.7773599999999998e-01,	 8.2571835051856335e-02,	 1.2393083674008489e+02,	 3.1618155305180133e+00,	 3.4636669561249901e+03,	 8.2280704247230286e+04,	 1.1293746017412925e+03,	 1.0976974626544457e-01 
1.7942160000000000e+00,	 2.7766859999999999e-01,	 8.2132320193952044e-02,	 1.1751979977904919e+02,	 -7.3685445891852441e-02,	 3.4718897342718465e+03,	 8.2037034462952113e+04,	 1.1307143800496324e+03,	 1.0393413664239620e-01 
1.8009139999999999e+00,	 2.7760059999999998e-01,	 8.1696260342251914e-02,	 1.1098180665787461e+02,	 -2.9851744690051265e+00,	 3.4794158000391421e+03,	 8.1778369219302462e+04,	 1.1319392496033918e+03,	 9.8081188419510787e-02 
1.8076690000000000e+00,	 2.7753210000000000e-01,	 8.1263297130894141e-02,	 1.0435356063033419e+02,	 -5.2690528346779573e+00,	 3.4862928936102830e+03,	 8.1505749853177665e+04,	 1.1330573409543465e+03,	 9.2216426754349726e-02 
1.8144790000000000e+00,	 2.7746300000000002e-01,	 8.0845577929753359e-02,	 9.7600810731023657e+01,	 -6.7617014283782524e+00,	 3.4917787082488112e+03,	 8.1214377511184153e+04,	 1.1339484449840286e+03,	 8.6277954931776576e-02 
1.8213470000000000e+00,	 2.7739340000000001e-01,	 8.0506662261618844e-02,	 9.0634459955034345e+01,	 -7.4343966353782953e+00,	 3.4926728696851287e+03,	 8.0894625670345122e+04,	 1.1340936242969622e+03,	 8.0186374695245574e-02 
1.8282730000000000e+00,	 2.7732309999999999e-01,	 8.0439555254411432e-02,	 8.3326348176893944e+01,	 -7.3389998931583209e+00,	 3.4800556885476853e+03,	 8.0535209335078966e+04,	 1.1320433305269221e+03,	 7.3891974074135475e-02 
1.8352569999999999e+00,	 2.7725230000000001e-01,	 8.1063416801388705e-02,	 7.5554411361544993e+01,	 -6.5304529022475837e+00,	 3.4357609595714603e+03,	 8.0126797115211215e+04,	 1.1248158405831259e+03,	 6.7420913999194851e-02 
1.8422989999999999e+00,	 2.7718080000000000e-01,	 8.4326133601937109e-02,	 6.6758914253446122e+01,	 -4.4320300194252713e+00,	 3.2837209044565566e+03,	 7.9663312938728355e+04,	 1.0996464396075630e+03,	 6.0843074830664423e-02 
1.8493999999999999e+00,	 2.7710879999999999e-01,	 8.7153835011026318e-02,	 5.8550198641755564e+01,	 -2.7311623459472116e+00,	 3.1512656743886128e+03,	 7.9013528844099841e+04,	 1.0772399795673391e+03,	 5.4411147686862400e-02 
1.3750840000000000e+00,	 2.8275859999999997e-01,	 4.3931608580756509e-02,	 1.5967940246119431e+03,	 -2.5438784320658122e+01,	 5.8210590919988158e+02,	 7.3571405185049534e+03,	 4.6298930349000744e+02,	 3.4493165056200721e+00 
1.3782779999999999e+00,	 2.8272749999999996e-01,	 4.3998703151919255e-02,	 1.5971985557528412e+03,	 -2.0475250305809801e+01,	 5.8262005215770819e+02,	 7.3748848073617482e+03,	 4.6319372518268312e+02,	 3.4485134502469288e+00 
1.3814979999999999e+00,	 2.8269620000000001e-01,	 4.4025389584030107e-02,	 1.5977931994899145e+03,	 -1.4750633199226378e+01,	 5.8298312541256792e+02,	 7.3839564979919078e+03,	 4.6333802768368741e+02,	 3.4485865407084164e+00 
1.3847460000000000e+00,	 2.8266459999999999e-01,	 4.3995520572245039e-02,	 1.5985196353439371e+03,	 -9.5768745235293586e+00,	 5.8307578628821932e+02,	 7.3801196842928584e+03,	 4.6337484830477285e+02,	 3.4497951904205930e+00 
1.3880200000000000e+00,	 2.8263279999999996e-01,	 4.3925517113585430e-02,	 1.5993591217215730e+03,	 -4.8035471791791000e+00,	 5.8294285609868939e+02,	 7.3666969594182110e+03,	 4.6332202496776813e+02,	 3.4519540385575493e+00 
1.3913210000000000e+00,	 2.8260069999999998e-01,	 4.3819999751740508e-02,	 1.6002904777416411e+03,	 -3.2619446507440797e-01,	 5.8264288598516168e+02,	 7.3452191254325908e+03,	 4.6320280175148110e+02,	 3.4548377188898818e+00 
1.3946499999999999e+00,	 2.8256840000000000e-01,	 4.3689256271574925e-02,	 1.6012917988913578e+03,	 3.8893418160106554e+00,	 5.8222235746796264e+02,	 7.3180179028499842e+03,	 4.6303561087634966e+02,	 3.4582578200009242e+00 
1.3980060000000001e+00,	 2.8253570000000000e-01,	 4.3539995993254983e-02,	 1.6023460702310722e+03,	 7.9345340259426198e+00,	 5.8171120651997012e+02,	 7.2866138117253076e+03,	 4.6283230963015166e+02,	 3.4620869847977787e+00 
1.4013910000000001e+00,	 2.8250280000000000e-01,	 4.3376709787628871e-02,	 1.6034415353128354e+03,	 1.1853560403278212e+01,	 5.8113689898145731e+02,	 7.2521202367839214e+03,	 4.6260378238142960e+02,	 3.4662175493283760e+00 
1.4048030000000000e+00,	 2.8246969999999999e-01,	 4.3202407029610611e-02,	 1.6045720881721982e+03,	 1.5673194582488939e+01,	 5.8051555185752829e+02,	 7.2152559332243973e+03,	 4.6235641003008845e+02,	 3.4705880531153821e+00 
1.4082440000000001e+00,	 2.8243619999999997e-01,	 4.3018584565729892e-02,	 1.6057352245885577e+03,	 1.9407086411489878e+01,	 5.7985529415361236e+02,	 7.1763841926008117e+03,	 4.6209340137153561e+02,	 3.4751686425150905e+00 
1.4117139999999999e+00,	 2.8240250000000000e-01,	 4.2825620737058707e-02,	 1.6069304977042168e+03,	 2.3056505831069252e+01,	 5.7915837338714687e+02,	 7.1356073429111357e+03,	 4.6181562576647900e+02,	 3.4799513243261466e+00 
1.4152130000000001e+00,	 2.8236849999999997e-01,	 4.2623091286992106e-02,	 1.6081597935000477e+03,	 2.6612944365853657e+01,	 5.7842285502435686e+02,	 7.0928426665440893e+03,	 4.6152228477228425e+02,	 3.4849454430052451e+00 
1.4187399999999999e+00,	 2.8233419999999998e-01,	 4.2410032167791566e-02,	 1.6094281868278704e+03,	 3.0061768170835158e+01,	 5.7764357270887876e+02,	 7.0478797365361488e+03,	 4.6121128619201926e+02,	 3.4901767703881368e+00 
1.4222969999999999e+00,	 2.8229959999999998e-01,	 4.2185177820042233e-02,	 1.6107429062575334e+03,	 3.3384907747489038e+01,	 5.7681339125562749e+02,	 7.0004370707578646e+03,	 4.6087974374646996e+02,	 3.4956816078543009e+00 
1.4258839999999999e+00,	 2.8226469999999998e-01,	 4.1947105412500366e-02,	 1.6121117089186732e+03,	 3.6563912409149239e+01,	 5.7592415032408530e+02,	 6.9501987686134198e+03,	 4.6052435046421624e+02,	 3.5015006319868669e+00 
1.4295000000000000e+00,	 2.8222959999999997e-01,	 4.1694356564764980e-02,	 1.6135421111195355e+03,	 3.9581592555834249e+01,	 5.7496728178366311e+02,	 6.8968430931125085e+03,	 4.6014162259192608e+02,	 3.5076755596969416e+00 
1.4331469999999999e+00,	 2.8219410000000000e-01,	 4.1425688001849599e-02,	 1.6150413484363057e+03,	 4.2421652329955648e+01,	 5.7393508800474410e+02,	 6.8400998887244568e+03,	 4.5972840892794926e+02,	 3.5142452747736650e+00 
1.4368240000000001e+00,	 2.8215839999999998e-01,	 4.1140145276114815e-02,	 1.6166164276433560e+03,	 4.5069958733154458e+01,	 5.7282094492906697e+02,	 6.7797651119434495e+03,	 4.5928197164564580e+02,	 3.5212454710989496e+00 
1.4405310000000000e+00,	 2.8212229999999999e-01,	 4.0837127282008369e-02,	 1.6182732895610070e+03,	 4.7515039291590227e+01,	 5.7161994850783162e+02,	 6.7157187159653986e+03,	 4.5880024569224929e+02,	 3.5287049483629640e+00 
1.4442699999999999e+00,	 2.8208600000000000e-01,	 4.0516387885441651e-02,	 1.6200161209408159e+03,	 4.9749143916613086e+01,	 5.7032884908995948e+02,	 6.6479232647664603e+03,	 4.5828181417653087e+02,	 3.5366444076196815e+00 
1.4480390000000001e+00,	 2.8204940000000001e-01,	 4.0178049186398147e-02,	 1.6218470908408494e+03,	 5.1768586841795148e+01,	 5.6894625695123386e+02,	 6.5764273702240507e+03,	 4.5772599335095407e+02,	 3.5450752598526374e+00 
1.4518409999999999e+00,	 2.8201240000000000e-01,	 3.9822643069584301e-02,	 1.6237661083526921e+03,	 5.3573351789975561e+01,	 5.6747296911075182e+02,	 6.5013747161396450e+03,	 4.5713296785528564e+02,	 3.5539979879261727e+00 
1.4556730000000000e+00,	 2.8197509999999998e-01,	 3.9451038802013533e-02,	 1.6257718320147148e+03,	 5.5167524821541157e+01,	 5.6591133590910374e+02,	 6.4229830250053401e+03,	 4.5650354067123089e+02,	 3.5634062414849397e+00 
1.4595380000000000e+00,	 2.8193760000000001e-01,	 3.9064446758115101e-02,	 1.6278617528858665e+03,	 5.6558203011979160e+01,	 5.6426599936611569e+02,	 6.3415511184311126e+03,	 4.5583943602684553e+02,	 3.5732844791422727e+00 
1.4634350000000000e+00,	 2.8189969999999998e-01,	 3.8664496399415937e-02,	 1.6300321399913737e+03,	 5.7752352193306209e+01,	 5.6254383118373016e+02,	 6.2574683549952733e+03,	 4.5514328201516128e+02,	 3.5836075628165731e+00 
1.4673639999999999e+00,	 2.8186149999999999e-01,	 3.8252984908202524e-02,	 1.6322786757190183e+03,	 5.8758451417270024e+01,	 5.6075278178937401e+02,	 6.1711585331724036e+03,	 4.5441815275123867e+02,	 3.5943456728309897e+00 
1.4713270000000001e+00,	 2.8182299999999999e-01,	 3.7832074710115335e-02,	 1.6345949459025608e+03,	 5.9582377852242509e+01,	 5.5890332624776704e+02,	 6.0831256957486485e+03,	 4.5366816067859821e+02,	 3.6054557965868628e+00 
1.4753220000000000e+00,	 2.8178409999999998e-01,	 3.7404364023953335e-02,	 1.6369729206420450e+03,	 6.0224525607877609e+01,	 5.5700872471366165e+02,	 5.9939651041398620e+03,	 4.5289857316451878e+02,	 3.6168813032430776e+00 
1.4793510000000001e+00,	 2.8174499999999997e-01,	 3.6972975579046864e-02,	 1.6394026619879862e+03,	 6.0677801784684462e+01,	 5.5508587692770743e+02,	 5.9043829722835108e+03,	 4.5211617259437776e+02,	 3.6285478927565715e+00 
1.4834130000000001e+00,	 2.8170550000000000e-01,	 3.6542041564136409e-02,	 1.6418711540230320e+03,	 6.0920426521903806e+01,	 5.5315920139717605e+02,	 5.8153101984449604e+03,	 4.5133085415316526e+02,	 3.6403471069560278e+00 
1.4875090000000000e+00,	 2.8166569999999996e-01,	 3.6117354130182994e-02,	 1.6443606334139902e+03,	 6.0907479773750339e+01,	 5.5126236912249260e+02,	 5.7280158642576744e+03,	 4.5055636274138902e+02,	 3.6521252302221039e+00 
1.4916389999999999e+00,	 2.8162549999999997e-01,	 3.5707202963474065e-02,	 1.6468454171479107e+03,	 6.0553462033868001e+01,	 5.4944669131864975e+02,	 5.6443161573160360e+03,	 4.4981375817192975e+02,	 3.6636458253953710e+00 
1.4958039999999999e+00,	 2.8158499999999997e-01,	 3.5322887044155607e-02,	 1.6492889862066445e+03,	 5.9717730748995756e+01,	 5.4779087296779437e+02,	 5.5667397991952912e+03,	 4.4913546501275817e+02,	 3.6745478712531265e+00 
1.5000039999999999e+00,	 2.8154419999999997e-01,	 3.4985936562129685e-02,	 1.6516066830395362e+03,	 5.8211329169318162e+01,	 5.4642767127361026e+02,	 5.4999168770576362e+03,	 4.4857627021587075e+02,	 3.6841721497390960e+00 