TITLE = "Final State"
VARIABLES = "X", "Y", "rho", "u", "v", "T", "p", "c", "M"
ZONE I=51, J=48, DATAPACKING=POINT
4.1887890000000000e-01,	 3.6451889999999998e-01,	 4.0651039843296398e-02,	 3.4167067314920990e+02,	 2.2861758922892324e+02,	 7.1322236449062541e+02,	 8.3411618755765048e+03,	 5.1248650043805958e+02,	 8.0217136549455281e-01 
4.2479370000000000e-01,	 3.6640060000000002e-01,	 4.0533193718789780e-02,	 3.4211711008608893e+02,	 2.3034168151552439e+02,	 7.1254579663416030e+02,	 8.3090915537381534e+03,	 5.1224336857803200e+02,	 8.0515150393364854e-01 
4.3068909999999999e-01,	 3.6833670000000002e-01,	 4.0368657744359604e-02,	 3.4305815163977684e+02,	 2.3246014869839419e+02,	 7.1168562228172937e+02,	 8.2653726535658388e+03,	 5.1193408904311241e+02,	 8.0947745296348539e-01 
4.3656909999999999e-01,	 3.7032739999999997e-01,	 4.0190726082104403e-02,	 3.4424695412902645e+02,	 2.3465254216508902e+02,	 7.1072813833582416e+02,	 8.2178706194377683e+03,	 5.1158960151068436e+02,	 8.1435327462551432e-01 
4.4243710000000003e-01,	 3.7237250000000000e-01,	 3.9998824634879873e-02,	 3.4569241497346479e+02,	 2.3692438025780348e+02,	 7.0967216016735574e+02,	 8.1664806206538378e+03,	 5.1120940813305373e+02,	 8.1980098376659272e-01 
4.4851380000000002e-01,	 3.7455020000000000e-01,	 3.9787603906595748e-02,	 3.4746032180360385e+02,	 2.3931376235050817e+02,	 7.0847261715964794e+02,	 8.1096253764173944e+03,	 5.1077718248598859e+02,	 8.2599650658937285e-01 
4.5458640000000000e-01,	 3.7678499999999998e-01,	 3.9558539607615392e-02,	 3.4956488910841495e+02,	 2.4175680802232910e+02,	 7.0714294565892283e+02,	 8.0478041887708077e+03,	 5.1029764043118854e+02,	 8.3288638975684648e-01 
4.6065940000000000e-01,	 3.7907700000000000e-01,	 3.9312820196051687e-02,	 3.5200211814207574e+02,	 2.4424890201522385e+02,	 7.0568125609729793e+02,	 7.9812831719047354e+03,	 5.0976996594432597e+02,	 8.4046251654792725e-01 
4.6673599999999998e-01,	 3.8142369999999998e-01,	 3.9049781946940740e-02,	 3.5478515639985619e+02,	 2.4678633039267319e+02,	 7.0407957322946834e+02,	 7.9098872931219303e+03,	 5.0919112554248761e+02,	 8.4874984759363803e-01 
4.7282049999999998e-01,	 3.8382349999999998e-01,	 3.8768881676103970e-02,	 3.5792454487465193e+02,	 2.4936404747903143e+02,	 7.0233075385298741e+02,	 7.8334828485813850e+03,	 5.0855835832245293e+02,	 8.5776818577994196e-01 
4.7891679999999998e-01,	 3.8627410000000001e-01,	 3.8469724033504314e-02,	 3.6142819412576307e+02,	 2.5197396966709164e+02,	 7.0042912430350793e+02,	 7.7519900100260693e+03,	 5.0786940578351010e+02,	 8.6752990698148291e-01 
4.8503039999999997e-01,	 3.8877469999999997e-01,	 3.8151961323299996e-02,	 3.6530418898678488e+02,	 2.5460479631277400e+02,	 6.9836935188667621e+02,	 7.6653498073647997e+03,	 5.0712210276540998e+02,	 8.7804502839308807e-01 
4.9116620000000000e-01,	 3.9132210000000001e-01,	 3.7815268665355922e-02,	 3.6956067743502780e+02,	 2.5724118739268692e+02,	 6.9614686468755929e+02,	 7.5735238819640008e+03,	 5.0631452830226260e+02,	 8.8931994329194020e-01 
4.9732989999999999e-01,	 3.9391480000000001e-01,	 3.7459299980215813e-02,	 3.7420899872345836e+02,	 2.5986367733713683e+02,	 6.9375652925215900e+02,	 7.4764714322976552e+03,	 5.0544452348309619e+02,	 9.0136338187974785e-01 
5.0352770000000002e-01,	 3.9654970000000000e-01,	 3.7083713288274214e-02,	 3.7926302598927987e+02,	 2.6244929510191207e+02,	 6.9119297588000688e+02,	 7.3741585020518123e+03,	 5.0450980563445660e+02,	 9.1418612920675479e-01 
5.0976569999999999e-01,	 3.9922320000000000e-01,	 3.6688715355742960e-02,	 3.8473921183875927e+02,	 2.6498753811858842e+02,	 6.8845449628014876e+02,	 7.2667075694982632e+03,	 5.0350938966687954e+02,	 9.2781682935264753e-01 
5.1605310000000004e-01,	 4.0192460000000002e-01,	 3.6272222956364675e-02,	 3.9067999324197422e+02,	 2.6742611307959942e+02,	 6.8550852151210904e+02,	 7.1534734169052208e+03,	 5.0243094788196976e+02,	 9.4230316036958972e-01 
5.2239650000000004e-01,	 4.0463700000000002e-01,	 3.5829461618387140e-02,	 3.9706665910035497e+02,	 2.6971881675158227e+02,	 6.8234668927889152e+02,	 7.0335618141151617e+03,	 5.0127090510643865e+02,	 9.5758718629084183e-01 
5.2880410000000000e-01,	 4.0733639999999999e-01,	 3.5358533791414730e-02,	 4.0397691741804624e+02,	 2.7188703326633981e+02,	 6.7895525248227693e+02,	 6.9066164352193837e+03,	 5.0002363133851742e+02,	 9.7385316431285973e-01 
5.3527990000000003e-01,	 4.0998440000000003e-01,	 3.4855991359919479e-02,	 4.1150091367059008e+02,	 2.7395412848389770e+02,	 6.7530422817598969e+02,	 6.7718424524558513e+03,	 4.9867740174807614e+02,	 9.9132618491663393e-01 
5.4183490000000001e-01,	 4.1258220000000001e-01,	 3.4316445444746838e-02,	 4.1977620186464753e+02,	 2.7591829245597489e+02,	 6.7133850169352149e+02,	 6.6278670617788030e+03,	 4.9721100331264256e+02,	 1.0103105050196914e+00 
5.4846560000000000e-01,	 4.1504780000000002e-01,	 3.3731369442778325e-02,	 4.2890244054572776e+02,	 2.7770691243683461e+02,	 6.6699055780162621e+02,	 6.4726719514526130e+03,	 4.9559828690002206e+02,	 1.0309929651710632e+00 
5.5518559999999995e-01,	 4.1721429999999998e-01,	 3.3087689446608920e-02,	 4.3903651550748270e+02,	 2.7929929573171688e+02,	 6.6216551341723152e+02,	 6.3032268386854494e+03,	 4.9380244130345352e+02,	 1.0537557298807214e+00 
5.6200139999999998e-01,	 4.1866510000000001e-01,	 3.2362299156714569e-02,	 4.5043140320163968e+02,	 2.8072208066262334e+02,	 6.5669898774203500e+02,	 6.1141438523382321e+03,	 4.9175991719562558e+02,	 1.0792825594777522e+00 
5.6894590000000000e-01,	 4.1879769999999999e-01,	 2.9634732016961235e-02,	 4.9657237257884731e+02,	 2.8169329671156362e+02,	 6.3363733384279112e+02,	 5.4022129506974088e+03,	 4.8304804917413031e+02,	 1.1818852789005314e+00 
5.7631239999999995e-01,	 4.2179820000000001e-01,	 2.8711184985473918e-02,	 5.1253412107200324e+02,	 2.8169350295372402e+02,	 6.2622739829783814e+02,	 5.1726503094999080e+03,	 4.8021529228374749e+02,	 1.2178786621480553e+00 
5.8376119999999998e-01,	 4.2461579999999999e-01,	 3.0400042561771388e-02,	 4.8394469794522831e+02,	 2.8038339555616244e+02,	 6.4110969810668348e+02,	 5.6070764254349133e+03,	 4.8588794788888424e+02,	 1.1510899656785383e+00 
5.9126959999999995e-01,	 4.2729129999999999e-01,	 3.0170268080696207e-02,	 4.8847436747826009e+02,	 2.7831916768117628e+02,	 6.3926369789994897e+02,	 5.5486732303994804e+03,	 4.8518791492167935e+02,	 1.1587261710205174e+00 
5.9883480000000000e-01,	 4.2982150000000002e-01,	 2.9550711560962596e-02,	 4.9941813949497595e+02,	 2.7771351404517918e+02,	 6.3425021518204653e+02,	 5.3921070234659837e+03,	 4.8328160515776676e+02,	 1.1824154782754313e+00 
6.0645230000000006e-01,	 4.3220799999999998e-01,	 2.9080390303063117e-02,	 5.0782327002696320e+02,	 2.7639456084418100e+02,	 6.3047006926508061e+02,	 5.2746620865946552e+03,	 4.8183926809657953e+02,	 1.1999191496641193e+00 
6.1411839999999995e-01,	 4.3445099999999998e-01,	 2.8582222594768357e-02,	 5.1673031634626341e+02,	 2.7491350852456861e+02,	 6.2636253424249298e+02,	 5.1505274627754679e+03,	 4.8026710321278563e+02,	 1.2187174121631470e+00 
6.2182859999999995e-01,	 4.3655319999999997e-01,	 2.8076473277615532e-02,	 5.2578370597999015e+02,	 2.7320479095977896e+02,	 6.2214750515590254e+02,	 5.0253446953920738e+03,	 4.7864842645464404e+02,	 1.2379189197883345e+00 
6.2957810000000003e-01,	 4.3852039999999998e-01,	 2.7565250691451298e-02,	 5.3496026008783701e+02,	 2.7124168269139409e+02,	 6.1784661942257208e+02,	 4.8997346243001894e+03,	 4.7699111665083893e+02,	 1.2574561372301374e+00 
6.3736260000000000e-01,	 4.4035690000000000e-01,	 2.7050468956357165e-02,	 5.4423835101316331e+02,	 2.6902080966052358e+02,	 6.1347999354710555e+02,	 4.7742498199717365e+03,	 4.7530256251313995e+02,	 1.2772867560365750e+00 
6.4517780000000002e-01,	 4.4206899999999999e-01,	 2.6533083400768247e-02,	 5.5360813115047176e+02,	 2.6656082376559795e+02,	 6.0905898060298875e+02,	 4.6491869583262951e+03,	 4.7358684377062974e+02,	 1.2974180076876587e+00 
6.5301790000000004e-01,	 4.4367150000000000e-01,	 2.6014993557202465e-02,	 5.6303774606382387e+02,	 2.6380096309839746e+02,	 6.0458271807213464e+02,	 4.5249042002998094e+03,	 4.7184332752177460e+02,	 1.3177544271183355e+00 
6.6087899999999999e-01,	 4.4517370000000001e-01,	 2.5499309276152026e-02,	 5.7248909982266878e+02,	 2.6072054121601047e+02,	 6.0005867736735263e+02,	 4.4020206379454394e+03,	 4.7007463095115065e+02,	 1.3382172422880363e+00 
6.6875799999999996e-01,	 4.4658460000000000e-01,	 2.4987369198731749e-02,	 5.8193613777732548e+02,	 2.5736459710320662e+02,	 5.9550905378180357e+02,	 4.2809370316425266e+03,	 4.6828919565461501e+02,	 1.3587900304773353e+00 
6.7665260000000005e-01,	 4.4790839999999998e-01,	 2.4480695327759282e-02,	 5.9134610109600840e+02,	 2.5374498131662193e+02,	 5.9095186473315016e+02,	 4.1620356305682262e+03,	 4.6649394091061481e+02,	 1.3794132826498704e+00 
6.8455969999999999e-01,	 4.4915780000000000e-01,	 2.3980560111303506e-02,	 6.0069437838771546e+02,	 2.4987616966315179e+02,	 5.8639037989606516e+02,	 4.0455362492286208e+03,	 4.6469004845388224e+02,	 1.4000589243452186e+00 
6.9247740000000002e-01,	 4.5033899999999999e-01,	 2.3487727947091697e-02,	 6.0996209692376488e+02,	 2.4577546871263954e+02,	 5.8182923488130450e+02,	 3.9315742740987171e+03,	 4.6287926125132986e+02,	 1.4207083002683358e+00 
7.0040440000000004e-01,	 4.5145649999999998e-01,	 2.3002697680206324e-02,	 6.1913500026908969e+02,	 2.4145891320749854e+02,	 5.7727283410683481e+02,	 3.8202328047758210e+03,	 4.6106325695734108e+02,	 1.4413486409698675e+00 
7.0833950000000001e-01,	 4.5251370000000002e-01,	 2.2525892651704876e-02,	 6.2820052663563615e+02,	 2.3694013906138002e+02,	 5.7272610811086838e+02,	 3.7115808796698097e+03,	 4.5924395047671817e+02,	 1.4619657705450710e+00 
7.1628199999999997e-01,	 4.5351290000000000e-01,	 2.2057811644107056e-02,	 6.3714483078898161e+02,	 2.3223183122472335e+02,	 5.6819554167951219e+02,	 3.6057049248476251e+03,	 4.5742391269308644e+02,	 1.4825379963308039e+00 
7.2423070000000001e-01,	 4.5445920000000001e-01,	 2.1598985935959283e-02,	 6.4595401812450359e+02,	 2.2734631348468349e+02,	 5.6368834999767000e+02,	 3.5026952893209786e+03,	 4.5560605071980291e+02,	 1.5030399280277316e+00 
7.3218499999999997e-01,	 4.5535340000000002e-01,	 2.1149811760460130e-02,	 6.5461596194489721e+02,	 2.2229514452113415e+02,	 5.5921136044983496e+02,	 3.4026120009743349e+03,	 4.5379316088328397e+02,	 1.5234474074641953e+00 
7.4014460000000004e-01,	 4.5619559999999998e-01,	 2.0710603694773941e-02,	 6.6311990673191531e+02,	 2.1708896559385636e+02,	 5.5477080101855711e+02,	 3.3054933731081778e+03,	 4.5198784007849565e+02,	 1.5437371198271945e+00 
7.4810900000000002e-01,	 4.5698529999999998e-01,	 2.0281550034230142e-02,	 6.7145743847742312e+02,	 2.1173762838390962e+02,	 5.5037179267404213e+02,	 3.2113470946674502e+03,	 4.5019227379037801e+02,	 1.5638897313490487e+00 
7.5607809999999998e-01,	 4.5771950000000000e-01,	 1.9860190536269182e-02,	 6.7967270499203721e+02,	 2.0623049981999702e+02,	 5.4598915223326605e+02,	 3.1195888714109278e+03,	 4.4839623841341182e+02,	 1.5840270760946538e+00 
7.6424859999999994e-01,	 4.5851660000000000e-01,	 1.9446259537423884e-02,	 6.8776314003209586e+02,	 2.0054329691099284e+02,	 5.4161798945713463e+02,	 3.0301148923794781e+03,	 4.4659771213960346e+02,	 1.6041388479783447e+00 
7.7236760000000004e-01,	 4.5924910000000002e-01,	 1.9124371522465797e-02,	 6.9381424396817727e+02,	 1.9543042629059948e+02,	 5.3819262390625613e+02,	 2.9611121124961846e+03,	 4.4518325877917437e+02,	 1.6191375114681426e+00 
4.1826120000000000e-01,	 3.7138990000000000e-01,	 4.0574226242235570e-02,	 3.4490120693416179e+02,	 2.3035540719616753e+02,	 7.1163624131862980e+02,	 8.3068858223279021e+03,	 5.1191632822562519e+02,	 8.1019781078829389e-01 
4.2419770000000001e-01,	 3.7324049999999998e-01,	 4.0452778265853882e-02,	 3.4534490353743831e+02,	 2.3202434388559976e+02,	 7.1098660311046581e+02,	 8.2744609171171396e+03,	 5.1168261588886531e+02,	 8.1310356021738228e-01 
4.3011579999999999e-01,	 3.7514439999999999e-01,	 4.0285060568621633e-02,	 3.4628281125818830e+02,	 2.3405192190282600e+02,	 7.1014194414874817e+02,	 8.2303655205392934e+03,	 5.1137858361517340e+02,	 8.1732367921673077e-01 
4.3601940000000000e-01,	 3.7710179999999999e-01,	 4.0105423203093120e-02,	 3.4745948950586251e+02,	 2.3614305455379869e+02,	 7.0919599819691507e+02,	 8.1827506501871239e+03,	 5.1103787870193202e+02,	 8.2207033463612633e-01 
4.4191170000000002e-01,	 3.7911270000000002e-01,	 3.9912794292711967e-02,	 3.4888985223394923e+02,	 2.3830320708107683e+02,	 7.0814939816897243e+02,	 8.1314306356792376e+03,	 5.1066065595036315e+02,	 8.2737420177217580e-01 
4.4801700000000000e-01,	 3.8125460000000000e-01,	 3.9701291577142958e-02,	 3.5064301729044894e+02,	 2.4057193180538457e+02,	 7.0695800794742547e+02,	 8.0747333815280535e+03,	 5.1023090749585708e+02,	 8.3341810447445475e-01 
4.5411879999999999e-01,	 3.8345259999999998e-01,	 3.9472075507663767e-02,	 3.5273397749595881e+02,	 2.4289077979848017e+02,	 7.0563586713907000e+02,	 8.0130997321446584e+03,	 5.0975357164480602e+02,	 8.4015562648813591e-01 
4.6022160000000001e-01,	 3.8570680000000002e-01,	 3.9226144356402481e-02,	 3.5515726286153478e+02,	 2.4525864658118832e+02,	 7.0418203198807271e+02,	 7.9467673554944404e+03,	 5.0922817333845592e+02,	 8.4757976965759796e-01 
4.6632849999999998e-01,	 3.8801459999999999e-01,	 3.8962798944039534e-02,	 3.5792380808248890e+02,	 2.4767423905364018e+02,	 7.0258944508123068e+02,	 7.8755647427470085e+03,	 5.0865200898023738e+02,	 8.5571434285191839e-01 
4.7244370000000002e-01,	 3.9037440000000001e-01,	 3.8681583097296898e-02,	 3.6104141351197870e+02,	 2.5013360798479897e+02,	 7.0085210671758716e+02,	 7.7993886204255896e+03,	 5.0802273136473201e+02,	 8.6457549060157401e-01 
4.7857110000000003e-01,	 3.9278390000000002e-01,	 3.8382270821805474e-02,	 3.6451542141868617e+02,	 2.5262837910835043e+02,	 6.9896565920902628e+02,	 7.7182073534534838e+03,	 5.0733856136159227e+02,	 8.7417046036448565e-01 
4.8471599999999998e-01,	 3.9524250000000000e-01,	 3.8064720436608954e-02,	 3.6835201644061658e+02,	 2.5514614941857570e+02,	 6.9692606939210680e+02,	 7.6320163506805930e+03,	 5.0659781071421708e+02,	 8.8450421599224227e-01 
4.9088300000000001e-01,	 3.9774680000000001e-01,	 3.7728843319031626e-02,	 3.7255771990296716e+02,	 2.5766961351633080e+02,	 6.9473025898408821e+02,	 7.5408385633709750e+03,	 5.0579911026123881e+02,	 8.9557732074031637e-01 
4.9707770000000001e-01,	 4.0029530000000002e-01,	 3.7374526828816743e-02,	 3.7714250687126156e+02,	 2.6017743770228498e+02,	 6.9237461478281978e+02,	 7.4446927225164482e+03,	 5.0494086748188079e+02,	 9.0739307045485573e-01 
5.0330620000000004e-01,	 4.0288489999999999e-01,	 3.7001538928124085e-02,	 3.8211839821044316e+02,	 2.6264521562867668e+02,	 6.8985520163414162e+02,	 7.3435772529568458e+03,	 5.0402134066555453e+02,	 9.1995641912524984e-01 
5.0957439999999998e-01,	 4.0551199999999998e-01,	 3.6609325241528289e-02,	 3.8750081464725884e+02,	 2.6504985806099728e+02,	 6.8716532742137315e+02,	 7.2374053947965403e+03,	 5.0303774427382899e+02,	 9.3328311443941092e-01 
5.1589130000000005e-01,	 4.0816599999999997e-01,	 3.6195492026774086e-02,	 3.9336553905414297e+02,	 2.6742143868193943e+02,	 6.8427867235763802e+02,	 7.1255341557935308e+03,	 5.0198004781943570e+02,	 9.4756385131240850e-01 
5.2226340000000004e-01,	 4.1083029999999998e-01,	 3.5757693548600963e-02,	 3.9973216728547794e+02,	 2.6972663077161269e+02,	 6.8117850089840408e+02,	 7.0074558144636103e+03,	 5.0084162941647674e+02,	 9.6282374070020338e-01 
5.2869889999999997e-01,	 4.1348099999999999e-01,	 3.5292720818955417e-02,	 4.0662154228276057e+02,	 2.7187724315559285e+02,	 6.7784762072288754e+02,	 6.8825148028977837e+03,	 4.9961560141446967e+02,	 9.7903344355485022e-01 
5.3520179999999995e-01,	 4.1608000000000001e-01,	 3.4797525456739656e-02,	 4.1407431514952634e+02,	 2.7385733565094881e+02,	 6.7426513521058132e+02,	 6.7500812827498930e+03,	 4.9829359572378985e+02,	 9.9628558104713560e-01 
5.4178289999999996e-01,	 4.1862899999999997e-01,	 3.4267050869169952e-02,	 4.2222373497940180e+02,	 2.7567420216071389e+02,	 6.7036971027555001e+02,	 6.6087762711883952e+03,	 4.9685211755143581e+02,	 1.0148916722964003e+00 
5.4843869999999995e-01,	 4.2104690000000000e-01,	 3.3692050499175376e-02,	 4.3119365650889665e+02,	 2.7731886705839844e+02,	 6.6609868080045851e+02,	 6.4564821394048631e+03,	 4.9526682750477056e+02,	 1.0351452734366409e+00 
5.5518160000000005e-01,	 4.2316720000000002e-01,	 3.3060697331515482e-02,	 4.4113682531631582e+02,	 2.7876604500900191e+02,	 6.6136338310287761e+02,	 6.2904554844439062e+03,	 4.9350326086695208e+02,	 1.0574102792710134e+00 
5.6201619999999997e-01,	 4.2457509999999998e-01,	 3.2351086756893591e-02,	 4.5229709185796946e+02,	 2.8009679535872738e+02,	 6.5600947137283947e+02,	 6.1056080529897790e+03,	 4.9150168201403892e+02,	 1.0824026054396212e+00 
5.6897169999999997e-01,	 4.2466870000000001e-01,	 2.9643627680387034e-02,	 4.9800358815940115e+02,	 2.8065796726949486e+02,	 6.3319851191831754e+02,	 5.4000921756604612e+03,	 4.8288075411751424e+02,	 1.1838195045496822e+00 
5.7633970000000001e-01,	 4.2764669999999999e-01,	 2.8745552685374896e-02,	 5.1345777423540812e+02,	 2.8062362025528694e+02,	 6.2603256147988930e+02,	 5.1772307637803697e+03,	 4.8014058228349131e+02,	 1.2186841736488137e+00 
5.8378920000000001e-01,	 4.3044379999999999e-01,	 3.0490709981024964e-02,	 4.8396312777043198e+02,	 2.7957134524536116e+02,	 6.4137258853577214e+02,	 5.6261054690916944e+03,	 4.8598755814243174e+02,	 1.1500501248306663e+00 
5.9129770000000004e-01,	 4.3310009999999999e-01,	 3.0244301176913693e-02,	 4.8872875061883610e+02,	 2.7762858874848081e+02,	 6.3940155128359925e+02,	 5.5634882766909623e+03,	 4.8524022603410469e+02,	 1.1583531698244283e+00 
5.9886240000000002e-01,	 4.3561250000000001e-01,	 2.9605734350332400e-02,	 4.9990619467417434e+02,	 2.7713149584970120e+02,	 6.3419311700484104e+02,	 5.4016606841792300e+03,	 4.8325985103049538e+02,	 1.1827670438314815e+00 
6.0647890000000004e-01,	 4.3798270000000000e-01,	 2.9151320746314914e-02,	 5.0801810064325326e+02,	 2.7593135728644074e+02,	 6.3049053455136470e+02,	 5.2876992339744265e+03,	 4.8184708837150123e+02,	 1.1997957139989799e+00 
6.1414349999999995e-01,	 4.4021070000000001e-01,	 2.8659521886336903e-02,	 5.1677183934784205e+02,	 2.7456296851470370e+02,	 6.2645095442711909e+02,	 5.1651858629513663e+03,	 4.8030100036105938e+02,	 1.2183651216947762e+00 
6.2185179999999995e-01,	 4.4229960000000001e-01,	 2.8161345330825732e-02,	 5.2565766338693061e+02,	 2.7296567356968336e+02,	 6.2231717872116360e+02,	 5.0419104200229076e+03,	 4.7871369108070678e+02,	 1.2372862449905992e+00 
6.2959900000000002e-01,	 4.4425460000000000e-01,	 2.7658650729472156e-02,	 5.3465682867923420e+02,	 2.7111092691825547e+02,	 6.1810811374722834e+02,	 4.9184172851653611e+03,	 4.7709204564454990e+02,	 1.2564989296079279e+00 
6.3738090000000003e-01,	 4.4608029999999999e-01,	 2.7153242517237816e-02,	 5.4374540015831701e+02,	 2.6898177665199023e+02,	 6.1383713079755546e+02,	 4.7951786414749013e+03,	 4.7544089102796858e+02,	 1.2759493355975986e+00 
6.4519309999999996e-01,	 4.4778289999999998e-01,	 2.6646122599865565e-02,	 5.5291091576981376e+02,	 2.6657720477033536e+02,	 6.0951035980150482e+02,	 4.6724541770203250e+03,	 4.7376230104589172e+02,	 1.2956267269897634e+00 
6.5302990000000005e-01,	 4.4937700000000003e-01,	 2.6137917927574340e-02,	 5.6214168767174567e+02,	 2.6389833456817030e+02,	 6.0512994997099804e+02,	 4.5504000095276724e+03,	 4.7205682131697768e+02,	 1.3155274579157452e+00 
6.6088760000000002e-01,	 4.5087179999999999e-01,	 2.5630761576436446e-02,	 5.7140497958517790e+02,	 2.6094599994408225e+02,	 6.0071190824202188e+02,	 4.4295304294154776e+03,	 4.7033042571766282e+02,	 1.3355911150328799e+00 
6.6876290000000005e-01,	 4.5227630000000002e-01,	 2.5126759448627748e-02,	 5.8066823277915398e+02,	 2.5772587183127092e+02,	 5.9626904635053450e+02,	 4.3103117692850728e+03,	 4.6858791725217208e+02,	 1.3557622462968488e+00 
6.7665370000000002e-01,	 4.5359470000000002e-01,	 2.4627453721678676e-02,	 5.8990312883109084e+02,	 2.5425157892810353e+02,	 5.9180730204410429e+02,	 4.1930473676982856e+03,	 4.6683145741263144e+02,	 1.3760051479498683e+00 
6.8455690000000002e-01,	 4.5483920000000000e-01,	 2.4133963601736103e-02,	 5.9908578085514796e+02,	 2.5054033025012220e+02,	 5.8733692957555058e+02,	 4.0779875861946616e+03,	 4.6506494790019553e+02,	 1.3962877324694587e+00 
6.9247049999999999e-01,	 4.5601639999999999e-01,	 2.3647031698718582e-02,	 6.0819795490680224e+02,	 2.4660793028761944e+02,	 5.8286379637083246e+02,	 3.9652781021483738e+03,	 4.6329060563149443e+02,	 1.4165898899366134e+00 
7.0039330000000000e-01,	 4.5713060000000000e-01,	 2.3167289153056745e-02,	 6.1722421123724405e+02,	 2.4246744702829798e+02,	 5.7839305583320311e+02,	 3.8550341252430276e+03,	 4.6151039626562999e+02,	 1.4368932078728014e+00 
7.0832430000000002e-01,	 4.5818500000000001e-01,	 2.2695291399773516e-02,	 6.2615130389356477e+02,	 2.3812971975143427e+02,	 5.7392992021068574e+02,	 3.7473526664279752e+03,	 4.5972633919294111e+02,	 1.4571796971793736e+00 
7.1626239999999997e-01,	 4.5918219999999998e-01,	 2.2231608729530495e-02,	 6.3496588622119475e+02,	 2.3360496718738332e+02,	 5.6948064520579283e+02,	 3.6423342381830007e+03,	 4.5794090467350827e+02,	 1.4774273746655278e+00 
7.2420669999999998e-01,	 4.6012690000000001e-01,	 2.1776826592456559e-02,	 6.4365455994420881e+02,	 2.2890406362978456e+02,	 5.6505222473446088e+02,	 3.5400803508432259e+03,	 4.5615689957541434e+02,	 1.4976115856823287e+00 
7.3215649999999999e-01,	 4.6102019999999999e-01,	 2.1331354321083112e-02,	 6.5220603551764555e+02,	 2.2403717478517086e+02,	 5.6065098639938992e+02,	 3.4406536547484807e+03,	 4.5437690483049994e+02,	 1.5177102306064345e+00 
7.4011159999999998e-01,	 4.6186189999999999e-01,	 2.0895505789628271e-02,	 6.6061019680571280e+02,	 2.1901479278692892e+02,	 5.5628288155127620e+02,	 3.3440943423941985e+03,	 4.5260338883285334e+02,	 1.5377024333665976e+00 
7.4807150000000000e-01,	 4.6265180000000000e-01,	 2.0469381809681268e-02,	 6.6886001451920367e+02,	 2.1384937194402374e+02,	 5.5195197972506571e+02,	 3.2503936413031897e+03,	 4.5083809005626728e+02,	 1.5575759114910255e+00 
7.5603589999999998e-01,	 4.6338679999999999e-01,	 2.0050138455513601e-02,	 6.7701044186937247e+02,	 2.0853931013871636e+02,	 5.4763057194261398e+02,	 3.1588936035569559e+03,	 4.4906974454628636e+02,	 1.5774851708505881e+00 
7.6420489999999996e-01,	 4.6418599999999999e-01,	 1.9637130986021718e-02,	 6.8506113950425561e+02,	 2.0307518685324979e+02,	 5.4330630509234948e+02,	 3.0693945634579964e+03,	 4.4729323116199066e+02,	 1.5974456445997409e+00 
7.7232270000000003e-01,	 4.6492060000000002e-01,	 1.9316090676623564e-02,	 6.9108033162112440e+02,	 1.9812596169611311e+02,	 5.3991270471288431e+02,	 3.0003555301616780e+03,	 4.4589410121676212e+02,	 1.6123110101190470e+00 
4.1767759999999998e-01,	 3.7824459999999999e-01,	 4.0515870356013430e-02,	 3.4976603616499608e+02,	 2.3280813229170826e+02,	 7.0924589602301512e+02,	 8.2670762204990224e+03,	 5.1105585626437886e+02,	 8.2214450175970200e-01 
4.2363550000000000e-01,	 3.8006469999999998e-01,	 4.0383329292395936e-02,	 3.5010923714122487e+02,	 2.3438068105327903e+02,	 7.0873258758480722e+02,	 8.2340682017689724e+03,	 5.1087088743585957e+02,	 8.2470991048967535e-01 
4.2957580000000001e-01,	 3.8193709999999997e-01,	 4.0207175212565512e-02,	 3.5096080228149327e+02,	 2.3629613344678586e+02,	 7.0801160632619076e+02,	 8.1898109536649463e+03,	 5.1061097131020313e+02,	 8.2860531093672862e-01 
4.3550250000000001e-01,	 3.8386209999999998e-01,	 4.0022402718618753e-02,	 3.5206256280687728e+02,	 2.3826305054612803e+02,	 7.0716267505511883e+02,	 8.1423998425463415e+03,	 5.1030475907259267e+02,	 8.3304848989012825e-01 
4.4141880000000000e-01,	 3.8583950000000000e-01,	 3.9826610957462510e-02,	 3.5343158857183198e+02,	 2.4028830119686197e+02,	 7.0619146662947219e+02,	 8.0914388171601549e+03,	 5.0995421556751472e+02,	 8.3807223400596842e-01 
4.4755210000000001e-01,	 3.8794659999999997e-01,	 3.9613013640513062e-02,	 3.5513564605042899e+02,	 2.4241680435429384e+02,	 7.0505635225445542e+02,	 8.0351067459577571e+03,	 5.0954420696151169e+02,	 8.4386231819177959e-01 
4.5368249999999999e-01,	 3.9010869999999997e-01,	 3.9382358720138649e-02,	 3.5718824389532921e+02,	 2.4459818243328249e+02,	 7.0377297983375934e+02,	 7.9737800159346734e+03,	 5.0908024912949389e+02,	 8.5037819660162728e-01 
4.5981460000000002e-01,	 3.9232600000000001e-01,	 3.9135313051734129e-02,	 3.5957897012018736e+02,	 2.4683439175856898e+02,	 7.0234513288461130e+02,	 7.9076843779255933e+03,	 5.0856356423095758e+02,	 8.5760578356294292e-01 
4.6595130000000001e-01,	 3.9459590000000000e-01,	 3.8871063882507474e-02,	 3.6231290800592768e+02,	 2.4912510068358827e+02,	 7.0077053608959386e+02,	 7.8366815339004925e+03,	 5.0799316668291470e+02,	 8.6555805412331832e-01 
4.7209669999999998e-01,	 3.9691680000000001e-01,	 3.8589239506636959e-02,	 3.6539153096408546e+02,	 2.5146517222262787e+02,	 6.9904802572492588e+02,	 7.7607406584976861e+03,	 5.0736845301515990e+02,	 8.7423697076376017e-01 
4.7825469999999998e-01,	 3.9928649999999999e-01,	 3.8289793678894200e-02,	 3.6881531452569129e+02,	 2.5384319401917392e+02,	 6.9717747195620450e+02,	 7.6799131524357999e+03,	 5.0668917514337420e+02,	 8.8363606312389253e-01 
4.8443019999999998e-01,	 4.0170420000000001e-01,	 3.7972812660422552e-02,	 3.7258651611200310e+02,	 2.5624328472694043e+02,	 6.9515849715609693e+02,	 7.5942788518447323e+03,	 5.0595497587592865e+02,	 8.9374775184892774e-01 
4.9062790000000001e-01,	 4.0416669999999999e-01,	 3.7638451023944863e-02,	 3.7670888529882950e+02,	 2.5864413728779579e+02,	 6.9299111764816030e+02,	 7.5039399112479741e+03,	 5.0516562169700632e+02,	 9.0456147696980937e-01 
4.9685319999999999e-01,	 4.0667239999999999e-01,	 3.7286781643836087e-02,	 3.8119127231731761e+02,	 2.6102135381942156e+02,	 6.9067387393521574e+02,	 7.4089704940662014e+03,	 5.0432032077232003e+02,	 9.1607356958000830e-01 
5.0311189999999995e-01,	 4.0921829999999998e-01,	 3.6917587746185698e-02,	 3.8604783690252026e+02,	 2.6334997940207393e+02,	 6.8820310634023144e+02,	 7.3093689129822797e+03,	 5.0341745276112772e+02,	 9.2829128291509899e-01 
5.0940989999999997e-01,	 4.1180080000000002e-01,	 3.6529979368503149e-02,	 3.9130254394409923e+02,	 2.6560792525113663e+02,	 6.8556992969389842e+02,	 7.2049525467662443e+03,	 5.0245345138052738e+02,	 9.4124660860668286e-01 
5.1575599999999999e-01,	 4.1440939999999998e-01,	 3.6121942339943688e-02,	 3.9699486345556977e+02,	 2.6779333090415196e+02,	 6.8275827459471896e+02,	 7.0952549399112668e+03,	 5.0142206334056596e+02,	 9.5502735792956384e-01 
5.2215670000000003e-01,	 4.1702750000000000e-01,	 3.5690318977576373e-02,	 4.0320318459451255e+02,	 2.6992566744719943e+02,	 6.7973567168179545e+02,	 6.9794375979346223e+03,	 5.0031092270936114e+02,	 9.6982501813016098e-01 
5.2862019999999998e-01,	 4.1963170000000000e-01,	 3.5231176393242386e-02,	 4.0995822730904848e+02,	 2.7195764918000145e+02,	 6.7647531702439699e+02,	 6.8566035172425072e+03,	 4.9910960885780906e+02,	 9.8567948717398135e-01 
5.3515000000000001e-01,	 4.2218400000000000e-01,	 3.4742979136634544e-02,	 4.1726114949510117e+02,	 2.7379914974071579e+02,	 6.7297070112884876e+02,	 6.7265620062473117e+03,	 4.9781506135822684e+02,	 1.0025248707703598e+00 
5.4175720000000005e-01,	 4.2468660000000003e-01,	 3.4220300282248990e-02,	 4.2523205699272995e+02,	 2.7545806189655326e+02,	 6.6916225291109072e+02,	 6.5878725442736513e+03,	 4.9640445551703579e+02,	 1.0206498943313627e+00 
5.4843779999999998e-01,	 4.2705890000000002e-01,	 3.3654790674759953e-02,	 4.3399767555337360e+02,	 2.7695939440641610e+02,	 6.6498879411032271e+02,	 6.4385957431172110e+03,	 4.9485403639217054e+02,	 1.0403881094113983e+00 
5.5520340000000001e-01,	 4.2913540000000000e-01,	 3.3035273466209047e-02,	 4.4369117265468185e+02,	 2.7826413912016676e+02,	 6.6037523748798935e+02,	 6.2762267216583805e+03,	 4.9313445048001489e+02,	 1.0620423885041828e+00 
5.6205680000000002e-01,	 4.3050280000000002e-01,	 3.2342141648194392e-02,	 4.5452469033884404e+02,	 2.7953583741916623e+02,	 6.5519051283191391e+02,	 6.0962997468295671e+03,	 4.9119479223410201e+02,	 1.0863384016108091e+00 
5.6902339999999996e-01,	 4.3056040000000001e-01,	 2.9659621004167386e-02,	 4.9970333294027125e+02,	 2.7963759594610229e+02,	 6.3265850129816181e+02,	 5.3983977875332712e+03,	 4.8267480262644125e+02,	 1.1863599635409092e+00 
5.7639220000000002e-01,	 4.3351560000000000e-01,	 2.8786942917360576e-02,	 5.1465514183811899e+02,	 2.7957775194540181e+02,	 6.2568772843551108e+02,	 5.1818295270161907e+03,	 4.8000832786503526e+02,	 1.2201678569470711e+00 
5.8384179999999997e-01,	 4.3629160000000000e-01,	 3.0600958994527257e-02,	 4.8395743843669817e+02,	 2.7871118370896750e+02,	 6.4161682237927550e+02,	 5.6485986314115862e+03,	 4.8608008104862091e+02,	 1.1489369351993142e+00 
5.9134960000000003e-01,	 4.3892819999999999e-01,	 3.0326347394829901e-02,	 4.8913466489966004e+02,	 2.7689208359962589e+02,	 6.3939182755162506e+02,	 5.5784959750524104e+03,	 4.8523653636223082e+02,	 1.1583409345822921e+00 
5.9891320000000003e-01,	 4.4142250000000000e-01,	 2.9668388741270684e-02,	 5.0054698487740427e+02,	 2.7654650335243326e+02,	 6.3403526766585469e+02,	 5.4117448703844730e+03,	 4.8319970610522574e+02,	 1.1834883397417679e+00 
6.0652799999999996e-01,	 4.4377590000000000e-01,	 2.9231946804678111e-02,	 5.0828703844443544e+02,	 2.7543097435238673e+02,	 6.3047839767214145e+02,	 5.3022217627739283e+03,	 4.8184245059524659e+02,	 1.1998026501705070e+00 
6.1419040000000003e-01,	 4.4598870000000002e-01,	 2.8747475939088735e-02,	 5.1684891058559037e+02,	 2.7416108933053118e+02,	 6.2651225074633612e+02,	 5.1815444030693416e+03,	 4.8032449778180342e+02,	 1.2180549248887647e+00 