TITLE = "Final State"
VARIABLES = "X", "Y", "rho", "u", "v", "T", "p", "c", "M"
ZONE I=101, J=24, DATAPACKING=POINT
1.0570664999999999e+00,	 2.8549797499999996e-01,	 5.2739338222522261e-02,	 1.5356500517008883e+03,	 -7.0870574635674373e+01,	 6.2298880011569292e+02,	 9.4524600934577575e+03,	 5.0092084686787894e+02,	 3.0689170504389187e+00 
1.0577600000000000e+00,	 2.8549107499999998e-01,	 5.2507556300993727e-02,	 1.5362458292915617e+03,	 -7.3381314235584853e+01,	 6.2190016822920609e+02,	 9.3944729111874494e+03,	 5.0048299241385558e+02,	 3.0730263440659464e+00 
1.0584577500000001e+00,	 2.8548412499999998e-01,	 5.2280953456052465e-02,	 1.5368241387858363e+03,	 -7.5854075969075524e+01,	 6.2083444592589319e+02,	 9.3379004946310397e+03,	 5.0005398096132524e+02,	 3.0770577763203031e+00 
1.0591592500000000e+00,	 2.8547717499999997e-01,	 5.2059467376146279e-02,	 1.5373856239741622e+03,	 -7.8289565637210671e+01,	 6.1979090527408664e+02,	 9.2827115863535273e+03,	 4.9963354188489171e+02,	 3.0810135960889977e+00 
1.0598650000000001e+00,	 2.8547017499999999e-01,	 5.1843934383846130e-02,	 1.5379275487848156e+03,	 -8.0678982144439800e+01,	 6.1877472902588602e+02,	 9.2291235179548330e+03,	 4.9922378755447187e+02,	 3.0848736070948490e+00 
1.0605750000000000e+00,	 2.8546312499999998e-01,	 5.1634925063179606e-02,	 1.5384487004260757e+03,	 -8.3016307156394717e+01,	 6.1778862593901590e+02,	 9.1772676281941604e+03,	 4.9882583787845823e+02,	 3.0886268891357749e+00 
1.0612895000000000e+00,	 2.8545602500000000e-01,	 5.1432661977113714e-02,	 1.5389485153755938e+03,	 -8.5298949211812669e+01,	 6.1683407181710061e+02,	 9.1271942728718313e+03,	 4.9844031740197573e+02,	 3.0922671611924057e+00 
1.0620082499999999e+00,	 2.8544887499999999e-01,	 5.1238248906672931e-02,	 1.5394240974501492e+03,	 -8.7515149777867421e+01,	 6.1591692014845592e+02,	 9.0791742551994939e+03,	 4.9806962174407823e+02,	 3.0957713742866693e+00 
1.0627312499999999e+00,	 2.8544170000000002e-01,	 5.1051615057153631e-02,	 1.5398764444172884e+03,	 -8.9665754461580732e+01,	 6.1503604280489753e+02,	 9.0331659897592963e+03,	 4.9771332756475380e+02,	 3.0991430847251586e+00 
1.0634584999999999e+00,	 2.8543447499999997e-01,	 5.0874052853738014e-02,	 1.5403011646456578e+03,	 -9.1736485854234900e+01,	 6.1419991016141000e+02,	 8.9895100627350621e+03,	 4.9737489545143728e+02,	 3.1023490699111851e+00 
1.0641900000000000e+00,	 2.8542719999999999e-01,	 5.0705802772080304e-02,	 1.5406979287743095e+03,	 -9.3724741397743045e+01,	 6.1340979615599008e+02,	 8.9482540918950326e+03,	 4.9705487803516701e+02,	 3.1053835839136839e+00 
1.0649264999999999e+00,	 2.8541987499999999e-01,	 5.0547751791131981e-02,	 1.5410651896253962e+03,	 -9.5621110778303105e+01,	 6.1266948397969315e+02,	 8.9095963994360718e+03,	 4.9675484462069602e+02,	 3.1082312328967889e+00 
1.0656675000000000e+00,	 2.8541252500000003e-01,	 5.0400758682026189e-02,	 1.5414006138687294e+03,	 -9.7416194178007501e+01,	 6.1198400636531767e+02,	 8.8737478468564586e+03,	 4.9647687286504498e+02,	 3.1108717686475034e+00 
1.0664129999999998e+00,	 2.8540512499999998e-01,	 5.0265415805348518e-02,	 1.5417027447812884e+03,	 -9.9103598335879951e+01,	 6.1135679646863275e+02,	 8.8408487681206152e+03,	 4.9622239314706729e+02,	 3.1132910700982017e+00 
1.0671629999999999e+00,	 2.8539767500000002e-01,	 5.0142721040219884e-02,	 1.5419692764140202e+03,	 -1.0067245950509674e+02,	 6.1079304306346546e+02,	 8.8111362490505089e+03,	 4.9599354839850645e+02,	 3.1154682366290314e+00 
1.0679175000000001e+00,	 2.8539019999999998e-01,	 5.0033342547655409e-02,	 1.5421984436482771e+03,	 -1.0211559095046576e+02,	 6.1029676080613592e+02,	 8.7847725176413478e+03,	 4.9579200482983970e+02,	 3.1173869027880001e+00 
1.0686770000000001e+00,	 2.8538267499999997e-01,	 4.9938244189126790e-02,	 1.5423884101872222e+03,	 -1.0342292720441782e+02,	 6.0987236248635895e+02,	 8.7619780131182106e+03,	 4.9561958880191446e+02,	 3.1190291986575160e+00 
1.0694414999999999e+00,	 2.8537507499999998e-01,	 4.9858250719835739e-02,	 1.5425370793682450e+03,	 -1.0458572323009989e+02,	 6.0952451950205875e+02,	 8.7429532356078325e+03,	 4.9547822939919587e+02,	 3.1203763076946420e+00 
1.0702110000000000e+00,	 2.8536742500000001e-01,	 4.9794305534933900e-02,	 1.5426422787476574e+03,	 -1.0559409226787960e+02,	 6.0925811599033671e+02,	 8.7279236891685960e+03,	 4.9536993878729578e+02,	 3.1214086684451403e+00 
1.0709852499999999e+00,	 2.8535972499999995e-01,	 4.9747290910446114e-02,	 1.5427020129188331e+03,	 -1.0643883227129312e+02,	 6.0907765942238279e+02,	 8.7171002980121502e+03,	 4.9529657137783465e+02,	 3.1221082885017495e+00 
1.0717642500000000e+00,	 2.8535199999999999e-01,	 4.9717931737403992e-02,	 1.5427148000913999e+03,	 -1.0711251076711238e+02,	 6.0898663062551975e+02,	 8.7106537270503031e+03,	 4.9525955808816133e+02,	 3.1224612998859849e+00 
1.0725484999999999e+00,	 2.8534422500000001e-01,	 4.9707104068572455e-02,	 1.5426787566893488e+03,	 -1.0760690214804298e+02,	 6.0898913957276307e+02,	 8.7087925827386825e+03,	 4.9526057829021562e+02,	 3.1224515692620920e+00 
1.0733380000000001e+00,	 2.8533635000000002e-01,	 4.9715483812312729e-02,	 1.5425924294798529e+03,	 -1.0791536510743781e+02,	 6.0908838322087570e+02,	 8.7116801958615270e+03,	 4.9530093160773680e+02,	 3.1220667057295515e+00 
1.0741324999999999e+00,	 2.8532847500000003e-01,	 4.9743670436282035e-02,	 1.5424547173000969e+03,	 -1.0803222245668805e+02,	 6.0928681543527284e+02,	 8.7194591072964795e+03,	 4.9538160598916721e+02,	 3.1212974260447193e+00 
1.0749320000000000e+00,	 2.8532055000000001e-01,	 4.9792120875183039e-02,	 1.5422648671461966e+03,	 -1.0795345328234568e+02,	 6.0958606627838537e+02,	 8.7322386068536307e+03,	 4.9550324424028253e+02,	 3.1201378828161470e+00 
1.0757370000000002e+00,	 2.8531252499999998e-01,	 4.9861098380732043e-02,	 1.5420223261076453e+03,	 -1.0767698483500213e+02,	 6.0998712873862075e+02,	 8.7500885860261897e+03,	 4.9566621964678887e+02,	 3.1185849471436398e+00 
1.0765472500000000e+00,	 2.8530447500000000e-01,	 4.9950591750316679e-02,	 1.5417274138458720e+03,	 -1.0720354962046986e+02,	 6.1048923446868082e+02,	 8.7730092023426005e+03,	 4.9587017940529023e+02,	 3.1166425544339087e+00 
1.0773627500000000e+00,	 2.8529639999999995e-01,	 5.0060661812184139e-02,	 1.5413802717912990e+03,	 -1.0653358912225848e+02,	 6.1109179641653259e+02,	 8.8010193903376166e+03,	 4.9611483466906992e+02,	 3.1143141664421781e+00 
1.0781837500000000e+00,	 2.8528824999999997e-01,	 5.0190681090577713e-02,	 1.5409830766806679e+03,	 -1.0567583660254138e+02,	 6.1179012054297027e+02,	 8.8339611730697343e+03,	 4.9639822093041749e+02,	 3.1116193046014620e+00 
1.0790102500000001e+00,	 2.8528002499999999e-01,	 5.0340223536957503e-02,	 1.5405370012366400e+03,	 -1.0463463053868841e+02,	 6.1258142268659356e+02,	 8.8717419132362102e+03,	 4.9671914311512768e+02,	 3.1085702493953771e+00 
1.0798422500000000e+00,	 2.8527177500000001e-01,	 5.0508088122473371e-02,	 1.5400458358865628e+03,	 -1.0342469533957315e+02,	 6.1345775923716485e+02,	 8.9140595477234892e+03,	 4.9707431024639646e+02,	 3.1051992385615366e+00 
1.0806797500000001e+00,	 2.8526344999999997e-01,	 5.0693610693704268e-02,	 1.5395116594648146e+03,	 -1.0205286124649560e+02,	 6.1441458537291646e+02,	 8.9607565729786074e+03,	 4.9746180911816276e+02,	 3.1015254241312622e+00 
1.0815230000000000e+00,	 2.8525507499999997e-01,	 5.0894822757699604e-02,	 1.5389396291729277e+03,	 -1.0054037562746868e+02,	 6.1544116762157694e+02,	 9.0113547544576395e+03,	 4.9787722269693313e+02,	 3.0975916565386123e+00 
1.0823719999999999e+00,	 2.8524664999999999e-01,	 5.1110520079269549e-02,	 1.5383335402437044e+03,	 -9.8899735351590223e+01,	 6.1652978213954987e+02,	 9.0655529350149100e+03,	 4.9831735973793542e+02,	 3.0934290620263525e+00 
1.0832269999999999e+00,	 2.8523814999999997e-01,	 5.1338638656701692e-02,	 1.5376986726740752e+03,	 -9.7151178019919627e+01,	 6.1766972544265900e+02,	 9.1228514059571753e+03,	 4.9877783319590446e+02,	 3.0890799462933054e+00 
1.0840874999999999e+00,	 2.8522962499999999e-01,	 5.1577062397980510e-02,	 1.5370403813894393e+03,	 -9.5314438411881653e+01,	 6.1885033891673197e+02,	 9.1827375835935345e+03,	 4.9925428742890375e+02,	 3.0845861280971922e+00 
1.0849540000000000e+00,	 2.8522099999999995e-01,	 5.1824155626950093e-02,	 1.5363635571426762e+03,	 -9.3405849624975815e+01,	 6.2006211680949968e+02,	 9.2447968227246638e+03,	 4.9974284613429256e+02,	 3.0799847047358884e+00 
1.0858265000000000e+00,	 2.8521232500000004e-01,	 5.2077032262568768e-02,	 1.5356750899452450e+03,	 -9.1450464471350017e+01,	 6.2129183016281559e+02,	 9.3083307637854359e+03,	 5.0023814817383015e+02,	 3.0753265289106686e+00 
1.0867049999999998e+00,	 2.8520360000000000e-01,	 5.2334101491114483e-02,	 1.5349796579337415e+03,	 -8.9462513433503290e+01,	 6.2253078679813189e+02,	 9.3729336728740709e+03,	 5.0073667774431112e+02,	 3.0706448465715437e+00 
1.0875897500000000e+00,	 2.8519479999999997e-01,	 5.2592579323292581e-02,	 1.5342841440590776e+03,	 -8.7465246015253072e+01,	 6.2376627240645792e+02,	 9.4379201029949327e+03,	 5.0123331688958388e+02,	 3.0659877237198212e+00 
1.0884802499999999e+00,	 2.8518594999999997e-01,	 5.2850708626242374e-02,	 1.5335926684878912e+03,	 -8.5470829560737343e+01,	 6.2499092347422095e+02,	 9.5028628747053699e+03,	 5.0172511562142546e+02,	 3.0613826617334894e+00 
1.0893770000000000e+00,	 2.8517704999999999e-01,	 5.3106085930532752e-02,	 1.5329116218312288e+03,	 -8.3499563495067051e+01,	 6.2619335330352317e+02,	 9.5671522397635945e+03,	 5.0220752211076234e+02,	 3.0568719728172917e+00 
1.0902802500000002e+00,	 2.8516810000000004e-01,	 5.3356927090816110e-02,	 1.5322454236907643e+03,	 -8.1563036203058601e+01,	 6.2736605508702382e+02,	 9.6303431889588028e+03,	 5.0267755598918922e+02,	 3.0524830737101785e+00 
1.0911897500000001e+00,	 2.8515907499999998e-01,	 5.3601566062324156e-02,	 1.5315976336419476e+03,	 -7.9670478060271009e+01,	 6.2850311411294729e+02,	 9.6920322346556895e+03,	 5.0313288449877882e+02,	 3.0482372076165807e+00 
1.0921057500000000e+00,	 2.8514997500000000e-01,	 5.3838369630033682e-02,	 1.5309735686864419e+03,	 -7.7834156926670587e+01,	 6.2959578144318334e+02,	 9.7517744233757076e+03,	 5.0357004870649087e+02,	 3.0441660030647704e+00 
1.0930282499999999e+00,	 2.8514082499999999e-01,	 5.4065891548560084e-02,	 1.5303753466846865e+03,	 -7.6058998358847347e+01,	 6.3064081800047825e+02,	 9.8092405157529192e+03,	 5.0398780159853987e+02,	 3.0402803915775012e+00 
1.0939570000000001e+00,	 2.8513159999999999e-01,	 5.4282967504142202e-02,	 1.5298069391390370e+03,	 -7.4351615562841587e+01,	 6.3163207119830247e+02,	 9.8641051259620708e+03,	 5.0438373486810963e+02,	 3.0366020643482696e+00 
1.0948924999999998e+00,	 2.8512230000000000e-01,	 5.4488735313653329e-02,	 1.5292701365857249e+03,	 -7.2713128045441749e+01,	 6.3256713607941754e+02,	 9.9161546350556364e+03,	 5.0475694034439931e+02,	 3.0331387361491933e+00 
1.0958347500000001e+00,	 2.8511295000000003e-01,	 5.4682320331291397e-02,	 1.5287672079100971e+03,	 -7.1145310280267424e+01,	 6.3344282940432788e+02,	 9.9651604664040842e+03,	 5.0510619925242673e+02,	 3.0299010076987063e+00 
1.0967837499999999e+00,	 2.8510349999999995e-01,	 5.4863445332845227e-02,	 1.5282986299296967e+03,	 -6.9643999660222477e+01,	 6.3425909624362930e+02,	 1.0011052039860242e+04,	 5.0543153934803252e+02,	 3.0268879431827695e+00 
1.0977394999999999e+00,	 2.8509400000000001e-01,	 5.5031302294536823e-02,	 1.5278667923252156e+03,	 -6.8210726945972567e+01,	 6.3501255234752887e+02,	 1.0053610089704202e+04,	 5.0573165916553586e+02,	 3.0241109506351509e+00 
1.0987020000000001e+00,	 2.8508444999999999e-01,	 5.5185887318454661e-02,	 1.5274716176058623e+03,	 -6.6839006151875097e+01,	 6.3570408363041167e+02,	 1.0092830240620158e+04,	 5.0600695616511643e+02,	 3.0215657475111213e+00 
1.0996714999999999e+00,	 2.8507482499999998e-01,	 5.5327066530093311e-02,	 1.5271137205331618e+03,	 -6.5523927121304780e+01,	 6.3633337199087418e+02,	 1.0128666737757714e+04,	 5.0625734430351457e+02,	 3.0192525800767052e+00 
1.1006480000000001e+00,	 2.8506512499999997e-01,	 5.5454761660774871e-02,	 1.5267928862519984e+03,	 -6.4259908816346979e+01,	 6.3690136107401156e+02,	 1.0161105429383815e+04,	 5.0648323573075481e+02,	 3.0171671456980023e+00 
1.1016314999999999e+00,	 2.8505534999999999e-01,	 5.5569124260560314e-02,	 1.5265093507972415e+03,	 -6.3039905341206449e+01,	 6.3740836191144774e+02,	 1.0190165712851925e+04,	 5.0668478683209446e+02,	 3.0153075605011752e+00 
1.1026220000000000e+00,	 2.8504552500000002e-01,	 5.5670303645524305e-02,	 1.5262628200200468e+03,	 -6.1856901205559005e+01,	 6.3785544285367428e+02,	 1.0215880245442957e+04,	 5.0686245111863821e+02,	 3.0136692531935960e+00 
1.1036197500000000e+00,	 2.8503559999999994e-01,	 5.5758515409724332e-02,	 1.5260526072820433e+03,	 -6.0703249933485431e+01,	 6.3824426312841240e+02,	 1.0238304910891449e+04,	 5.0701691274107611e+02,	 3.0122455824036636e+00 
1.1046247499999999e+00,	 2.8502559999999999e-01,	 5.5834098540403929e-02,	 1.5258780184376649e+03,	 -5.9571106046557155e+01,	 6.3857646244615933e+02,	 1.0257519537340937e+04,	 5.0714884401828323e+02,	 3.0110300710564548e+00 
1.1056370000000000e+00,	 2.8501557499999997e-01,	 5.5897206535677008e-02,	 1.5257390310398023e+03,	 -5.8453561058571559e+01,	 6.3885256696709030e+02,	 1.0273553483626272e+04,	 5.0725847141936771e+02,	 3.0100203985134932e+00 
1.1066570000000000e+00,	 2.8500544999999999e-01,	 5.5948248764187934e-02,	 1.5256344138258548e+03,	 -5.7342632781459322e+01,	 6.3907496017893720e+02,	 1.0286514351353562e+04,	 5.0734675550124513e+02,	 3.0092075284320265e+00 
1.1076845000000000e+00,	 2.8499524999999998e-01,	 5.5987492690722736e-02,	 1.5255637191078847e+03,	 -5.6231750963853479e+01,	 6.3924471990970778e+02,	 1.0296464007665712e+04,	 5.0741413517905232e+02,	 3.0085872721112357e+00 
1.1087192500000000e+00,	 2.8498497499999997e-01,	 5.6015299354223246e-02,	 1.5255262114462475e+03,	 -5.5113449747970478e+01,	 6.3936337633889343e+02,	 1.0303490009963425e+04,	 5.0746122603004966e+02,	 3.0081538531666467e+00 
1.1097617500000001e+00,	 2.8497460000000002e-01,	 5.6032116981450782e-02,	 1.5255205294378763e+03,	 -5.3981604562960555e+01,	 6.3943329937527312e+02,	 1.0307710619436431e+04,	 5.0748897414715509e+02,	 3.0078984898472250e+00 
1.1108120000000001e+00,	 2.8496417499999999e-01,	 5.6038049003458233e-02,	 1.5255467813772332e+03,	 -5.2830299311022728e+01,	 6.3945459022968691e+02,	 1.0309145125125864e+04,	 5.0749742286568153e+02,	 3.0078207410963365e+00 
1.1118697500000001e+00,	 2.8495369999999998e-01,	 5.6033484286317228e-02,	 1.5256038004461061e+03,	 -5.1654338723714581e+01,	 6.3942921403588798e+02,	 1.0307896292303069e+04,	 5.0748735297102371e+02,	 3.0079134088232484e+00 
1.1129355000000001e+00,	 2.8494312500000002e-01,	 5.6018897953669343e-02,	 1.5256904210222465e+03,	 -5.0448125224293527e+01,	 6.3935912578989098e+02,	 1.0304083435658811e+04,	 5.0745953920181324e+02,	 3.0081693775403693e+00 
1.1140092500000001e+00,	 2.8493245000000000e-01,	 5.5994491159306450e-02,	 1.5258060022907343e+03,	 -4.9208503906109648e+01,	 6.3924533434930686e+02,	 1.0297760969710451e+04,	 5.0741437904126434e+02,	 3.0085850274806321e+00 
1.1150910000000001e+00,	 2.8492170000000000e-01,	 5.5960464806262676e-02,	 1.5259501531824919e+03,	 -4.7930459297739148e+01,	 6.3908853775615398e+02,	 1.0288978955950692e+04,	 5.0735214493408967e+02,	 3.0091579122041980e+00 
1.1161807500000001e+00,	 2.8491087500000001e-01,	 5.5917182600303615e-02,	 1.5261218644196424e+03,	 -4.6611169556321542e+01,	 6.3889023774778786e+02,	 1.0277830968192829e+04,	 5.0727342677991248e+02,	 3.0098826835688723e+00 
1.1172787500000001e+00,	 2.8489997499999997e-01,	 5.5865091689883135e-02,	 1.5263197403630500e+03,	 -4.5247821810566073e+01,	 6.3865250004765119e+02,	 1.0264435498373921e+04,	 5.0717903714008941e+02,	 3.0107519597140957e+00 
1.1183850000000000e+00,	 2.8488897499999999e-01,	 5.5804267951553792e-02,	 1.5265435817930747e+03,	 -4.3838536243179256e+01,	 6.3837551413963808e+02,	 1.0248813104274459e+04,	 5.0706904251762319e+02,	 3.0117652447628913e+00 
1.1194992500000001e+00,	 2.8487790000000002e-01,	 5.5735093697005370e-02,	 1.5267921813876872e+03,	 -4.2381296784796682e+01,	 6.3806098533234240e+02,	 1.0231065457135057e+04,	 5.0694411019530310e+02,	 3.0129165242113558e+00 
1.1206222499999998e+00,	 2.8486674999999995e-01,	 5.5657985414045916e-02,	 1.5270643587678478e+03,	 -4.0874429370382273e+01,	 6.3771054516192589e+02,	 1.0211299600902314e+04,	 5.0680487743842002e+02,	 3.0142000699463192e+00 
1.1217535000000001e+00,	 2.8485549999999998e-01,	 5.5573050173901156e-02,	 1.5273595634122210e+03,	 -3.9318326332750544e+01,	 6.3732477144398240e+02,	 1.0189549195262549e+04,	 5.0665156212921983e+02,	 3.0156140300741234e+00 
1.1228932500000000e+00,	 2.8484417499999998e-01,	 5.5480542159860043e-02,	 1.5276771352120745e+03,	 -3.7710011153645603e+01,	 6.3690452863227665e+02,	 1.0165879809035683e+04,	 5.0648449519828216e+02,	 3.0171555220509063e+00 
1.1240417500000000e+00,	 2.8483277499999998e-01,	 5.5381080849894605e-02,	 1.5280149764425737e+03,	 -3.6052556006466425e+01,	 6.3645261868954947e+02,	 1.0140455011924310e+04,	 5.0630477752928124e+02,	 3.0188145635517012e+00 
1.1251989999999998e+00,	 2.8482127499999998e-01,	 5.5274594143984633e-02,	 1.5283732972914427e+03,	 -3.4343216137015894e+01,	 6.3596855313623678e+02,	 1.0113259274773367e+04,	 5.0611220127638171e+02,	 3.0205932563610114e+00 
1.1263649999999998e+00,	 2.8480970000000000e-01,	 5.5161587358553969e-02,	 1.5287503651130801e+03,	 -3.2584769224467806e+01,	 6.3545458655211132e+02,	 1.0084426647008444e+04,	 5.0590764923125778e+02,	 3.0224836378247453e+00 
1.1275397500000000e+00,	 2.8479805000000002e-01,	 5.5042265758023637e-02,	 1.5291455990643312e+03,	 -3.0775732065941121e+01,	 6.3491136801963762e+02,	 1.0054010709204849e+04,	 5.0569136535050080e+02,	 3.0244836479016528e+00 
1.1287235000000000e+00,	 2.8478629999999999e-01,	 5.4917199106179690e-02,	 1.5295569370571086e+03,	 -2.8920635964325296e+01,	 6.3434160572608187e+02,	 1.0022164201120173e+04,	 5.0546441356205696e+02,	 3.0265836429392525e+00 
1.1299162500000000e+00,	 2.8477445000000001e-01,	 5.4786465357177551e-02,	 1.5299842169565072e+03,	 -2.7017534210824095e+01,	 6.3374532396031202e+02,	 9.9889074088635643e+03,	 5.0522678917124489e+02,	 3.0287838619080736e+00 
1.1311182499999999e+00,	 2.8476250000000003e-01,	 5.4650323672681092e-02,	 1.5304263783421181e+03,	 -2.5069255969258140e+01,	 6.3312377153283785e+02,	 9.9543130807566831e+03,	 5.0497897513699587e+02,	 3.0310800335852357e+00 
1.1323292500000000e+00,	 2.8475044999999999e-01,	 5.4509366199879380e-02,	 1.5308816113429834e+03,	 -2.3077872427111149e+01,	 6.3247937077836150e+02,	 9.9185328210200332e+03,	 5.0472192296915864e+02,	 3.0334635370163698e+00 
1.1335495000000000e+00,	 2.8473832500000001e-01,	 5.4363612286952530e-02,	 1.5313496688006012e+03,	 -2.1043990245853269e+01,	 6.3181221142560923e+02,	 9.8815770079674003e+03,	 5.0445565436638731e+02,	 3.0359343645644827e+00 
1.1347792500000000e+00,	 2.8472612499999994e-01,	 5.4213484871553856e-02,	 1.5318292017825088e+03,	 -1.8969776136720736e+01,	 6.3112402936602416e+02,	 9.8435551335565706e+03,	 5.0418084809559440e+02,	 3.0384864111035381e+00 
1.1360185000000000e+00,	 2.8471382499999998e-01,	 5.4059436766487140e-02,	 1.5323189429811400e+03,	 -1.6857597821753149e+01,	 6.3041644788418239e+02,	 9.8045798905549909e+03,	 5.0389813894260840e+02,	 3.0411139673439673e+00 
1.1372672500000001e+00,	 2.8470142500000001e-01,	 5.3901819551878574e-02,	 1.5328193980978976e+03,	 -1.4707905385231198e+01,	 6.2968843678805706e+02,	 9.7647039685844320e+03,	 5.0360710163901769e+02,	 3.0438211754271394e+00 
1.1385255000000001e+00,	 2.8468895000000000e-01,	 5.3740810976151930e-02,	 1.5333288461168188e+03,	 -1.2523139067549341e+01,	 6.2894233022049752e+02,	 9.7240006394357297e+03,	 5.0330865568282121e+02,	 3.0465996719819088e+00 
1.1397935000000001e+00,	 2.8467635000000002e-01,	 5.3576941567623222e-02,	 1.5338449374848765e+03,	 -1.0308284706928289e+01,	 6.2818141425968793e+02,	 9.6826211308358870e+03,	 5.0300410352018019e+02,	 3.0494374996964173e+00 
1.1410715000000000e+00,	 2.8466362499999998e-01,	 5.3410507514863183e-02,	 1.5343667694331930e+03,	 -8.0657652835468330e+00,	 6.2740683638812493e+02,	 9.6406405103417001e+03,	 5.0269389374883468e+02,	 3.0523306293907666e+00 
1.1423592499999999e+00,	 2.8465085000000001e-01,	 5.3241858296188369e-02,	 1.5348927399196482e+03,	 -5.7985486586045871e+00,	 6.2662082780436140e+02,	 9.5981596328367032e+03,	 5.0237891029534580e+02,	 3.0552709545770367e+00 
1.1436569999999999e+00,	 2.8463797499999999e-01,	 5.3071504165852136e-02,	 1.5354216134224639e+03,	 -3.5099048110999829e+00,	 6.2582508780108742e+02,	 9.5552994791099536e+03,	 5.0205982579283568e+02,	 3.0582523163148299e+00 
1.1449650000000000e+00,	 2.8462497500000000e-01,	 5.2899686207939924e-02,	 1.5359523458126037e+03,	 -1.2026672796424034e+00,	 6.2502105501822848e+02,	 9.5121278956847982e+03,	 5.0173720985321864e+02,	 3.0612694982550823e+00 
1.1462829999999999e+00,	 2.8461190000000003e-01,	 5.2726737623468703e-02,	 1.5364836391462761e+03,	 1.1200934516530376e+00,	 6.2421058267290266e+02,	 9.4687350763252452e+03,	 5.0141179998056811e+02,	 3.0643156931661615e+00 
1.1476112500000000e+00,	 2.8459870000000004e-01,	 5.2553172180597338e-02,	 1.5370140548638692e+03,	 3.4543981445439771e+00,	 6.2339577198702113e+02,	 9.4252466843284565e+03,	 5.0108443521160734e+02,	 3.0673831168669041e+00 
1.1489497499999999e+00,	 2.8458537499999997e-01,	 5.2379215645895205e-02,	 1.5375430032002839e+03,	 5.7973287108355258e+00,	 6.2257746141847770e+02,	 9.3817168755598886e+03,	 5.0075544890933804e+02,	 3.0704687007745011e+00 
1.1502987499999999e+00,	 2.8457199999999999e-01,	 5.2205449273611815e-02,	 1.5380682867022620e+03,	 8.1447497562349245e+00,	 6.2175898311047490e+02,	 9.3383004695705713e+03,	 5.0042617882450378e+02,	 3.0735599308266566e+00 
1.1516584999999999e+00,	 2.8455849999999999e-01,	 5.2032153611781609e-02,	 1.5385892030743596e+03,	 1.0492944981934036e+01,	 6.2094142323744711e+02,	 9.2950637336920863e+03,	 5.0009706179119036e+02,	 3.0766527147630742e+00 
1.1530287500000000e+00,	 2.8454487499999997e-01,	 5.1859859516033197e-02,	 1.5391042826690211e+03,	 1.2837091192944426e+01,	 6.2012709104358566e+02,	 9.2521353594728698e+03,	 4.9976902863860585e+02,	 3.0797382955295776e+00 
1.1544097499999999e+00,	 2.8453117499999997e-01,	 5.1689118392805919e-02,	 1.5396112932477499e+03,	 1.5172255089551374e+01,	 6.1931951125038427e+02,	 9.2096648236182973e+03,	 4.9944350274115828e+02,	 3.0828032424948222e+00 
1.1558014999999999e+00,	 2.8451735000000000e-01,	 5.1520183897704963e-02,	 1.5401100551221309e+03,	 1.7494691507277597e+01,	 6.1851909845217074e+02,	 9.1677013301974221e+03,	 4.9912065628524550e+02,	 3.0858458709816805e+00 
1.0570667499999999e+00,	 2.8620187499999999e-01,	 5.3687759323913946e-02,	 1.5331384231196348e+03,	 -6.3263172191924873e+01,	 6.2732281158154728e+02,	 9.6893868749329285e+03,	 5.0266023124387755e+02,	 3.0526447353135864e+00 
1.0577602499999998e+00,	 2.8619529999999999e-01,	 5.3447717192319402e-02,	 1.5337647350356910e+03,	 -6.5810816564851507e+01,	 6.2620571340179674e+02,	 9.6288877518262889e+03,	 5.0221247849018073e+02,	 3.0568256616918501e+00 
1.0584579999999999e+00,	 2.8618864999999999e-01,	 5.3211337384789413e-02,	 1.5343783881204026e+03,	 -6.8336366743203158e+01,	 6.2510256940154011e+02,	 9.5694151473114980e+03,	 5.0176992672372484e+02,	 3.0609633926259003e+00 
1.0591597500000001e+00,	 2.8618197499999998e-01,	 5.2979042435734112e-02,	 1.5349771150543397e+03,	 -7.0834928807128946e+01,	 6.2401736960475273e+02,	 9.5110993977601811e+03,	 5.0133419250887562e+02,	 3.0650426130159567e+00 
1.0598654999999999e+00,	 2.8617527500000001e-01,	 5.2750607804738253e-02,	 1.5355622203468486e+03,	 -7.3308607344131417e+01,	 6.2294819894500210e+02,	 9.4538637747310477e+03,	 5.0090452369788147e+02,	 3.0690701497550590e+00 
1.0605755000000001e+00,	 2.8616852500000001e-01,	 5.2527035052613948e-02,	 1.5361308752532236e+03,	 -7.5747451908457236e+01,	 6.2190032857737106e+02,	 9.3979604061311420e+03,	 5.0048305693508297e+02,	 3.0730257381405583e+00 
1.0612897500000000e+00,	 2.8616172499999998e-01,	 5.2308418529551155e-02,	 1.5366830188520582e+03,	 -7.8150371673080784e+01,	 6.2087421711876414e+02,	 9.3434045393468950e+03,	 5.0006999765060277e+02,	 3.0769071756118009e+00 
1.0620084999999999e+00,	 2.8615487500000003e-01,	 5.2095777394303218e-02,	 1.5372156292276691e+03,	 -8.0507142639475575e+01,	 6.1987557980066197e+02,	 9.2904550862988162e+03,	 4.9966767015977587e+02,	 3.0806923077735640e+00 
1.0627314999999999e+00,	 2.8614799999999996e-01,	 5.1889322426928404e-02,	 1.5377281425723647e+03,	 -8.2814939728233895e+01,	 6.1890586503306315e+02,	 9.2391610071113228e+03,	 4.9927668462908167e+02,	 3.0843750379913546e+00 
1.0634587500000001e+00,	 2.8614107500000002e-01,	 5.1689782431391135e-02,	 1.5382192340435995e+03,	 -8.5066396895795819e+01,	 6.1796808643504403e+02,	 9.1896863556926419e+03,	 4.9889828420425977e+02,	 3.0879432791858301e+00 
1.0641905000000000e+00,	 2.8613412499999996e-01,	 5.1497394413183892e-02,	 1.5386883329768175e+03,	 -8.7258731749956027e+01,	 6.1706376642880116e+02,	 9.1420846649278374e+03,	 4.9853311253450244e+02,	 3.0913905645334019e+00 
1.0649267499999999e+00,	 2.8612712500000004e-01,	 5.1312800602604791e-02,	 1.5391337975726904e+03,	 -8.9384931436925470e+01,	 6.1619645404620883e+02,	 9.0965110402372757e+03,	 4.9818263337329773e+02,	 3.0947026588288571e+00 
1.0656675000000000e+00,	 2.8612007499999997e-01,	 5.1137030968687262e-02,	 1.5395526774996670e+03,	 -9.1434438955101328e+01,	 6.1537206923875601e+02,	 9.0532231866455259e+03,	 4.9784927244073680e+02,	 3.0978561796982347e+00 
1.0664129999999998e+00,	 2.8611300000000001e-01,	 5.0970373880106709e-02,	 1.5399442775585940e+03,	 -9.3403628251097985e+01,	 6.1459251305013129e+02,	 9.0122871775348303e+03,	 4.9753383362668973e+02,	 3.1008430382835845e+00 
1.0671632499999999e+00,	 2.8610587499999995e-01,	 5.0813852698012835e-02,	 1.5403065328548450e+03,	 -9.5281654295040468e+01,	 6.1386247350419558e+02,	 8.9739396955586362e+03,	 4.9723824972979878e+02,	 3.1036444372911394e+00 
1.0679180000000001e+00,	 2.8609869999999998e-01,	 5.0667940922902562e-02,	 1.5406386246375666e+03,	 -9.7063231167755418e+01,	 6.1318425463459255e+02,	 8.9382847800242962e+03,	 4.9696348984657288e+02,	 3.1062506890784021e+00 
1.0686775000000002e+00,	 2.8609147499999998e-01,	 5.0533419278995892e-02,	 1.5409379338074098e+03,	 -9.8739973298141592e+01,	 6.1256322867312610e+02,	 8.9055253830380007e+03,	 4.9671176664112033e+02,	 3.1086402998628899e+00 
1.0694420000000000e+00,	 2.8608419999999996e-01,	 5.0411140634601878e-02,	 1.5412024993537541e+03,	 -1.0030267708509453e+02,	 6.1200386693054600e+02,	 8.8758637694796689e+03,	 4.9648492882011737e+02,	 3.1107952119040987e+00 
1.0702112500000001e+00,	 2.8607687500000001e-01,	 5.0302041221621858e-02,	 1.5414307158062159e+03,	 -1.0174132950374251e+02,	 6.1151019721784223e+02,	 8.8495105174872351e+03,	 4.9628464493921769e+02,	 3.1126990813530804e+00 
1.0709854999999999e+00,	 2.8606949999999998e-01,	 5.0206963021388648e-02,	 1.5416199291922317e+03,	 -1.0304723354999433e+02,	 6.1108772931615363e+02,	 8.8266814344586201e+03,	 4.9611318372873558e+02,	 3.1143298727537747e+00 
1.0717647500000000e+00,	 2.8606209999999999e-01,	 5.0126902390831278e-02,	 1.5417684964409348e+03,	 -1.0420961775125649e+02,	 6.1074063234097991e+02,	 8.8076007534241671e+03,	 4.9597226791881729e+02,	 3.1156707690981742e+00 
1.0725487500000002e+00,	 2.8605464999999997e-01,	 5.0062369895296492e-02,	 1.5418749622703210e+03,	 -1.0522284122641665e+02,	 6.1047223922616945e+02,	 8.7923964399722881e+03,	 4.9586327716022976e+02,	 3.1167082679511755e+00 
1.0733380000000001e+00,	 2.8604715000000003e-01,	 5.0014507787241480e-02,	 1.5419366788929847e+03,	 -1.0607560231985100e+02,	 6.1028825889045345e+02,	 8.7813432084409360e+03,	 4.9578855143079505e+02,	 3.1174197887512891e+00 
1.0741324999999999e+00,	 2.8603962499999996e-01,	 4.9984081497134472e-02,	 1.5419522712937303e+03,	 -1.0675963386808193e+02,	 6.1019208943105309e+02,	 8.7746181589307380e+03,	 4.9574948661612069e+02,	 3.1177918181297843e+00 
1.0749322499999998e+00,	 2.8603202499999997e-01,	 4.9971841109862129e-02,	 1.5419199915921938e+03,	 -1.0726756641600154e+02,	 6.1018753850281462e+02,	 8.7724039535962493e+03,	 4.9574763791586417e+02,	 3.1178094250984767e+00 
1.0757372500000000e+00,	 2.8602434999999998e-01,	 4.9978453058312722e-02,	 1.5418386034212106e+03,	 -1.0759229632253923e+02,	 6.1027752022468871e+02,	 8.7748584606369222e+03,	 4.9578418945029875e+02,	 3.1174613274232490e+00 
1.0765475000000000e+00,	 2.8601662500000002e-01,	 5.0004567950634113e-02,	 1.5417067306506146e+03,	 -1.0772844736769905e+02,	 6.1046488213178463e+02,	 8.7821389118657262e+03,	 4.9586028920787993e+02,	 3.1167367154729542e+00 
1.0773630000000001e+00,	 2.8600887500000000e-01,	 5.0050620941539337e-02,	 1.5415236383940749e+03,	 -1.0767137441565752e+02,	 6.1075130265449627e+02,	 8.7943512845088953e+03,	 4.9597660049159776e+02,	 3.1156295337060307e+00 
1.0781840000000000e+00,	 2.8600110000000001e-01,	 5.0116890940940753e-02,	 1.5412889047997999e+03,	 -1.0741860909536970e+02,	 6.1113763004731311e+02,	 8.8115657130055315e+03,	 4.9613343933529075e+02,	 3.1141371752912250e+00 
1.0790105000000001e+00,	 2.8599324999999998e-01,	 5.0203421190987800e-02,	 1.5410027452117156e+03,	 -1.0696969368371165e+02,	 6.1162339988574411e+02,	 8.8337955537730431e+03,	 4.9633057887973041e+02,	 3.1122623392624531e+00 
1.0798425000000000e+00,	 2.8598532499999996e-01,	 5.0310050477947690e-02,	 1.5406657567232319e+03,	 -1.0632707152387120e+02,	 6.1220713438215591e+02,	 8.8610069440837779e+03,	 4.9656737180242914e+02,	 3.1100118518811364e+00 