TITLE = "Final State"
VARIABLES = "X", "Y", "rho", "u", "v", "T", "p", "c", "M"
ZONE I=77, J=27, DATAPACKING=POINT
2.5077519999999998e-01,	 6.7296190000000006e-02,	 2.6757099990063281e-02,	 1.5924793321984162e+03,	 4.1380912173748538e+02,	 4.5297371983076351e+02,	 3.4869200146171711e+03,	 4.0841948814211275e+02,	 4.0286171107228839e+00 
2.5481999999999999e-01,	 6.8379999999999996e-02,	 2.6774902237068257e-02,	 1.5923892524100145e+03,	 4.1401673176770396e+02,	 4.5304364921302852e+02,	 3.4897786234984733e+03,	 4.0845101250993281e+02,	 4.0282206006912329e+00 
2.5886480000000001e-01,	 6.9463810000000001e-02,	 2.6797961384764986e-02,	 1.5922627636207144e+03,	 4.1425855659949116e+02,	 4.5313901767345374e+02,	 3.4935193517239536e+03,	 4.0849400096648247e+02,	 4.0276460179888076e+00 
2.6290950000000002e-01,	 7.0547620000000005e-02,	 2.6820426327618142e-02,	 1.5921394465747544e+03,	 4.1449201187801964e+02,	 4.5323310917565090e+02,	 3.4971740123181585e+03,	 4.0853640938603814e+02,	 4.0270797307819333e+00 
2.6695429999999998e-01,	 7.1631429999999996e-02,	 2.6842218593987978e-02,	 1.5920195703676450e+03,	 4.1471727019844963e+02,	 4.5332523365303382e+02,	 3.5007269691618230e+03,	 4.0857792697395132e+02,	 4.0265255305844505e+00 
2.7099899999999999e-01,	 7.2715240000000000e-02,	 2.6863373565209840e-02,	 1.5919026938022466e+03,	 4.1493628742912244e+02,	 4.5341549380491938e+02,	 3.5041835407812873e+03,	 4.0861860027813805e+02,	 4.0259831042012548e+00 
2.7504380000000000e-01,	 7.3799050000000005e-02,	 2.6883759546098805e-02,	 1.5917895434572397e+03,	 4.1514814165248492e+02,	 4.5350280079259460e+02,	 3.5075180398237262e+03,	 4.0865793896682118e+02,	 4.0254584185062345e+00 
2.7908860000000002e-01,	 7.4882860000000009e-02,	 2.6903504430473534e-02,	 1.5916789595370119e+03,	 4.1535578296782273e+02,	 4.5358799453925462e+02,	 3.5107535467377597e+03,	 4.0869632182349727e+02,	 4.0249468014483520e+00 
2.8313329999999998e-01,	 7.5966670000000000e-02,	 2.6922572834893122e-02,	 1.5915712441667429e+03,	 4.1555855678421693e+02,	 4.5367074046835614e+02,	 3.5138827687440853e+03,	 4.0873359839949205e+02,	 4.0244500328864783e+00 
2.8717809999999999e-01,	 7.7050480000000005e-02,	 2.6940885572686368e-02,	 1.5914671941839074e+03,	 4.1575440045396806e+02,	 4.5375030608737319e+02,	 3.5168896027822057e+03,	 4.0876943905780360e+02,	 4.0239719549422892e+00 
2.9122290000000001e-01,	 7.8134290000000009e-02,	 2.6958642431121515e-02,	 1.5913655214858973e+03,	 4.1594573571899991e+02,	 4.5382805177806887e+02,	 3.5198105823913884e+03,	 4.0880445688673302e+02,	 4.0235049657825623e+00 
2.9526760000000002e-01,	 7.9218100000000000e-02,	 2.6975849885262505e-02,	 1.5912665175916654e+03,	 4.1613141591349711e+02,	 4.5390393139607943e+02,	 3.5226461298116642e+03,	 4.0883863131622337e+02,	 4.0230492377411800e+00 
2.9931239999999998e-01,	 8.0301900000000009e-02,	 2.6992511150253855e-02,	 1.5911703555429133e+03,	 4.1631054929748473e+02,	 4.5397786741554091e+02,	 3.5253959992349241e+03,	 4.0887192764619755e+02,	 4.0226049583485768e+00 
3.0335709999999999e-01,	 8.1385710000000000e-02,	 2.7008783856501746e-02,	 1.5910761386274162e+03,	 4.1648504917410276e+02,	 4.5405087950619986e+02,	 3.5280886417589982e+03,	 4.0890480523364107e+02,	 4.0221666606962128e+00 
3.0740190000000001e-01,	 8.2469520000000004e-02,	 2.7024549090358979e-02,	 1.5909847971869444e+03,	 4.1665276774415884e+02,	 4.5412203948255944e+02,	 3.5307012676266727e+03,	 4.0893684626429666e+02,	 4.0217393169867091e+00 
3.1144670000000002e-01,	 8.3553330000000009e-02,	 2.7039975201166064e-02,	 1.5908950404113302e+03,	 4.1681671440609580e+02,	 4.5419248457575992e+02,	 3.5332646650931197e+03,	 4.0896856293365551e+02,	 4.0213166914431797e+00 
3.1549139999999998e-01,	 8.4637140000000000e-02,	 2.7055025869829170e-02,	 1.5908071502253192e+03,	 4.1697659519834076e+02,	 4.5426186040640812e+02,	 3.5357712992120732e+03,	 4.0899979578246405e+02,	 4.0209008308855383e+00 
3.1953619999999999e-01,	 8.5720950000000004e-02,	 2.7069574868082820e-02,	 1.5907219330593493e+03,	 4.1713087218007780e+02,	 4.5432921721699330e+02,	 3.5381972381310798e+03,	 4.0903011739102226e+02,	 4.0204968834290087e+00 
3.2358100000000001e-01,	 8.6804760000000009e-02,	 2.7083782244401840e-02,	 1.5906381351074149e+03,	 4.1728252859563889e+02,	 4.5439562387446801e+02,	 3.5405716783076459e+03,	 4.0906000907463624e+02,	 4.0200989946805414e+00 
3.2762570000000002e-01,	 8.7888569999999999e-02,	 2.7097612229996029e-02,	 1.5905560004370102e+03,	 4.1743111838040261e+02,	 4.5446079869214054e+02,	 3.5428877159294825e+03,	 4.0908934414542938e+02,	 4.0197087050045752e+00 
3.3167049999999998e-01,	 8.8972380000000004e-02,	 2.7111000957252933e-02,	 1.5904760348350192e+03,	 4.1757540366202829e+02,	 4.5452420002771578e+02,	 3.5451327388698323e+03,	 4.0911787895670687e+02,	 4.0193288297727845e+00 
3.3571519999999999e-01,	 9.0056190000000008e-02,	 2.7124034460016058e-02,	 1.5903977625070190e+03,	 4.1771647591712849e+02,	 4.5458639035662065e+02,	 3.5473223433361777e+03,	 4.0914586680113268e+02,	 4.0189564261087094e+00 
3.3976000000000001e-01,	 9.1139999999999999e-02,	 2.7136622000172930e-02,	 1.5903218907774167e+03,	 4.1785259397228208e+02,	 4.5464668377326996e+02,	 3.5494392732955125e+03,	 4.0917299914035038e+02,	 4.0185951092965650e+00 
3.4380480000000002e-01,	 9.2223810000000003e-02,	 2.7148950222136113e-02,	 1.5902471008988234e+03,	 4.1798645296782172e+02,	 4.5470636837226436e+02,	 3.5515179617038957e+03,	 4.0919985573670129e+02,	 4.0182377355356182e+00 
3.4784949999999998e-01,	 9.3307620000000008e-02,	 2.7161005413019666e-02,	 1.5901736753558034e+03,	 4.1811735466276633e+02,	 4.5476525146165693e+02,	 3.5535550889237093e+03,	 4.0922634994632256e+02,	 4.0178853860994481e+00 
3.5189429999999999e-01,	 9.4391429999999998e-02,	 2.7172720053474902e-02,	 1.5901020714871768e+03,	 4.1824423273115383e+02,	 4.5482282948120337e+02,	 3.5555378613161893e+03,	 4.0925225528642375e+02,	 4.0175406982775899e+00 
3.5593900000000001e-01,	 9.5475240000000003e-02,	 2.7184172593867340e-02,	 1.5900317864862125e+03,	 4.1836837484699504e+02,	 4.5487963330244736e+02,	 3.5574806670180537e+03,	 4.0927781069464692e+02,	 4.0172009336332426e+00 
3.5998380000000002e-01,	 9.6559050000000007e-02,	 2.7195255723395692e-02,	 1.5899636006714961e+03,	 4.1848811433289620e+02,	 4.5493483813234712e+02,	 3.5593629873795549e+03,	 4.0930264520557614e+02,	 4.0168705363596322e+00 
3.6402859999999998e-01,	 9.7642859999999998e-02,	 2.7206137947382171e-02,	 1.5898961733100223e+03,	 4.1860648366909209e+02,	 4.5498961849345443e+02,	 3.5612160393962363e+03,	 4.0932728727505162e+02,	 4.0165430334423906e+00 
3.6807329999999999e-01,	 9.8726670000000002e-02,	 2.7216777430262667e-02,	 1.5898298620545866e+03,	 4.1872264054840969e+02,	 4.5504366672931837e+02,	 3.5630319237796521e+03,	 4.0935159855590024e+02,	 4.0162201011815091e+00 
3.7211810000000001e-01,	 9.9810480000000007e-02,	 2.7227078575817208e-02,	 1.5897654832199673e+03,	 4.1883477701379661e+02,	 4.5509618814449760e+02,	 3.5647918813321139e+03,	 4.0937522167879143e+02,	 4.0159060454347477e+00 
3.7616290000000002e-01,	 1.0089430000000001e-01,	 2.7237175523289969e-02,	 1.5897019432312327e+03,	 4.1894549363608496e+02,	 4.5514815696853339e+02,	 3.5665210817375537e+03,	 4.0939859491514426e+02,	 4.0155955976201074e+00 
3.8020759999999998e-01,	 1.0197810000000000e-01,	 2.7246982213476087e-02,	 1.5896399298706224e+03,	 4.1905309479555842e+02,	 4.5519897652328660e+02,	 3.5682035636593596e+03,	 4.0942144997153190e+02,	 4.0152919555901558e+00 
3.8425239999999999e-01,	 1.0306190000000000e-01,	 2.7256529397856066e-02,	 1.5895793800543129e+03,	 4.1915767377833401e+02,	 4.5524871193716234e+02,	 3.5698438429292733e+03,	 4.0944381622248142e+02,	 4.0149947363037697e+00 
3.8829710000000001e-01,	 1.0414570000000001e-01,	 2.7265888868269417e-02,	 1.5895196602629217e+03,	 4.1926081297774277e+02,	 4.5529794710873762e+02,	 3.5714558834317195e+03,	 4.0946595630876044e+02,	 4.0147008504111001e+00 
3.9234190000000002e-01,	 1.0522950000000000e-01,	 2.7274941127356803e-02,	 1.5894616614399858e+03,	 4.1936028889050056e+02,	 4.5534581320931989e+02,	 3.5730172014220461e+03,	 4.0948747960319827e+02,	 4.0144148441066427e+00 
3.9638669999999998e-01,	 1.0631330000000000e-01,	 2.7283903277586653e-02,	 1.5894039178069529e+03,	 4.1945920537644201e+02,	 4.5539368283701697e+02,	 3.5745669909102053e+03,	 4.0950900335226243e+02,	 4.0141291356475675e+00 
4.0043139999999999e-01,	 1.0739710000000001e-01,	 2.7292933574590530e-02,	 1.5893450994277046e+03,	 4.1956039851119169e+02,	 4.5544269188084684e+02,	 3.5761349030447113e+03,	 4.0953103824812320e+02,	 4.0138373470332995e+00 
4.0447620000000001e-01,	 1.0848100000000001e-01,	 2.7301694218211575e-02,	 1.5892878072277558e+03,	 4.1965839324780012e+02,	 4.5549055857657618e+02,	 3.5776587613224565e+03,	 4.0955255838985948e+02,	 4.0135522623991555e+00 
4.0852100000000002e-01,	 1.0956480000000000e-01,	 2.7309883049642235e-02,	 1.5892343728766441e+03,	 4.1974816474433612e+02,	 4.5553505802319523e+02,	 3.5790814657522587e+03,	 4.0957256365315845e+02,	 4.0132860490674389e+00 
4.1256569999999998e-01,	 1.1064860000000000e-01,	 2.7317953289406290e-02,	 1.5891814435863994e+03,	 4.1983759637898055e+02,	 4.5557936140573827e+02,	 3.5804872954633847e+03,	 4.0959247980283936e+02,	 4.0130217300653017e+00 
4.1661049999999999e-01,	 1.1173240000000001e-01,	 2.7325836768596248e-02,	 1.5891294130288356e+03,	 4.1992532843379462e+02,	 4.5562299529891135e+02,	 3.5818635871678762e+03,	 4.0961209404363865e+02,	 4.0127614705050112e+00 
4.2065520000000001e-01,	 1.1281620000000001e-01,	 2.7333596850466952e-02,	 1.5890780184916825e+03,	 4.2001193449618120e+02,	 4.5566630329846760e+02,	 3.5832213376319423e+03,	 4.0963156086055278e+02,	 4.0125034929374888e+00 
4.2470000000000002e-01,	 1.1390000000000000e-01,	 2.7341097216801460e-02,	 1.5890280859701761e+03,	 4.2009559765409836e+02,	 4.5570836881438834e+02,	 3.5845354583567287e+03,	 4.0965046829912558e+02,	 4.0122526467806985e+00 
4.2874479999999998e-01,	 1.1498380000000000e-01,	 2.7348524695703813e-02,	 1.5889782714484113e+03,	 4.2017905952638932e+02,	 4.5575049152597103e+02,	 3.5858406538969298e+03,	 4.0966940057135997e+02,	 4.0120017464565478e+00 
4.3278949999999999e-01,	 1.1606760000000001e-01,	 2.7355843936123524e-02,	 1.5889290129675078e+03,	 4.2026142234407479e+02,	 4.5579232834870407e+02,	 3.5871295863289893e+03,	 4.0968820348336055e+02,	 4.0117527751552133e+00 
4.3683430000000001e-01,	 1.1715140000000000e-01,	 2.7362960318109496e-02,	 1.5888808972489492e+03,	 4.2034147078786691e+02,	 4.5583229886374988e+02,	 3.5883774001550496e+03,	 4.0970616680622629e+02,	 4.0115133116374864e+00 
4.4087900000000002e-01,	 1.1823520000000000e-01,	 2.7369983258359418e-02,	 1.5888333022457359e+03,	 4.2042040578556566e+02,	 4.5587013593655684e+02,	 3.5895963235530694e+03,	 4.0972317060391816e+02,	 4.0112838084552278e+00 
4.4492379999999998e-01,	 1.1931900000000001e-01,	 2.7377017560303810e-02,	 1.5887854291267420e+03,	 4.2049951901072853e+02,	 4.5590782027605007e+02,	 3.5908156871103752e+03,	 4.0974010506262340e+02,	 4.0110544698489781e+00 
4.4896860000000000e-01,	 1.2040290000000001e-01,	 2.7384030510362329e-02,	 1.5887372798631409e+03,	 4.2057933488857361e+02,	 4.5594858534028685e+02,	 3.5920566729949578e+03,	 4.0975842313877826e+02,	 4.0108114060260300e+00 
4.5301330000000001e-01,	 1.2148670000000000e-01,	 2.7390430176478228e-02,	 1.5886929004612280e+03,	 4.2065127713014704e+02,	 4.5599013191970505e+02,	 3.5932235280103778e+03,	 4.0977709155186369e+02,	 4.0105689221878640e+00 
4.5705810000000002e-01,	 1.2257050000000000e-01,	 2.7396627602236108e-02,	 1.5886497361571999e+03,	 4.2072171839982491e+02,	 4.5603054729795997e+02,	 3.5943550866851160e+03,	 4.0979525085844347e+02,	 4.0103333810088815e+00 
4.6110289999999998e-01,	 1.2365430000000001e-01,	 2.7402832178134218e-02,	 1.5886063716333761e+03,	 4.2079320830463416e+02,	 4.5606856753224741e+02,	 3.5954688452456689e+03,	 4.0981233325216499e+02,	 4.0101085907294118e+00 
4.6514759999999999e-01,	 1.2473810000000000e-01,	 2.7408963553025505e-02,	 1.5885632633289831e+03,	 4.2086410593328378e+02,	 4.5610587787481904e+02,	 3.5965675364215408e+03,	 4.0982909600115352e+02,	 4.0098871904644753e+00 
4.6919240000000001e-01,	 1.2582189999999999e-01,	 2.7414932652738477e-02,	 1.5885211592725841e+03,	 4.2093274461321670e+02,	 4.5614228189421090e+02,	 3.5976379156935136e+03,	 4.0984545089745700e+02,	 4.0096707646500409e+00 
4.7323710000000002e-01,	 1.2690569999999998e-01,	 2.7420816001541608e-02,	 1.5884794618859512e+03,	 4.2100078589612872e+02,	 4.5617845463085030e+02,	 3.5986953415400208e+03,	 4.0986170124109185e+02,	 4.0094559734116562e+00 
4.7728189999999998e-01,	 1.2798949999999998e-01,	 2.7426474231258602e-02,	 1.5884391281037551e+03,	 4.2106595865377653e+02,	 4.5621346327745783e+02,	 3.5997141578149776e+03,	 4.0987742801208447e+02,	 4.0092477517884166e+00 
4.8132670000000000e-01,	 1.2907330000000000e-01,	 2.7432149206896086e-02,	 1.5883984708148205e+03,	 4.2113179429430488e+02,	 4.5624887236065001e+02,	 3.6007384463959693e+03,	 4.0989333405553947e+02,	 4.0090374522805980e+00 
4.8537140000000001e-01,	 1.3015710000000000e-01,	 2.7438018381237980e-02,	 1.5883561001345151e+03,	 4.2120117241051685e+02,	 4.5628590698952547e+02,	 3.6018011746909765e+03,	 4.0990996964675372e+02,	 4.0088182172847739e+00 
4.8941620000000002e-01,	 1.3124100000000000e-01,	 2.7443691926149216e-02,	 1.5883150018310680e+03,	 4.2126793967852370e+02,	 4.5632195897909128e+02,	 3.6028305873040918e+03,	 4.0992616319757690e+02,	 4.0086046991035449e+00 
4.9346099999999998e-01,	 1.3232479999999999e-01,	 2.7448820815573160e-02,	 1.5882776876689820e+03,	 4.2132670497670756e+02,	 4.5635458958019694e+02,	 3.6037615909607466e+03,	 4.0994081940437866e+02,	 4.0084101555948131e+00 
4.9750570000000000e-01,	 1.3340859999999999e-01,	 2.7453933482728142e-02,	 1.5882403916787036e+03,	 4.2138617882626278e+02,	 4.5638740230949514e+02,	 3.6046919994420000e+03,	 4.0995555688665490e+02,	 4.0082153239601865e+00 
5.0155050000000001e-01,	 1.3449239999999998e-01,	 2.7458946229818766e-02,	 1.5882035889593471e+03,	 4.2144478079238019e+02,	 4.5641983661259258e+02,	 3.6056063945617120e+03,	 4.0997012388224931e+02,	 4.0080227972244264e+00 
5.0559520000000002e-01,	 1.3557619999999998e-01,	 2.7463923839451732e-02,	 1.5881669905584399e+03,	 4.2150317437719286e+02,	 4.5645225695946579e+02,	 3.6065161587680682e+03,	 4.0998468409254076e+02,	 4.0078307082811904e+00 
5.0963999999999998e-01,	 1.3665999999999998e-01,	 2.7468705546244220e-02,	 1.5881315569509570e+03,	 4.2155920509895753e+02,	 4.5648362706621128e+02,	 3.6073919887782185e+03,	 4.0999877214023900e+02,	 4.0076445219871992e+00 
5.1368480000000005e-01,	 1.3774380000000000e-01,	 2.7473506059436766e-02,	 1.5880957802453731e+03,	 4.2161596864351611e+02,	 4.5651539765608504e+02,	 3.6082735404595637e+03,	 4.1001303954812403e+02,	 4.0074562512003595e+00 
5.1772949999999995e-01,	 1.3882760000000000e-01,	 2.7478275854283994e-02,	 1.5880601850547937e+03,	 4.2167240241167752e+02,	 4.5654715075622897e+02,	 3.6091510069141395e+03,	 4.1002729860574971e+02,	 4.0072683026705853e+00 
5.2177430000000002e-01,	 1.3991139999999999e-01,	 2.7482901864333463e-02,	 1.5880253998070530e+03,	 4.2172712914851502e+02,	 4.5657816958719036e+02,	 3.6100038680888028e+03,	 4.1004122745342659e+02,	 4.0070844407284483e+00 
5.2581900000000004e-01,	 1.4099519999999999e-01,	 2.7487508511860548e-02,	 1.5879905746748209e+03,	 4.2178194159556483e+02,	 4.5660932656580337e+02,	 3.6108553607679723e+03,	 4.1005521785929739e+02,	 4.0068999550774684e+00 
5.2986380000000000e-01,	 1.4207899999999998e-01,	 2.7492210666276634e-02,	 1.5879548836619742e+03,	 4.2183827128761266e+02,	 4.5664127535176510e+02,	 3.6117257456716407e+03,	 4.1006956331444883e+02,	 4.0067109277599613e+00 
5.3390859999999996e-01,	 1.4316289999999998e-01,	 2.7496973924634852e-02,	 1.5879187204684285e+03,	 4.2189585285682313e+02,	 4.5667386846173906e+02,	 3.6126093420187244e+03,	 4.1008419756305040e+02,	 4.0065187692307047e+00 
5.3795329999999997e-01,	 1.4424669999999998e-01,	 2.7501119293212188e-02,	 1.5878868926159835e+03,	 4.2194423184340519e+02,	 4.5670253824724603e+02,	 3.6133808013458374e+03,	 4.1009706981420862e+02,	 4.0063482979492697e+00 
5.4199810000000004e-01,	 1.4533050000000000e-01,	 2.7505121842456647e-02,	 1.5878561284935142e+03,	 4.2199086236500762e+02,	 4.5673040564880347e+02,	 3.6141272135018680e+03,	 4.1010958142125548e+02,	 4.0061827765328468e+00 
5.4604290000000000e-01,	 1.4641430000000000e-01,	 2.7509231668219829e-02,	 1.5878244937459124e+03,	 4.2203963541750397e+02,	 4.5675918543058094e+02,	 3.6148950074353597e+03,	 4.1012250225834640e+02,	 4.0060125624322795e+00 
5.5008760000000001e-01,	 1.4749809999999999e-01,	 2.7513352255353299e-02,	 1.5877926981471123e+03,	 4.2208866414458703e+02,	 4.5678824669971482e+02,	 3.6156665117178791e+03,	 4.1013554905764556e+02,	 4.0058409144302134e+00 
5.5413239999999997e-01,	 1.4858189999999999e-01,	 2.7517382138441925e-02,	 1.5877614811369990e+03,	 4.2213613767120552e+02,	 4.5681683522065447e+02,	 3.6164224217303604e+03,	 4.1014838321588530e+02,	 4.0056717477067449e+00 
5.5817709999999998e-01,	 1.4966569999999998e-01,	 2.7520581379964330e-02,	 1.5877389376845131e+03,	 4.2217698506324342e+02,	 4.5683823798894690e+02,	 3.6170123325004747e+03,	 4.1015799123305629e+02,	 4.0055503869207092e+00 
2.4943370000000001e-01,	 7.1991070000000004e-02,	 2.6638064156935072e-02,	 1.5970638255724762e+03,	 3.9603971016198528e+02,	 4.5259690731492321e+02,	 3.4685198162900556e+03,	 4.0824957807129965e+02,	 4.0304664021675700e+00 
2.5348749999999998e-01,	 7.3053199999999999e-02,	 2.6660007146227026e-02,	 1.5969072907142181e+03,	 3.9649710619040741e+02,	 4.5268647815367189e+02,	 3.4720639945397797e+03,	 4.0828997323033741e+02,	 4.0299653285220227e+00 
2.5754129999999997e-01,	 7.4115330000000007e-02,	 2.6688139214327958e-02,	 1.5966881154555163e+03,	 3.9707707314912523e+02,	 4.5280517457929295e+02,	 3.4766391236966192e+03,	 4.0834349745341365e+02,	 4.0292587048493180e+00 
2.6159510000000002e-01,	 7.5177469999999996e-02,	 2.6715247149001843e-02,	 1.5964755459537582e+03,	 3.9763900334187997e+02,	 4.5292026782236519e+02,	 3.4810550329442181e+03,	 4.0839539018122048e+02,	 4.0285739451519502e+00 
2.6564900000000002e-01,	 7.6239600000000005e-02,	 2.6741293351843200e-02,	 1.5962693901837297e+03,	 3.9818454827387012e+02,	 4.5303128113795509e+02,	 3.4853029681499888e+03,	 4.0844543712302038e+02,	 4.0279136177964627e+00 
2.6970280000000002e-01,	 7.7301729999999999e-02,	 2.6766327056174093e-02,	 1.5960691054495041e+03,	 3.9871564412026487e+02,	 4.5313837201696015e+02,	 3.4893903669236242e+03,	 4.0849370994442523e+02,	 4.0272768130831986e+00 
2.7375660000000002e-01,	 7.8363870000000002e-02,	 2.6790341720339929e-02,	 1.5958747233104314e+03,	 3.9923243132065397e+02,	 4.5324131002425145e+02,	 3.4933144218799280e+03,	 4.0854010542017392e+02,	 4.0266646513543511e+00 
2.7781040000000001e-01,	 7.9425999999999997e-02,	 2.6813434423244645e-02,	 1.5956856844201072e+03,	 3.9973561209376737e+02,	 4.5334061974183368e+02,	 3.4970916643783648e+03,	 4.0858486058635503e+02,	 4.0260738323418312e+00 
2.8186430000000001e-01,	 8.0488130000000005e-02,	 2.6835711951597861e-02,	 1.5955017181133148e+03,	 4.0022536885615250e+02,	 4.5343689369434810e+02,	 3.5007404480370901e+03,	 4.0862824296768980e+02,	 4.0255011381039454e+00 
2.8591810000000001e-01,	 8.1550270000000008e-02,	 2.6857192612765712e-02,	 1.5953231519264498e+03,	 4.0070031183301194e+02,	 4.5353011378346923e+02,	 3.5042628956146182e+03,	 4.0867024484727625e+02,	 4.0249465489667609e+00 
2.8997190000000000e-01,	 8.2612400000000002e-02,	 2.6877981191994360e-02,	 1.5951494895191270e+03,	 4.0116084160587542e+02,	 4.5362088883856370e+02,	 3.5076772690748203e+03,	 4.0871114092758603e+02,	 4.0244063749175538e+00 
2.9402570000000000e-01,	 8.3674529999999997e-02,	 2.6898158718888183e-02,	 1.5949804943903487e+03,	 4.0160745864150891e+02,	 4.5370965837787162e+02,	 3.5109974482308053e+03,	 4.0875112952355352e+02,	 4.0238783597777363e+00 
2.9807960000000000e-01,	 8.4736670000000000e-02,	 2.6917713426739643e-02,	 1.5948162798825692e+03,	 4.0203992590038047e+02,	 4.5379622369829656e+02,	 3.5142202763807472e+03,	 4.0879012140333407e+02,	 4.0233634708700814e+00 
3.0213340000000000e-01,	 8.5798800000000008e-02,	 2.6936719208141217e-02,	 1.5946562513149647e+03,	 4.0245998314474684e+02,	 4.5388101698307543e+02,	 3.5173586677831549e+03,	 4.0882831149429654e+02,	 4.0228593830720074e+00 
3.0618719999999999e-01,	 8.6860930000000003e-02,	 2.6955128912196192e-02,	 1.5945005968643111e+03,	 4.0286787832041091e+02,	 4.5396359111321112e+02,	 3.5204029278501880e+03,	 4.0886549867073029e+02,	 4.0223686378334635e+00 
3.1024109999999999e-01,	 8.7923070000000006e-02,	 2.6972974540685160e-02,	 1.5943487807390979e+03,	 4.0326509579445047e+02,	 4.5404410542859245e+02,	 3.5233583955566960e+03,	 4.0890175495520185e+02,	 4.0218901144826402e+00 
3.1429489999999999e-01,	 8.8985200000000000e-02,	 2.6990291455483664e-02,	 1.5942004724838441e+03,	 4.0365299397251931e+02,	 4.5412273119018812e+02,	 3.5262309497694873e+03,	 4.0893715770549954e+02,	 4.0214230565139699e+00 
3.1834869999999998e-01,	 9.0047330000000009e-02,	 2.7007029667473648e-02,	 1.5940559599355420e+03,	 4.0403121487459214e+02,	 4.5419903423089261e+02,	 3.5290106209280079e+03,	 4.0897151167618392e+02,	 4.0209698266536114e+00 
3.2240249999999998e-01,	 9.1109469999999998e-02,	 2.7023244734050090e-02,	 1.5939147782226769e+03,	 4.0440054465804644e+02,	 4.5427332792446646e+02,	 3.5317070345339475e+03,	 4.0900495820457439e+02,	 4.0205283811124382e+00 
3.2645639999999998e-01,	 9.2171600000000006e-02,	 2.7038995808202813e-02,	 1.5937766685844908e+03,	 4.0476162215784632e+02,	 4.5434596288756296e+02,	 3.5343305883683665e+03,	 4.0903765533952514e+02,	 4.0200969155104271e+00 
3.3051019999999998e-01,	 9.3233730000000001e-02,	 2.7054269220078562e-02,	 1.5936418906927081e+03,	 4.0511361553167899e+02,	 4.5441676635937563e+02,	 3.5368780990411333e+03,	 4.0906952550042740e+02,	 4.0196762866721842e+00 
3.3456399999999997e-01,	 9.4295870000000004e-02,	 2.7069126111300940e-02,	 1.5935101316859159e+03,	 4.0545714722643442e+02,	 4.5448611934537570e+02,	 3.5393604747653135e+03,	 4.0910074035955535e+02,	 4.0192644208860679e+00 
3.3861780000000002e-01,	 9.5357999999999998e-02,	 2.7083538636820129e-02,	 1.5933816887228322e+03,	 4.0579149586046907e+02,	 4.5455375910437107e+02,	 3.5417719834362315e+03,	 4.0913118182390002e+02,	 4.0188627283237786e+00 
3.4267170000000002e-01,	 9.6420130000000007e-02,	 2.7097567227055981e-02,	 1.5932561341196731e+03,	 4.0611740950015837e+02,	 4.5462001994601570e+02,	 3.5441230877706225e+03,	 4.0916100050655115e+02,	 4.0184691485347024e+00 
3.4672550000000002e-01,	 9.7482270000000010e-02,	 2.7111249932026960e-02,	 1.5931331578199265e+03,	 4.0643588285798631e+02,	 4.5468518910448199e+02,	 3.5464209667821719e+03,	 4.0919032579073638e+02,	 4.0180822604357589e+00 
3.5077930000000002e-01,	 9.8544400000000004e-02,	 2.7124552543862479e-02,	 1.5930130063357317e+03,	 4.0674656743909247e+02,	 4.5474891119300827e+02,	 3.5486583394837653e+03,	 4.0921899788001730e+02,	 4.0177039912064139e+00 
3.5483310000000001e-01,	 9.9606529999999999e-02,	 2.7137512122017052e-02,	 1.5928953346297942e+03,	 4.0705050107242630e+02,	 4.5481143347560874e+02,	 3.5508419479058803e+03,	 4.0924712815789906e+02,	 4.0173330426998639e+00 
3.5888700000000001e-01,	 1.0066870000000000e-01,	 2.7150080592252150e-02,	 1.5927804707183639e+03,	 4.0734706696515349e+02,	 4.5487236465562108e+02,	 3.5529624125564151e+03,	 4.0927454070020639e+02,	 4.0169715313575969e+00 
3.6294080000000001e-01,	 1.0173080000000000e-01,	 2.7162306580606095e-02,	 1.5926678857138234e+03,	 4.0763729999261699e+02,	 4.5493203901742538e+02,	 3.5550286720632403e+03,	 4.0930138602864798e+02,	 4.0166173403447623e+00 
3.6699460000000000e-01,	 1.0279290000000001e-01,	 2.7174243820547034e-02,	 1.5925574556285687e+03,	 4.0792164136102980e+02,	 4.5499071117462012e+02,	 3.5570497196473243e+03,	 4.0932777878511109e+02,	 4.0162693066989670e+00 
3.7104850000000000e-01,	 1.0385510000000001e-01,	 2.7185838902231120e-02,	 1.5924495205129317e+03,	 4.0819938292589728e+02,	 4.5504800969811669e+02,	 3.5590156332257507e+03,	 4.0935355199148034e+02,	 4.0159294329180328e+00 
3.7510230000000000e-01,	 1.0491720000000000e-01,	 2.7197137192417238e-02,	 1.5923436113105026e+03,	 4.0847146321184488e+02,	 4.5510427590350389e+02,	 3.5609349926219234e+03,	 4.0937885927619652e+02,	 4.0155956595422371e+00 
3.7915610000000000e-01,	 1.0597930000000000e-01,	 2.7208155493850656e-02,	 1.5922399425294602e+03,	 4.0873746640866511e+02,	 4.5515948407955943e+02,	 3.5628097723581254e+03,	 4.0940368916238680e+02,	 4.0152683440965617e+00 
3.8320989999999999e-01,	 1.0704150000000000e-01,	 2.7218865124092165e-02,	 1.5921385150349136e+03,	 4.0899729667982893e+02,	 4.5521349140542191e+02,	 3.5646350743372086e+03,	 4.0942797750896460e+02,	 4.0149480489186180e+00 
3.8726379999999999e-01,	 1.0810360000000001e-01,	 2.7229327483054306e-02,	 1.5920389418307921e+03,	 4.0925202277521356e+02,	 4.5526664934507266e+02,	 3.5664216683180298e+03,	 4.0945188245991642e+02,	 4.0146329472994520e+00 
3.9131759999999999e-01,	 1.0916570000000000e-01,	 2.7239496429783835e-02,	 1.5919416245536904e+03,	 4.0950075482597873e+02,	 4.5531860587346279e+02,	 3.5681607324898546e+03,	 4.0947524579156453e+02,	 4.0143249906071645e+00 
3.9537139999999998e-01,	 1.1022790000000000e-01,	 2.7249416077410951e-02,	 1.5918460642116354e+03,	 4.0974422959958787e+02,	 4.5536964225675547e+02,	 3.5698602272495932e+03,	 4.0949819406310615e+02,	 4.0140221967263097e+00 
3.9942519999999998e-01,	 1.1129000000000000e-01,	 2.7259207298174271e-02,	 1.5917512674159025e+03,	 4.0998470222777814e+02,	 4.5542056238210250e+02,	 3.5715422748924489e+03,	 4.0952108877824702e+02,	 4.0137200388391863e+00 
4.0347909999999998e-01,	 1.1235210000000000e-01,	 2.7268868637515355e-02,	 1.5916576780903833e+03,	 4.1022213136559139e+02,	 4.5547132250150747e+02,	 3.5732063349858777e+03,	 4.0954391027763387e+02,	 4.0134197302912389e+00 
4.0753289999999998e-01,	 1.1341430000000001e-01,	 2.7278151479964437e-02,	 1.5915670483423901e+03,	 4.1045247708659389e+02,	 4.5552018746653908e+02,	 3.5748062022814170e+03,	 4.0956587852364805e+02,	 4.0131305893102303e+00 
4.1158670000000003e-01,	 1.1447640000000001e-01,	 2.7287161484152681e-02,	 1.5914783012705691e+03,	 4.1067780907134772e+02,	 4.5556792025347772e+02,	 3.5763616832620251e+03,	 4.0958733663817344e+02,	 4.0128479590458994e+00 
4.1564050000000002e-01,	 1.1553850000000000e-01,	 2.7295931643520281e-02,	 1.5913914077540708e+03,	 4.1089806322269203e+02,	 4.5561462309023852e+02,	 3.5778778853559488e+03,	 4.0960833065404285e+02,	 4.0125712728191694e+00 
4.1969440000000002e-01,	 1.1660070000000000e-01,	 2.7304513431561404e-02,	 1.5913059304924141e+03,	 4.1111442199977296e+02,	 4.5566071699995035e+02,	 3.5793648460592103e+03,	 4.0962904988796379e+02,	 4.0122983572421793e+00 
4.2374820000000002e-01,	 1.1766280000000000e-01,	 2.7312856646896928e-02,	 1.5912222578066619e+03,	 4.1132610565499726e+02,	 4.5570579944406057e+02,	 3.5808128087432619e+03,	 4.0964931345392887e+02,	 4.0120314199075171e+00 
4.2780200000000002e-01,	 1.1872490000000001e-01,	 2.7321019922615160e-02,	 1.5911399888034784e+03,	 4.1153374563601437e+02,	 4.5575019840128147e+02,	 3.5822320225302296e+03,	 4.0966926882796372e+02,	 4.0117684483969436e+00 
4.3185590000000001e-01,	 1.1978710000000001e-01,	 2.7329033635009957e-02,	 1.5910588342244373e+03,	 4.1173820824652040e+02,	 4.5579420491842501e+02,	 3.5836287472412764e+03,	 4.0968904685833479e+02,	 4.0115080023420777e+00 
4.3590970000000001e-01,	 1.2084920000000000e-01,	 2.7336850177088555e-02,	 1.5909791351408380e+03,	 4.1193875001659876e+02,	 4.5583789849044456e+02,	 3.5849973564255502e+03,	 4.0970868329589655e+02,	 4.0112500788100869e+00 
4.3996350000000001e-01,	 1.2191130000000000e-01,	 2.7344508555386796e-02,	 1.5909006446219068e+03,	 4.1213576655398310e+02,	 4.5588204309130458e+02,	 3.5863489664587373e+03,	 4.0972852147575082e+02,	 4.0109909708885754e+00 
4.4401730000000000e-01,	 1.2297350000000000e-01,	 2.7352030038292396e-02,	 1.5908231001042107e+03,	 4.1232943585465802e+02,	 4.5592606620600174e+02,	 3.5876818588885035e+03,	 4.0974830410432003e+02,	 4.0107326828116081e+00 
4.4807120000000000e-01,	 1.2403560000000001e-01,	 2.7359535885041968e-02,	 1.5907458708565159e+03,	 4.1252215210618073e+02,	 4.5596912571799044e+02,	 3.5890053060254550e+03,	 4.0976765279565171e+02,	 4.0104788912031308e+00 
4.5212500000000000e-01,	 1.2509770000000001e-01,	 2.7366766010178317e-02,	 1.5906710922879208e+03,	 4.1270960257259537e+02,	 4.5600849862457488e+02,	 3.5902637412128602e+03,	 4.0978534411983679e+02,	 4.0102439673131416e+00 
4.5617880000000000e-01,	 1.2615989999999999e-01,	 2.7373713069607217e-02,	 1.5905983058426227e+03,	 4.1289209243490586e+02,	 4.5604647328483463e+02,	 3.5914741898949483e+03,	 4.0980240645015294e+02,	 4.0100169418817515e+00 
4.6023259999999999e-01,	 1.2722200000000000e-01,	 2.7380490831372437e-02,	 1.5905265267310015e+03,	 4.1307148675135130e+02,	 4.5608522594004535e+02,	 3.5926687048137701e+03,	 4.0981981760771566e+02,	 4.0097870591162126e+00 
4.6428649999999999e-01,	 1.2828409999999998e-01,	 2.7387166766811636e-02,	 1.5904556960193388e+03,	 4.1324824552426253e+02,	 4.5612400860779366e+02,	 3.5938502452890148e+03,	 4.0983724150905419e+02,	 4.0095577482808231e+00 
4.6834029999999999e-01,	 1.2934630000000000e-01,	 2.7393680619209222e-02,	 1.5903861088098336e+03,	 4.1342167744212094e+02,	 4.5616219497309714e+02,	 3.5950059643154705e+03,	 4.0985439678566968e+02,	 4.0093320319131216e+00 
4.7239409999999998e-01,	 1.3040839999999998e-01,	 2.7400078931703178e-02,	 1.5903174636283911e+03,	 4.1359262098389797e+02,	 4.5620001474188143e+02,	 3.5961437725156202e+03,	 4.0987138666056785e+02,	 4.0091086995840231e+00 