TITLE = "Final State"
VARIABLES = "X", "Y", "rho", "u", "v", "T", "p", "c", "M"
ZONE I=80, J=25, DATAPACKING=POINT
9.5381020000000005e-01,	 2.7986069999999996e-01,	 4.5794550954547326e-02,	 1.5510786214027219e+03,	 1.5378391194759160e+02,	 5.7733756594571400e+02,	 7.6063019052943409e+03,	 4.6108910663714062e+02,	 3.3804388754358570e+00 
9.5459059999999996e-01,	 2.7996050000000000e-01,	 4.8354724727134410e-02,	 1.5458331378497612e+03,	 1.2759448166887114e+02,	 5.9083669199560541e+02,	 8.2193279803824571e+03,	 4.6644848035327908e+02,	 3.3253191876947823e+00 
9.5535530000000002e-01,	 2.8005829999999998e-01,	 5.0770195587936828e-02,	 1.5404144830501928e+03,	 1.0175666616177872e+02,	 6.0479600145059476e+02,	 8.8338024957350935e+03,	 4.7192654811507612e+02,	 3.2712119089947160e+00 
9.5611999999999997e-01,	 2.8015600000000002e-01,	 5.2658892407808154e-02,	 1.5363449153196912e+03,	 8.2576675799393570e+01,	 6.1517227616091634e+02,	 9.3196244622995146e+03,	 4.7595767134993207e+02,	 3.2325616447638588e+00 
9.5686959999999999e-01,	 2.8025180000000000e-01,	 5.4075652759430805e-02,	 1.5334031433583946e+03,	 6.8810736768315181e+01,	 6.2262996643229076e+02,	 9.6863850057265900e+03,	 4.7883398098640021e+02,	 3.2055918175688158e+00 
9.5761920000000000e-01,	 2.8034759999999997e-01,	 5.5125902969799578e-02,	 1.5313019094610877e+03,	 5.8931194394466644e+01,	 6.2795716495422357e+02,	 9.9589986588016709e+03,	 4.8087806077695353e+02,	 3.1867443743958530e+00 
9.5835420000000004e-01,	 2.8044150000000001e-01,	 5.5885960849698685e-02,	 1.5298284353503643e+03,	 5.1940147395707946e+01,	 6.3169359157932433e+02,	 1.0156384422913055e+04,	 4.8230658239027395e+02,	 3.1737280046709242e+00 
9.5908919999999998e-01,	 2.8053529999999999e-01,	 5.6440281671692141e-02,	 1.5287814152145947e+03,	 4.6949834088535155e+01,	 6.3434526067868865e+02,	 1.0300179886526976e+04,	 4.8331781485731494e+02,	 3.1645888640712809e+00 
9.5981019999999995e-01,	 2.8062739999999997e-01,	 5.6843167643982236e-02,	 1.5280302399889629e+03,	 4.3427130355436489e+01,	 6.3623094913035300e+02,	 1.0404542780250491e+04,	 4.8403564990237385e+02,	 3.1581294115810206e+00 
9.6053109999999997e-01,	 2.8071940000000001e-01,	 5.7143667823478822e-02,	 1.5274705867993305e+03,	 4.0907926416572046e+01,	 6.3761231224408289e+02,	 1.0482255584017043e+04,	 4.8456082591016565e+02,	 3.1534086008548132e+00 
9.6123840000000005e-01,	 2.8080959999999999e-01,	 5.7369678428685081e-02,	 1.5270451363924376e+03,	 3.9107602479927834e+01,	 6.3863544096213241e+02,	 1.0540600878107813e+04,	 4.8494943930896301e+02,	 3.1499073986656825e+00 
9.6194579999999996e-01,	 2.8089989999999998e-01,	 5.7545155138155557e-02,	 1.5267097946961471e+03,	 3.7782764281089086e+01,	 6.3941742333103457e+02,	 1.0585787429448117e+04,	 4.8524624862513110e+02,	 3.1472211239064363e+00 
9.6264000000000005e-01,	 2.8098839999999997e-01,	 5.7682994442029539e-02,	 1.5264409861252022e+03,	 3.6793048897084901e+01,	 6.4002150917890356e+02,	 1.0621168638152940e+04,	 4.8547541128180438e+02,	 3.1451321995905115e+00 
9.6333429999999998e-01,	 2.8107689999999996e-01,	 5.7795573785245968e-02,	 1.5262162502019064e+03,	 3.6025242376316399e+01,	 6.4050651640855608e+02,	 1.0649962282831802e+04,	 4.8565932267398625e+02,	 3.1434408746088618e+00 
9.6401590000000004e-01,	 2.8116379999999996e-01,	 5.7889254412418024e-02,	 1.5260332752433651e+03,	 3.5420486242692036e+01,	 6.4090392248370176e+02,	 1.0673843309466078e+04,	 4.8580996441767479e+02,	 3.1420604783560369e+00 
9.6469760000000004e-01,	 2.8125069999999996e-01,	 5.7970731638301236e-02,	 1.5258835799960450e+03,	 3.4926501106999595e+01,	 6.4124513594556856e+02,	 1.0694557082967847e+04,	 4.8593926838724161e+02,	 3.1408930078379940e+00 
9.6536699999999998e-01,	 2.8133599999999997e-01,	 5.8043145740712419e-02,	 1.5257470472389909e+03,	 3.4516068889962071e+01,	 6.4154521164028279e+02,	 1.0712927035546925e+04,	 4.8605295463617529e+02,	 3.1398583240825881e+00 
9.6603649999999996e-01,	 2.8142129999999999e-01,	 5.8110009263908260e-02,	 1.5255986707438105e+03,	 3.4161201194966054e+01,	 6.4181951632343214e+02,	 1.0729853714386551e+04,	 4.8615685405804788e+02,	 3.1388657361027748e+00 
9.6669430000000001e-01,	 2.8150510000000001e-01,	 5.8171755227945723e-02,	 1.5254462426025652e+03,	 3.3849750625908868e+01,	 6.4207137402242506e+02,	 1.0745469934819770e+04,	 4.8625223160102746e+02,	 3.1379223812182557e+00 
9.6735210000000005e-01,	 2.8158879999999997e-01,	 5.8229964435606629e-02,	 1.5253053170171752e+03,	 3.3565911422532238e+01,	 6.4231088809169614e+02,	 1.0760234753167964e+04,	 4.8634291730681963e+02,	 3.1370346811174432e+00 
9.6799869999999999e-01,	 2.8167110000000001e-01,	 5.8285030515710254e-02,	 1.5251760499404631e+03,	 3.3305366167326547e+01,	 6.4253262349231329e+02,	 1.0774128446101960e+04,	 4.8642685651621292e+02,	 3.1362159220030574e+00 
9.6864519999999998e-01,	 2.8175339999999999e-01,	 5.8338491515708996e-02,	 1.5250542227966403e+03,	 3.3058369295979659e+01,	 6.4274063275415119e+02,	 1.0787501985218274e+04,	 4.8650558645150937e+02,	 3.1354469996397887e+00 
9.6928099999999995e-01,	 2.8183429999999998e-01,	 5.8390195801791250e-02,	 1.5249370414756168e+03,	 3.2824920591093914e+01,	 6.4294203095955322e+02,	 1.0800445924130076e+04,	 4.8658180201405435e+02,	 3.1347047494592521e+00 
9.6991680000000002e-01,	 2.8191519999999998e-01,	 5.8440857826116577e-02,	 1.5248229661856321e+03,	 3.2598275542751459e+01,	 6.4313998861073014e+02,	 1.0813145160669081e+04,	 4.8665670392811609e+02,	 3.1339779428910197e+00 
9.7054220000000002e-01,	 2.8199479999999999e-01,	 5.8490145586665737e-02,	 1.5247121302832948e+03,	 3.2379828890016711e+01,	 6.4333252049703287e+02,	 1.0825504512759406e+04,	 4.8672954181999393e+02,	 3.1332717260442022e+00 
9.7116760000000002e-01,	 2.8207430000000000e-01,	 5.8538894798656496e-02,	 1.5246028090702248e+03,	 3.2167077066529693e+01,	 6.4352287577756852e+02,	 1.0837732962426697e+04,	 4.8680154555281314e+02,	 3.1325745087792161e+00 
9.7178310000000001e-01,	 2.8215249999999997e-01,	 5.8586651434872017e-02,	 1.5244956488647824e+03,	 3.1961110987295807e+01,	 6.4370908955980588e+02,	 1.0849713129406189e+04,	 4.8687197242002787e+02,	 3.1318924304698146e+00 
9.7239860000000000e-01,	 2.8223080000000000e-01,	 5.8634004139660550e-02,	 1.5243897901491473e+03,	 3.1758160656105467e+01,	 6.4389326584223909e+02,	 1.0861589217410545e+04,	 4.8694161867655890e+02,	 3.1312184261341378e+00 
9.7300460000000000e-01,	 2.8230780000000000e-01,	 5.8680468116471471e-02,	 1.5242859206036101e+03,	 3.1560012760592542e+01,	 6.4407351968260173e+02,	 1.0873239426405997e+04,	 4.8700977201767444e+02,	 3.1305585531144060e+00 
9.7361059999999999e-01,	 2.8238479999999999e-01,	 5.8726603011133395e-02,	 1.5241830886303580e+03,	 3.1364076687008591e+01,	 6.4425214806852978e+02,	 1.0884805997395149e+04,	 4.8707730137258244e+02,	 3.1299051492936258e+00 
9.7420750000000000e-01,	 2.8246060000000001e-01,	 5.8771960553559176e-02,	 1.5240819329958777e+03,	 3.1172200539989888e+01,	 6.4442744836501936e+02,	 1.0896176917854818e+04,	 4.8714356346275389e+02,	 3.1292637285379987e+00 
9.7480440000000002e-01,	 2.8253639999999997e-01,	 5.8817103801463669e-02,	 1.5239816549867801e+03,	 3.0982097541833546e+01,	 6.4460149338026702e+02,	 1.0907491431857406e+04,	 4.8720934215149987e+02,	 3.1286275098398000e+00 
9.7539260000000005e-01,	 2.8261110000000000e-01,	 5.8861539987484043e-02,	 1.5238828903847143e+03,	 3.0795971973517545e+01,	 6.4477258862760948e+02,	 1.0918629356708372e+04,	 4.8727399734779362e+02,	 3.1280019927658902e+00 
9.7598090000000004e-01,	 2.8268579999999999e-01,	 5.8905783816126447e-02,	 1.5237848565888212e+03,	 3.0611289954995005e+01,	 6.4494266373453229e+02,	 1.0929718676846442e+04,	 4.8733825854190053e+02,	 3.1273807744830178e+00 
9.7656080000000001e-01,	 2.8275939999999999e-01,	 5.8949369093064710e-02,	 1.5236882311445515e+03,	 3.0430102147049901e+01,	 6.4510999836272208e+02,	 1.0940643626211770e+04,	 4.8740147600446642e+02,	 3.1267694927116731e+00 
9.7714080000000003e-01,	 2.8283300000000000e-01,	 5.8992788180926674e-02,	 1.5235923123390953e+03,	 3.0250109419772613e+01,	 6.4527637163587190e+02,	 1.0951525604419492e+04,	 4.8746432214813524e+02,	 3.1261622920344121e+00 
9.7771290000000000e-01,	 2.8290559999999998e-01,	 5.9035587428536172e-02,	 1.5234977129329507e+03,	 3.0073344635975420e+01,	 6.4544019379759948e+02,	 1.0962253312722958e+04,	 4.8752619671431995e+02,	 3.1255643558612007e+00 
9.7828499999999996e-01,	 2.8297810000000001e-01,	 5.9078234242476428e-02,	 1.5234037538021785e+03,	 2.9897711707825827e+01,	 6.4560316361068567e+02,	 1.0972942256031494e+04,	 4.8758774156329036e+02,	 3.1249700842110983e+00 
9.7884959999999999e-01,	 2.8304979999999996e-01,	 5.9120318652496409e-02,	 1.5233110429848116e+03,	 2.9724990339932560e+01,	 6.4576377294352847e+02,	 1.0983490565166627e+04,	 4.8764838738757430e+02,	 3.1243844391264060e+00 
9.7941429999999996e-01,	 2.8312139999999997e-01,	 5.9162239103123904e-02,	 1.5232188535257087e+03,	 2.9553541071557476e+01,	 6.4592367657747286e+02,	 1.0994000283739082e+04,	 4.8770875924951207e+02,	 3.1238018531183287e+00 
9.7997179999999995e-01,	 2.8319200000000000e-01,	 5.9203641005214178e-02,	 1.5231278300222598e+03,	 2.9384750497454412e+01,	 6.4608136109043880e+02,	 1.1004379677399058e+04,	 4.8776828596143338e+02,	 3.1232273566859741e+00 
9.8052940000000000e-01,	 2.8326269999999998e-01,	 5.9244909861285860e-02,	 1.5230373694468112e+03,	 2.9217039465037491e+01,	 6.4623833001910293e+02,	 1.1014725895006379e+04,	 4.8782753532228986e+02,	 3.1226560095307616e+00 
9.8108019999999996e-01,	 2.8333249999999999e-01,	 5.9285668312279424e-02,	 1.5229479785460135e+03,	 2.9051922675209148e+01,	 6.4639324460289242e+02,	 1.1024945884017376e+04,	 4.8788600219718012e+02,	 3.1220921389700762e+00 
9.8163109999999998e-01,	 2.8340230000000000e-01,	 5.9326303041122380e-02,	 1.5228590886333691e+03,	 2.8887778891289077e+01,	 6.4654751139364566e+02,	 1.1035135436405240e+04,	 4.8794421762436406e+02,	 3.1215311124083027e+00 
9.8217560000000004e-01,	 2.8347129999999998e-01,	 5.9366464771239025e-02,	 1.5227712211334542e+03,	 2.8726020421157294e+01,	 6.4669984070218629e+02,	 1.1045207502448293e+04,	 4.8800169509235650e+02,	 3.1209771616604445e+00 
9.8272009999999999e-01,	 2.8354029999999997e-01,	 5.9406500662652822e-02,	 1.5226838194841498e+03,	 2.8565222514342466e+01,	 6.4685157267279283e+02,	 1.1055249461611063e+04,	 4.8805894044133879e+02,	 3.1204258511628775e+00 
9.8325870000000004e-01,	 2.8360849999999999e-01,	 5.9446095288045606e-02,	 1.5225973973333039e+03,	 2.8406693999270502e+01,	 6.4700146062727163e+02,	 1.1065181242626173e+04,	 4.8811548348925180e+02,	 3.1198812859887330e+00 
9.8379729999999999e-01,	 2.8367670000000000e-01,	 5.9485567582560517e-02,	 1.5225114245646355e+03,	 2.8249121006003300e+01,	 6.4715077791270039e+02,	 1.1075083896508761e+04,	 4.8817180474876909e+02,	 3.1193392539576621e+00 
9.8433029999999999e-01,	 2.8374420000000000e-01,	 5.9524614744461281e-02,	 1.5224263664702314e+03,	 2.8093581959792814e+01,	 6.4729837716451220e+02,	 1.1084881350721978e+04,	 4.8822747159460891e+02,	 3.1188035100904501e+00 
9.8486330000000000e-01,	 2.8381170000000000e-01,	 5.9563554341424435e-02,	 1.5223417585006589e+03,	 2.7938881672735839e+01,	 6.4744540065412889e+02,	 1.1094652219109470e+04,	 4.8828291498333340e+02,	 3.1182703005095571e+00 
9.8539109999999996e-01,	 2.8387849999999998e-01,	 5.9602098004133533e-02,	 1.5222580183763134e+03,	 2.7786237023842077e+01,	 6.4759081399896831e+02,	 1.1104325006490613e+04,	 4.8833774498563224e+02,	 3.1177430133003083e+00 
9.8591890000000004e-01,	 2.8394530000000001e-01,	 5.9640522271206725e-02,	 1.5221746929611263e+03,	 2.7634432363991493e+01,	 6.4773569290870319e+02,	 1.1113969599530055e+04,	 4.8839236735052185e+02,	 3.1172180806622736e+00 
9.8644180000000004e-01,	 2.8401139999999997e-01,	 5.9678575157582681e-02,	 1.5220921886961928e+03,	 2.7484488145573014e+01,	 6.4787904672624961e+02,	 1.1123521989146715e+04,	 4.8844640871166905e+02,	 3.1166987527171912e+00 
9.8696479999999998e-01,	 2.8407759999999999e-01,	 5.9716526099756639e-02,	 1.5220100786642317e+03,	 2.7335226176137709e+01,	 6.4802191472180607e+02,	 1.1133050165427403e+04,	 4.8850026098010653e+02,	 3.1161816075135782e+00 
9.8748320000000001e-01,	 2.8414319999999998e-01,	 5.9754133148967034e-02,	 1.5219287459562418e+03,	 2.7187654372824216e+01,	 6.4816335232102017e+02,	 1.1142492745016381e+04,	 4.8855356823171309e+02,	 3.1156697340326720e+00 
9.8800169999999998e-01,	 2.8420879999999998e-01,	 5.9791632529199265e-02,	 1.5218477628852427e+03,	 2.7040941842820523e+01,	 6.4830434519529558e+02,	 1.1151910653443310e+04,	 4.8860670207986459e+02,	 3.1151598532003320e+00 
9.8851599999999995e-01,	 2.8427379999999997e-01,	 5.9828816184017780e-02,	 1.5217675019457390e+03,	 2.6895767240341534e+01,	 6.4844401608214082e+02,	 1.1161249949835950e+04,	 4.8865933203419507e+02,	 3.1146548565331913e+00 
9.8903030000000003e-01,	 2.8433890000000001e-01,	 5.9865902621633368e-02,	 1.5216875972415723e+03,	 2.6751315252657740e+01,	 6.4858323278862952e+02,	 1.1170566272049817e+04,	 4.8871178520681343e+02,	 3.1141518776937591e+00 
9.8954089999999995e-01,	 2.8440339999999997e-01,	 5.9902699115409158e-02,	 1.5216083420714381e+03,	 2.6608350693278403e+01,	 6.4872125224601211e+02,	 1.1179810818946398e+04,	 4.8876378173087215e+02,	 3.1136533253088952e+00 
9.9005149999999997e-01,	 2.8446800000000000e-01,	 5.9939398633019600e-02,	 1.5215294045647797e+03,	 2.6466049858435724e+01,	 6.4885886298764012e+02,	 1.1189033137269038e+04,	 4.8881561877164609e+02,	 3.1131565950178999e+00 
9.9055859999999996e-01,	 2.8453210000000001e-01,	 5.9975827262901585e-02,	 1.5214510511550029e+03,	 2.6325051417086407e+01,	 6.4899538389944360e+02,	 1.1198188978809760e+04,	 4.8886703984943614e+02,	 3.1126638859364921e+00 
9.9106570000000005e-01,	 2.8459619999999997e-01,	 6.0012184984745962e-02,	 1.5213730076091106e+03,	 2.6184710350293020e+01,	 6.4913151122099805e+02,	 1.1207327644379535e+04,	 4.8891830729533388e+02,	 3.1121729414473065e+00 
9.9156979999999995e-01,	 2.8465989999999997e-01,	 6.0048281833128658e-02,	 1.5212954942144756e+03,	 2.6045701789598425e+01,	 6.4926666015507135e+02,	 1.1216403527008604e+04,	 4.8896920094939713e+02,	 3.1116856352999247e+00 
9.9207380000000001e-01,	 2.8472359999999997e-01,	 6.0084303792232091e-02,	 1.5212182570600921e+03,	 2.5907170844307611e+01,	 6.4940144031939872e+02,	 1.1225461850670568e+04,	 4.8901995045916181e+02,	 3.1111999545487210e+00 
9.9257519999999999e-01,	 2.8478690000000001e-01,	 6.0120112469628895e-02,	 1.5211415334244234e+03,	 2.5769859932984446e+01,	 6.4953530878122388e+02,	 1.1234467343531827e+04,	 4.8907035146778804e+02,	 3.1107177086112214e+00 
9.9307650000000003e-01,	 2.8485030000000000e-01,	 6.0155842777649925e-02,	 1.5210650804951933e+03,	 2.5633066457648955e+01,	 6.4966882817793987e+02,	 1.1243454905851842e+04,	 4.8912061588138670e+02,	 3.1102370266982660e+00 
9.9357540000000000e-01,	 2.8491329999999998e-01,	 6.0191373928401536e-02,	 1.5209890771784310e+03,	 2.5497369360281965e+01,	 6.4980153767115712e+02,	 1.1252393957108723e+04,	 4.8917057028253549e+02,	 3.1097593956181750e+00 
9.9407440000000002e-01,	 2.8497639999999996e-01,	 6.0226831876266644e-02,	 1.5209133100856493e+03,	 2.5362153109650510e+01,	 6.4993394250925303e+02,	 1.1261316755173375e+04,	 4.8922040492234413e+02,	 3.1092831466856388e+00 
9.9457130000000005e-01,	 2.8503909999999999e-01,	 6.0262107425030673e-02,	 1.5208379448045057e+03,	 2.5227927788174789e+01,	 6.5006561947874889e+02,	 1.1270195523253667e+04,	 4.8926996057224864e+02,	 3.1088096462918577e+00 
9.9506819999999996e-01,	 2.8510189999999996e-01,	 6.0297337830136508e-02,	 1.5207628588393197e+03,	 2.5094064380977816e+01,	 6.5019694981885027e+02,	 1.1279062506502283e+04,	 4.8931938077182241e+02,	 3.1083377089372579e+00 
9.9556339999999999e-01,	 2.8516449999999999e-01,	 6.0332393803389076e-02,	 1.5206881236304050e+03,	 2.4961222503268068e+01,	 6.5032766019771634e+02,	 1.1287888755793912e+04,	 4.8936856272163845e+02,	 3.1078681545112352e+00 
9.9605860000000002e-01,	 2.8522700000000001e-01,	 6.0367398326257579e-02,	 1.5206136054300935e+03,	 2.4828804175202059e+01,	 6.5045807847591186e+02,	 1.1296702940566387e+04,	 4.8941762983795161e+02,	 3.1073999042920217e+00 
9.9655249999999995e-01,	 2.8528939999999997e-01,	 6.0402266771976590e-02,	 1.5205394242147388e+03,	 2.4697203619504911e+01,	 6.5058793756316072e+02,	 1.1305484565298917e+04,	 4.8946648168331069e+02,	 3.1069338530394295e+00 
9.9704640000000000e-01,	 2.8535179999999999e-01,	 6.0437062292501405e-02,	 1.5204654133540548e+03,	 2.4566035561305732e+01,	 6.5071754784507493e+02,	 1.1314250817186148e+04,	 4.8951523506905858e+02,	 3.1064689047017380e+00 
9.9753919999999996e-01,	 2.8541400000000000e-01,	 6.0471760623403585e-02,	 1.5203917128711594e+03,	 2.4435467189698876e+01,	 6.5084664988103998e+02,	 1.1322992623647175e+04,	 4.8956379244961460e+02,	 3.1060059687858432e+00 
9.9803200000000003e-01,	 2.8547630000000002e-01,	 6.0506394146015760e-02,	 1.5203182083113384e+03,	 2.4305424297891957e+01,	 6.5097548463286876e+02,	 1.1331720217542526e+04,	 4.8961224449950737e+02,	 3.1055442325351139e+00 
9.9852419999999997e-01,	 2.8553839999999997e-01,	 6.0540932919081025e-02,	 1.5202449207342815e+03,	 2.4175978570703329e+01,	 6.5110394992428405e+02,	 1.1340426195501783e+04,	 4.8966055282934161e+02,	 3.1050839837973720e+00 
9.9901640000000003e-01,	 2.8560059999999998e-01,	 6.0575431158449836e-02,	 1.5201718406265595e+03,	 2.4046831418140862e+01,	 6.5123214071094105e+02,	 1.1349122348433073e+04,	 4.8970875318367888e+02,	 3.1046249657443958e+00 
9.9950819999999996e-01,	 2.8566269999999999e-01,	 6.0609844572338298e-02,	 1.5200989792601495e+03,	 2.3918312360979577e+01,	 6.5135998079769342e+02,	 1.1357799035133372e+04,	 4.8975681694887857e+02,	 3.1041673925166227e+00 
1.0000000000000000e+00,	 2.8572480000000000e-01,	 6.0642069274186701e-02,	 1.5200351907356605e+03,	 2.3797740883938964e+01,	 6.5147953562620467e+02,	 1.1365923478303410e+04,	 4.8980176145533085e+02,	 3.1037484717649231e+00 
9.5378750000000001e-01,	 2.8078490000000000e-01,	 5.1818360561488017e-02,	 1.5413653887990035e+03,	 8.1109523818345167e+01,	 6.1556642779017443e+02,	 9.1767422135565248e+03,	 4.7611012413343980e+02,	 3.2418927944022387e+00 
9.5456799999999997e-01,	 2.8088049999999998e-01,	 5.3351869516833871e-02,	 1.5381505091899421e+03,	 6.7713844442079079e+01,	 6.2223644617100786e+02,	 9.5506960765844833e+03,	 4.7868263856286535e+02,	 3.2164113414135596e+00 
9.5533279999999998e-01,	 2.8097420000000001e-01,	 5.4572153417935788e-02,	 1.5351640038250916e+03,	 5.7893053165082222e+01,	 6.2724099049893800e+02,	 9.8477147620168562e+03,	 4.8060376592695036e+02,	 3.1965110065458862e+00 
9.5609770000000005e-01,	 2.8106789999999998e-01,	 5.5469804025343718e-02,	 1.5328874148020086e+03,	 5.0878792938271935e+01,	 6.3087355195718123e+02,	 1.0067668103159685e+04,	 4.8199342506585299e+02,	 3.1820590773292965e+00 
9.5684749999999996e-01,	 2.8115970000000001e-01,	 5.6117077283964860e-02,	 1.5311808139682148e+03,	 4.5991777072448549e+01,	 6.3348563206836695e+02,	 1.0227317781660046e+04,	 4.8299022143196152e+02,	 3.1716405700418542e+00 
9.5759729999999998e-01,	 2.8125139999999998e-01,	 5.6592443057780259e-02,	 1.5298947139239754e+03,	 4.2529390848925189e+01,	 6.3541476446521506e+02,	 1.0345361761064649e+04,	 4.8372507930098675e+02,	 3.1639577942221071e+00 
9.5833250000000003e-01,	 2.8134139999999996e-01,	 5.6938819470444706e-02,	 1.5289372667959258e+03,	 4.0097874535902406e+01,	 6.3682968151502962e+02,	 1.0431858628735725e+04,	 4.8426334997705248e+02,	 3.1583289948897249e+00 
9.5906769999999997e-01,	 2.8143140000000000e-01,	 5.7197827045552464e-02,	 1.5282171491492063e+03,	 3.8329733375977213e+01,	 6.3789427094963230e+02,	 1.0496830136436352e+04,	 4.8466795295239683e+02,	 3.1541135426752698e+00 
9.5978889999999994e-01,	 2.8151949999999998e-01,	 5.7392184269613483e-02,	 1.5276751577473012e+03,	 3.7037868286565654e+01,	 6.3869524475393496e+02,	 1.0545723345250186e+04,	 4.8497214485779421e+02,	 3.1509522600076871e+00 
9.6050999999999997e-01,	 2.8160770000000002e-01,	 5.7544385301184366e-02,	 1.5272549908251833e+03,	 3.6055954462233117e+01,	 6.3932266754479565e+02,	 1.0584077117739636e+04,	 4.8521029277555169e+02,	 3.1484916228952282e+00 
9.6121760000000001e-01,	 2.8169420000000001e-01,	 5.7665852556778890e-02,	 1.5269227107021816e+03,	 3.5307345421537619e+01,	 6.3982251221496085e+02,	 1.0614710926279697e+04,	 4.8539993284701598e+02,	 3.1465411555979554e+00 
9.6192509999999998e-01,	 2.8178070000000000e-01,	 5.7767746469494473e-02,	 1.5266503251334948e+03,	 3.4713991101245995e+01,	 6.4024062579072597e+02,	 1.0640415614121488e+04,	 4.8555850741421966e+02,	 3.1449247119128239e+00 
9.6261960000000002e-01,	 2.8186559999999999e-01,	 5.7854742092836753e-02,	 1.5264239563872468e+03,	 3.4237652159065384e+01,	 6.4059601679542368e+02,	 1.0662354880934938e+04,	 4.8569325299149000e+02,	 3.1435641190249379e+00 
9.6331409999999995e-01,	 2.8195039999999999e-01,	 5.7932041228008581e-02,	 1.5262345100038365e+03,	 3.3835548916445305e+01,	 6.4090999327071245e+02,	 1.0681833686825468e+04,	 4.8581226526319489e+02,	 3.1423857079906097e+00 
9.6399599999999996e-01,	 2.8203370000000000e-01,	 5.8001424889793055e-02,	 1.5260707126241653e+03,	 3.3489562170359015e+01,	 6.4119002474896797e+02,	 1.0699299815620467e+04,	 4.8591838614697986e+02,	 3.1413467271002968e+00 
9.6467780000000003e-01,	 2.8211690000000000e-01,	 5.8066040157541993e-02,	 1.5259088657257239e+03,	 3.3178942742370573e+01,	 6.4144920975420018e+02,	 1.0715548887611842e+04,	 4.8601658639173218e+02,	 3.1403651289651910e+00 
9.6534750000000003e-01,	 2.8219869999999997e-01,	 5.8126329715616598e-02,	 1.5257486444839510e+03,	 3.2898268009553810e+01,	 6.4168966518856325e+02,	 1.0730695797227019e+04,	 4.8610767262081180e+02,	 3.1394346690421702e+00 
9.6601729999999997e-01,	 2.8228039999999999e-01,	 5.8183760759349237e-02,	 1.5256046389266846e+03,	 3.2637194460306659e+01,	 6.4191756983113112e+02,	 1.0745113051635699e+04,	 4.8619398876889352e+02,	 3.1385696600369299e+00 
9.6667530000000002e-01,	 2.8236069999999996e-01,	 5.8238487490783308e-02,	 1.5254782027094761e+03,	 3.2394127289442679e+01,	 6.4213322695615648e+02,	 1.0758833034651736e+04,	 4.8627565220812477e+02,	 3.1377719776969357e+00 
9.6733340000000001e-01,	 2.8244100000000000e-01,	 5.8291986406192750e-02,	 1.5253569260441948e+03,	 3.2161624929535122e+01,	 6.4234097290152772e+02,	 1.0772200236420851e+04,	 4.8635430693381022e+02,	 3.1370051113047959e+00 
9.6798019999999996e-01,	 2.8251979999999999e-01,	 5.8343877008175088e-02,	 1.5252388718303557e+03,	 3.1940042260707905e+01,	 6.4254289136007674e+02,	 1.0785178709842274e+04,	 4.8643074312562635e+02,	 3.1362599611648059e+00 
9.6862700000000002e-01,	 2.8259869999999998e-01,	 5.8394994711673663e-02,	 1.5251221687148857e+03,	 3.1723771446815022e+01,	 6.4274459793484016e+02,	 1.0798016733030490e+04,	 4.8650708711871704e+02,	 3.1355187076243718e+00 
9.6926299999999999e-01,	 2.8267619999999999e-01,	 5.8444863560284839e-02,	 1.5250082089738435e+03,	 3.1514950130759246e+01,	 6.4294080601939072e+02,	 1.0810537233705558e+04,	 4.8658133849335820e+02,	 3.1347971830015173e+00 
9.6989899999999996e-01,	 2.8275370000000000e-01,	 5.8494220697580514e-02,	 1.5248960144801497e+03,	 3.1309636200758078e+01,	 6.4313386055898741e+02,	 1.0822915615180675e+04,	 4.8665438540911595e+02,	 3.1340874672100836e+00 
9.7052470000000002e-01,	 2.8282999999999997e-01,	 5.8542517545783879e-02,	 1.5247863638094100e+03,	 3.1109325722886567e+01,	 6.4332201640260860e+02,	 1.0835020734718642e+04,	 4.8672556823419416e+02,	 3.1333954553212995e+00 
9.7115039999999997e-01,	 2.8290620000000000e-01,	 5.8590395373530411e-02,	 1.5246781117997566e+03,	 3.0911292626771054e+01,	 6.4350802802568376e+02,	 1.0847017365069418e+04,	 4.8679592962948726e+02,	 3.1327119522607445e+00 
9.7176620000000002e-01,	 2.8298119999999999e-01,	 5.8637388929846823e-02,	 1.5245718493828631e+03,	 3.0717775636328415e+01,	 6.4369023968962949e+02,	 1.0858791260792161e+04,	 4.8686484378008089e+02,	 3.1320422811533519e+00 
9.7238190000000002e-01,	 2.8305619999999998e-01,	 5.8684097639333195e-02,	 1.5244666060122313e+03,	 3.0526215648311780e+01,	 6.4387107051031535e+02,	 1.0870494006185207e+04,	 4.8693322604025809e+02,	 3.1313784422119619e+00 
9.7298819999999997e-01,	 2.8312999999999999e-01,	 5.8730014432048026e-02,	 1.5243631131919408e+03,	 3.0338752123478436e+01,	 6.4404863020667426e+02,	 1.0881999607951531e+04,	 4.8700036196219673e+02,	 3.1307266113957222e+00 
9.7359450000000003e-01,	 2.8320370000000000e-01,	 5.8775690803751064e-02,	 1.5242605620435568e+03,	 3.0152847259846453e+01,	 6.4422497538180983e+02,	 1.0893444804486295e+04,	 4.8706702951045770e+02,	 3.1300800127507915e+00 
9.7419169999999999e-01,	 2.8327639999999998e-01,	 5.8820645190482038e-02,	 1.5241596888926704e+03,	 2.9970337613362034e+01,	 6.4439823333741776e+02,	 1.0904708543945815e+04,	 4.8713252104518409e+02,	 3.1294447725291286e+00 
9.7478889999999996e-01,	 2.8334909999999996e-01,	 5.8865356665982548e-02,	 1.5240596295910398e+03,	 2.9789226846693573e+01,	 6.4457042327379691e+02,	 1.0915913632619235e+04,	 4.8719760014600945e+02,	 3.1288141218886918e+00 
9.7537739999999995e-01,	 2.8342059999999997e-01,	 5.8909385418557295e-02,	 1.5239610652840297e+03,	 2.9611439449040937e+01,	 6.4473978932866657e+02,	 1.0926948655364698e+04,	 4.8726160348285146e+02,	 3.1281937893011431e+00 
9.7596590000000005e-01,	 2.8349219999999997e-01,	 5.8953236353631699e-02,	 1.5238632192735367e+03,	 2.9434798701081874e+01,	 6.4490826284772356e+02,	 1.0937939839369734e+04,	 4.8732526119130216e+02,	 3.1275773985910584e+00 
9.7654620000000003e-01,	 2.8356270000000000e-01,	 5.8996445599641088e-02,	 1.5237667529258470e+03,	 2.9261323247921858e+01,	 6.4507413143438191e+02,	 1.0948771973503557e+04,	 4.8738792650372233e+02,	 3.1269705318476442e+00 
9.7712639999999995e-01,	 2.8363329999999998e-01,	 5.9039488600064215e-02,	 1.5236709521578787e+03,	 2.9088879381719565e+01,	 6.4523917315448432e+02,	 1.0959563326528250e+04,	 4.8745027142921225e+02,	 3.1263673212172085e+00 
9.7769879999999998e-01,	 2.8370279999999998e-01,	 5.9081932168624993e-02,	 1.5235764424279516e+03,	 2.8919458325784380e+01,	 6.4540179241317526e+02,	 1.0970206289651838e+04,	 4.8751169346556554e+02,	 3.1257729867050776e+00 
9.7827120000000001e-01,	 2.8377239999999998e-01,	 5.9124215317252662e-02,	 1.5234825348656004e+03,	 2.8751038769363468e+01,	 6.4556366531360629e+02,	 1.0980810734951816e+04,	 4.8757282591453742e+02,	 3.1251819694664427e+00 
9.7883620000000005e-01,	 2.8384100000000001e-01,	 5.9165927388667695e-02,	 1.5233898394231949e+03,	 2.8585327025300650e+01,	 6.4572325033715310e+02,	 1.0991274085468647e+04,	 4.8763308682838084e+02,	 3.1245993117426587e+00 
9.7940110000000002e-01,	 2.8390959999999998e-01,	 5.9207512297743292e-02,	 1.5232977272559979e+03,	 2.8420579593369517e+01,	 6.4588213081677725e+02,	 1.1001705636361876e+04,	 4.8769307430254196e+02,	 3.1240198184167260e+00 
9.7995900000000002e-01,	 2.8397739999999999e-01,	 5.9248557709787070e-02,	 1.5232067530917695e+03,	 2.8258433048581573e+01,	 6.4603886630757563e+02,	 1.1012004154753567e+04,	 4.8775224467817651e+02,	 3.1234481675358805e+00 
9.8051679999999997e-01,	 2.8404509999999999e-01,	 5.9289456284090124e-02,	 1.5231162854292329e+03,	 2.8097315173578970e+01,	 6.4619497293790573e+02,	 1.1022268350125121e+04,	 4.8781117051394608e+02,	 3.1228793324985955e+00 
9.8106800000000005e-01,	 2.8411199999999998e-01,	 5.9329864263922255e-02,	 1.5230268920830492e+03,	 2.7938600330337255e+01,	 6.4634906701527768e+02,	 1.1032410640677395e+04,	 4.8786932968778285e+02,	 3.1223178676442509e+00 
9.8161909999999997e-01,	 2.8417890000000001e-01,	 5.9370148027139379e-02,	 1.5229379903222757e+03,	 2.7780775355147274e+01,	 6.4650256309677422e+02,	 1.1042523196308235e+04,	 4.8792725627012277e+02,	 3.1217590985348718e+00 
9.8216400000000004e-01,	 2.8424499999999997e-01,	 5.9409959800515645e-02,	 1.5228500993399196e+03,	 2.7625318229315496e+01,	 6.4665417416249909e+02,	 1.1052519282995137e+04,	 4.8798446473229905e+02,	 3.1212072470692851e+00 
9.8270880000000005e-01,	 2.8431109999999998e-01,	 5.9449642637292618e-02,	 1.5227626779241384e+03,	 2.7470767605798134e+01,	 6.4680519857769457e+02,	 1.1062484816268568e+04,	 4.8804144516240245e+02,	 3.1206580104007147e+00 
9.8324769999999995e-01,	 2.8437649999999998e-01,	 5.9488885282023611e-02,	 1.5226761997060894e+03,	 2.7318352754855894e+01,	 6.4695445671198763e+02,	 1.1072341637989790e+04,	 4.8809775265172829e+02,	 3.1201152457063435e+00 
9.8378659999999996e-01,	 2.8444179999999997e-01,	 5.9528015224283158e-02,	 1.5225901731655938e+03,	 2.7166865018871679e+01,	 6.4710316468216979e+02,	 1.1082171426368799e+04,	 4.8815384613308549e+02,	 3.1195749634704115e+00 
9.8431990000000003e-01,	 2.8450650000000000e-01,	 5.9566727015333595e-02,	 1.5225050628752879e+03,	 2.7017397609288363e+01,	 6.4725018173854914e+02,	 1.1091897721789066e+04,	 4.8820929545683225e+02,	 3.1190409008499116e+00 
9.8485319999999998e-01,	 2.8457119999999997e-01,	 5.9605326613063669e-02,	 1.5224203605340936e+03,	 2.6868710592222097e+01,	 6.4739669948029382e+02,	 1.1101597833406120e+04,	 4.8826455019280348e+02,	 3.1185090953622883e+00 
9.8538139999999996e-01,	 2.8463519999999998e-01,	 5.9643528254004471e-02,	 1.5223364903532922e+03,	 2.6722052555842755e+01,	 6.4754166926995208e+02,	 1.1111200500816867e+04,	 4.8831921501195069e+02,	 3.1179829828348975e+00 
9.8590949999999999e-01,	 2.8469919999999999e-01,	 5.9681629951606530e-02,	 1.5222530454874077e+03,	 2.6576076172972758e+01,	 6.4768611608637536e+02,	 1.1120778752350423e+04,	 4.8837367654406194e+02,	 3.1174592091866637e+00 
9.8643270000000005e-01,	 2.8476259999999998e-01,	 5.9719357273159496e-02,	 1.5221704066095399e+03,	 2.6431989904247050e+01,	 6.4782907949264165e+02,	 1.1130264909418034e+04,	 4.8842757279890827e+02,	 3.1169409048847068e+00 