TITLE = "Final State"
VARIABLES = "X", "Y", "rho", "u", "v", "T", "p", "c", "M"
ZONE I=51, J=48, DATAPACKING=POINT
1.1549980000000000e+00,	 4.6917110000000001e-01,	 1.7140861526212747e-02,	 7.3293058553086985e+02,	 -2.0616082010386606e+02,	 5.1267174527317934e+02,	 2.5281449295095390e+03,	 4.3449986418786904e+02,	 1.7522984712139293e+00 
1.1624960000000000e+00,	 4.6919600000000000e-01,	 1.7083498632802396e-02,	 7.3326461975184225e+02,	 -2.0890575899860193e+02,	 5.1180351979298666e+02,	 2.5154171814812144e+03,	 4.3413178879593181e+02,	 1.7562467305527198e+00 
1.1699930000000001e+00,	 4.6921900000000000e-01,	 1.7017262665125016e-02,	 7.3378921603181391e+02,	 -2.1184066325290047e+02,	 5.1081163173065431e+02,	 2.5008083909562915e+03,	 4.3371090562704831e+02,	 1.7609792458932154e+00 
1.1774880000000001e+00,	 4.6924030000000000e-01,	 1.6951355790083115e-02,	 7.3432339498122997e+02,	 -2.1468656733095324e+02,	 5.0982100089259518e+02,	 2.4862918024084547e+03,	 4.3329014787589551e+02,	 1.7657056311473800e+00 
1.1849810000000001e+00,	 4.6926000000000001e-01,	 1.6885685452648944e-02,	 7.3486641977390104e+02,	 -2.1744578029812951e+02,	 5.0883021785312610e+02,	 2.4718466672004893e+03,	 4.3286891639963568e+02,	 1.7704260277118031e+00 
1.1924720000000000e+00,	 4.6927809999999998e-01,	 1.6820334047818179e-02,	 7.3542176515759252e+02,	 -2.2011965298293285e+02,	 5.0784010754092969e+02,	 2.4574888216772283e+03,	 4.3244756104511396e+02,	 1.7751455596563053e+00 
1.1999610000000001e+00,	 4.6929470000000001e-01,	 1.6755374117365211e-02,	 7.3599339407331661e+02,	 -2.2271063791806336e+02,	 5.0685125448787153e+02,	 2.4432313509039959e+03,	 4.3202633056953999e+02,	 1.7798716821668521e+00 
1.2074490000000000e+00,	 4.6930980000000000e-01,	 1.6690740270304281e-02,	 7.3658258335903747e+02,	 -2.2522196915269171e+02,	 5.0586266702176692e+02,	 2.4290595718678424e+03,	 4.3160480228867874e+02,	 1.7846093347598788e+00 
1.2149360000000000e+00,	 4.6932350000000000e-01,	 1.6626323018266081e-02,	 7.3718924836557949e+02,	 -2.2765547215949468e+02,	 5.0487280625265055e+02,	 2.4149499275020653e+03,	 4.3118231819168881e+02,	 1.7893606373575017e+00 
1.2224210000000000e+00,	 4.6933589999999997e-01,	 1.6562011706066873e-02,	 7.3781386980212528e+02,	 -2.3001196631703729e+02,	 5.0388016103601819e+02,	 2.4008790623248210e+03,	 4.3075822954134651e+02,	 1.7941283819609044e+00 
1.2299050000000000e+00,	 4.6934730000000002e-01,	 1.6497695811132036e-02,	 7.3845680758239746e+02,	 -2.3229228891184692e+02,	 5.0288344950479234e+02,	 2.3868249659950029e+03,	 4.3033198312872815e+02,	 1.7989148293222168e+00 
1.2373879999999999e+00,	 4.6935769999999999e-01,	 1.6433282429242864e-02,	 7.3911813209172283e+02,	 -2.3449811818385189e+02,	 5.0188157650906766e+02,	 2.3727692762966908e+03,	 4.2990310349260909e+02,	 1.8037219800087603e+00 
1.2448690000000000e+00,	 4.6936709999999998e-01,	 1.6368748749563209e-02,	 7.3979945397933022e+02,	 -2.3663195339175053e+02,	 5.0087429396749451e+02,	 2.3587079092095046e+03,	 4.2947147638633294e+02,	 1.8085544412438219e+00 
1.2523500000000001e+00,	 4.6937570000000001e-01,	 1.6304207930385409e-02,	 7.4050395478852022e+02,	 -2.3869514180703254e+02,	 4.9986332110887031e+02,	 2.3446656077962598e+03,	 4.2903783133424844e+02,	 1.8134160411549485e+00 
1.2598300000000000e+00,	 4.6938360000000001e-01,	 1.6239903758426211e-02,	 7.4123441039164504e+02,	 -2.4068533793884026e+02,	 4.9885237873164220e+02,	 2.3306949550119225e+03,	 4.2860376063123152e+02,	 1.8183034345244322e+00 
1.2673090000000000e+00,	 4.6939059999999999e-01,	 1.6175500442413070e-02,	 7.4199915933547027e+02,	 -2.4261555177631089e+02,	 4.9783383619738260e+02,	 2.3167121389129893e+03,	 4.2816598159942851e+02,	 1.8232574415967935e+00 
1.2747869999999999e+00,	 4.6939690000000001e-01,	 1.6104188031710123e-02,	 7.4290435140505122e+02,	 -2.4468063603694935e+02,	 4.9667760960198979e+02,	 2.3011416466890369e+03,	 4.2766848159268886e+02,	 1.8288950804701145e+00 
1.2822650000000000e+00,	 4.6940260000000000e-01,	 1.5998242630458563e-02,	 7.4427673996119029e+02,	 -2.4779890756253411e+02,	 4.9491074266696302e+02,	 2.2778708520430696e+03,	 4.2690711597062131e+02,	 1.8375047576023844e+00 
1.2897419999999999e+00,	 4.6940779999999999e-01,	 1.5953638659073482e-02,	 7.4462832356411059e+02,	 -2.4932918032585695e+02,	 4.9381072351589330e+02,	 2.2664712035510033e+03,	 4.2643241700270130e+02,	 1.8414687784426065e+00 
1.2972180000000000e+00,	 4.6941230000000000e-01,	 1.6524266553864207e-02,	 7.3336782219432462e+02,	 -2.3315790296904868e+02,	 5.0540287683464902e+02,	 2.4026462848927681e+03,	 4.3140860994275488e+02,	 1.7837832525113044e+00 
1.3046940000000000e+00,	 4.6941640000000001e-01,	 1.9457098662367167e-02,	 6.9007026884041716e+02,	 -1.5627440402228538e+02,	 5.5358403796387302e+02,	 3.0987859469459208e+03,	 4.5150413613856966e+02,	 1.5670822296819258e+00 
1.3121689999999999e+00,	 4.6942000000000000e-01,	 2.3827714019575660e-02,	 6.4302720230250361e+02,	 -6.9687371783709082e+01,	 6.0291989808895391e+02,	 4.1330621276547072e+03,	 4.7119401129905992e+02,	 1.3726666941207688e+00 
1.3196440000000000e+00,	 4.6942309999999998e-01,	 2.5722089935325800e-02,	 6.2567299110026397e+02,	 -4.1155245756955054e+01,	 6.1705068624972978e+02,	 4.5662220772880410e+03,	 4.7668377872051894e+02,	 1.3153900008366417e+00 
1.3271180000000000e+00,	 4.6942560000000000e-01,	 2.5926075508663576e-02,	 6.2457883674998834e+02,	 -4.0288440567766258e+01,	 6.1534325858849797e+02,	 4.5896985914271172e+03,	 4.7602381115112917e+02,	 1.3148016456251512e+00 
1.3345910000000001e+00,	 4.6942770000000000e-01,	 2.5772949048179412e-02,	 6.2629376950897938e+02,	 -4.3112824515456047e+01,	 6.1228985995890343e+02,	 4.5399505227281943e+03,	 4.7484130202852208e+02,	 1.3220752151063750e+00 
1.3420639999999999e+00,	 4.6942940000000000e-01,	 2.5582371079866457e-02,	 6.2883013192892611e+02,	 -4.5722070948999189e+01,	 6.0972825072900741e+02,	 4.4875267403413254e+03,	 4.7384697498253098e+02,	 1.3305775785685736e+00 
1.3495370000000000e+00,	 4.6943069999999998e-01,	 2.5410513273236270e-02,	 6.3137745446222686e+02,	 -4.7937194503933902e+01,	 6.0754298282066759e+02,	 4.4414050712869584e+03,	 4.7299707828987982e+02,	 1.3386861757291364e+00 
1.3570100000000000e+00,	 4.6943170000000001e-01,	 2.5263720998549132e-02,	 6.3388833972802217e+02,	 -4.9767536578863442e+01,	 6.0558905791378970e+02,	 4.4015462892782825e+03,	 4.7223586050084452e+02,	 1.3464437032104302e+00 
1.3644820000000000e+00,	 4.6943249999999997e-01,	 2.5142442757922587e-02,	 6.3624839502093187e+02,	 -5.1420086567867870e+01,	 6.0384080472076198e+02,	 4.3677710433327156e+03,	 4.7155372750839882e+02,	 1.3536587683000274e+00 
1.3719530000000000e+00,	 4.6943289999999999e-01,	 2.5036031548986950e-02,	 6.3851869631298632e+02,	 -5.2780723585182727e+01,	 6.0221069446447814e+02,	 4.3375439806708364e+03,	 4.7091680131661434e+02,	 1.3605300126125071e+00 
1.3794249999999999e+00,	 4.6943319999999999e-01,	 2.4946211887070881e-02,	 6.4058370453585735e+02,	 -5.3863650653631964e+01,	 6.0074346298312264e+02,	 4.3114524228065502e+03,	 4.7034277852748681e+02,	 1.3667570011299706e+00 
1.3868959999999999e+00,	 4.6943319999999999e-01,	 2.4875818504411090e-02,	 6.4234121944249523e+02,	 -5.4712137984023300e+01,	 5.9950692591115921e+02,	 4.2904369254864168e+03,	 4.6985846541561972e+02,	 1.3720452860115464e+00 
1.3943669999999999e+00,	 4.6943299999999999e-01,	 2.4823898303715047e-02,	 6.4376344922279009e+02,	 -5.5268304308969654e+01,	 5.9853634544288980e+02,	 4.2745504626618949e+03,	 4.6947796924823962e+02,	 1.3762765880988073e+00 
1.4018379999999999e+00,	 4.6943249999999997e-01,	 2.4790366433284521e-02,	 6.4484903628418238e+02,	 -5.5443170019035577e+01,	 5.9784738629873368e+02,	 4.2638627690423509e+03,	 4.6920768969466690e+02,	 1.3794064396655585e+00 
1.4093089999999999e+00,	 4.6943200000000002e-01,	 2.4775632354327566e-02,	 6.4559560933967578e+02,	 -5.5225171348412239e+01,	 5.9742867609098892e+02,	 4.2583440781781310e+03,	 4.6904335305586000e+02,	 1.3814358949639884e+00 
1.4167790000000000e+00,	 4.6943119999999999e-01,	 2.4778170566679920e-02,	 6.4602585062737978e+02,	 -5.4694752143978079e+01,	 5.9723719051934859e+02,	 4.2574153286231485e+03,	 4.6896817903415189e+02,	 1.3824755443159467e+00 
1.4242490000000001e+00,	 4.6943040000000003e-01,	 2.4797695335519166e-02,	 6.4617410093910553e+02,	 -5.3825190344338665e+01,	 5.9724636439872233e+02,	 4.2608355457773305e+03,	 4.6897178082005183e+02,	 1.3826247656053510e+00 
1.4317200000000001e+00,	 4.6942929999999999e-01,	 2.4831420308073983e-02,	 6.4609356598741419e+02,	 -5.2676231296554661e+01,	 5.9748041362226354e+02,	 4.2683023098430585e+03,	 4.6906366227498188e+02,	 1.3819816308819661e+00 
1.4391900000000000e+00,	 4.6942810000000001e-01,	 2.4878057130017582e-02,	 6.4583915945790704e+02,	 -5.1330016946754739e+01,	 5.9785883057688909e+02,	 4.2790271945861396e+03,	 4.6921218057121774e+02,	 1.3807735161452037e+00 
1.4466589999999999e+00,	 4.6942679999999998e-01,	 2.4945634910469312e-02,	 6.4537420038882669e+02,	 -4.9744773637471837e+01,	 5.9832923694368219e+02,	 4.2940265396368322e+03,	 4.6939673667893288e+02,	 1.3789795464969825e+00 
1.4541290000000000e+00,	 4.6942529999999999e-01,	 2.5024053200298657e-02,	 6.4477029148792906e+02,	 -4.7961077320376816e+01,	 5.9884207099363334e+02,	 4.3112171257681848e+03,	 4.6959785594177959e+02,	 1.3768197810831277e+00 
1.4615990000000001e+00,	 4.6942380000000000e-01,	 2.5108946343245460e-02,	 6.4407448946784689e+02,	 -4.6056728562943739e+01,	 5.9939372271864454e+02,	 4.3298277197640682e+03,	 4.6981410230056821e+02,	 1.3744140667021354e+00 
1.4690680000000000e+00,	 4.6942210000000001e-01,	 2.5198075815732371e-02,	 6.4333553281808622e+02,	 -4.4080645500962504e+01,	 5.9997891138508680e+02,	 4.3494395719239583e+03,	 4.7004338633103208e+02,	 1.3718817495614506e+00 
1.4765370000000000e+00,	 4.6942030000000001e-01,	 2.5288956813740635e-02,	 6.4257149491845144e+02,	 -4.2074828169470578e+01,	 6.0059043602899771e+02,	 4.3695756670590081e+03,	 4.7028286967174824e+02,	 1.3692770209349889e+00 
1.4840059999999999e+00,	 4.6941840000000001e-01,	 2.5377580397839553e-02,	 6.4178292701501528e+02,	 -4.0068165279033067e+01,	 6.0120677122678421e+02,	 4.3893884150629783e+03,	 4.7052411357409864e+02,	 1.3666302565848494e+00 
1.4914760000000000e+00,	 4.6941650000000001e-01,	 2.5460479599893372e-02,	 6.4098270450404402e+02,	 -3.8088876764501379e+01,	 6.0180571151461322e+02,	 4.4081140546346633e+03,	 4.7075843037497356e+02,	 1.3639976183384459e+00 
1.4989450000000000e+00,	 4.6941450000000001e-01,	 2.5536790917933927e-02,	 6.4020533657307055e+02,	 -3.6162197888188444e+01,	 6.0238199057891711e+02,	 4.4255600443332760e+03,	 4.7098377163411391e+02,	 1.3614605817554033e+00 
1.5064139999999999e+00,	 4.6941240000000001e-01,	 2.5606628213219722e-02,	 6.3947760639816568e+02,	 -3.4290675257326569e+01,	 6.0293369189304792e+02,	 4.4417272466405275e+03,	 4.7119940133572015e+02,	 1.3590771299747377e+00 
1.5138819999999999e+00,	 4.6941030000000000e-01,	 2.5669092980565782e-02,	 6.3880600637297516e+02,	 -3.2469343947136792e+01,	 6.0344525695301172e+02,	 4.4563402095238598e+03,	 4.7139925585105465e+02,	 1.3568766707160764e+00 
1.5213509999999999e+00,	 4.6940809999999999e-01,	 2.5723735723912892e-02,	 6.3819228420014781e+02,	 -3.0698965591032305e+01,	 6.0390214706006759e+02,	 4.4692078229291956e+03,	 4.7157767875012809e+02,	 1.3548779821154366e+00 
1.5288200000000001e+00,	 4.6940589999999999e-01,	 2.5762563950381186e-02,	 6.3781441764525891e+02,	 -2.9149388887977036e+01,	 6.0421587985575025e+02,	 4.4782790873650702e+03,	 4.7170015734535627e+02,	 1.3535720792334329e+00 
1.1549840000000000e+00,	 4.7490729999999998e-01,	 1.7321178060854061e-02,	 7.3147759319745546e+02,	 -2.0243061941304984e+02,	 5.1479697889002000e+02,	 2.5653306691304947e+03,	 4.3539952242252292e+02,	 1.7431609053566395e+00 
1.1624829999999999e+00,	 4.7493249999999998e-01,	 1.7261682005180943e-02,	 7.3184462711878291e+02,	 -2.0518106078826492e+02,	 5.1390766630658095e+02,	 2.5521026920719059e+03,	 4.3502328318700313e+02,	 1.7471778411595824e+00 
1.1699800000000000e+00,	 4.7495589999999999e-01,	 1.7192329746441117e-02,	 7.3241620784957843e+02,	 -2.0812558102711836e+02,	 5.1288246046842812e+02,	 2.5367783178964423e+03,	 4.3458914774877024e+02,	 1.7520294870217008e+00 
1.1774739999999999e+00,	 4.7497760000000000e-01,	 1.7123350482669879e-02,	 7.3299655887269967e+02,	 -2.1098131383136356e+02,	 5.1185810608171482e+02,	 2.5215539748870706e+03,	 4.3415493929257735e+02,	 1.7568756298596886e+00 
1.1849680000000000e+00,	 4.7499760000000002e-01,	 1.7054674903457256e-02,	 7.3358546921186814e+02,	 -2.1374995691454484e+02,	 5.1083344236508970e+02,	 2.5064134010753996e+03,	 4.3372016482207471e+02,	 1.7617167187003255e+00 
1.1924589999999999e+00,	 4.7501610000000000e-01,	 1.6986373663750706e-02,	 7.3418627616141271e+02,	 -2.1643264343162133e+02,	 5.0980905874824754e+02,	 2.4913695895510496e+03,	 4.3328507311065118e+02,	 1.7665578243553777e+00 
1.1999489999999999e+00,	 4.7503309999999999e-01,	 1.6918471142657977e-02,	 7.3480269218482385e+02,	 -2.1903254898066271e+02,	 5.0878497160618724e+02,	 2.4764258410114667e+03,	 4.3284967016718338e+02,	 1.7714072856051819e+00 
1.2074370000000001e+00,	 4.7504839999999998e-01,	 1.6850907860742410e-02,	 7.3543633503952742e+02,	 -2.2155287936239495e+02,	 5.0776036218190222e+02,	 2.4615691276885791e+03,	 4.3241360642099210e+02,	 1.7762704514681216e+00 
1.2149230000000000e+00,	 4.7506240000000000e-01,	 1.6783590189847330e-02,	 7.3608829782601799e+02,	 -2.2399605917137441e+02,	 5.0673400586513293e+02,	 2.4467796174522146e+03,	 4.3197635789848471e+02,	 1.7811518830443045e+00 
1.2224090000000001e+00,	 4.7507519999999998e-01,	 1.6716436302780028e-02,	 7.3675974575856549e+02,	 -2.2636303495044987e+02,	 5.0570500607839432e+02,	 2.4320409775041753e+03,	 4.3153753845643502e+02,	 1.7860548885971432e+00 
1.2298929999999999e+00,	 4.7508689999999998e-01,	 1.6649347010805515e-02,	 7.3745082866703876e+02,	 -2.2865402620491571e+02,	 5.0467227909612780e+02,	 2.4173336233222140e+03,	 4.3109668043269301e+02,	 1.7909804785488763e+00 
1.2373760000000000e+00,	 4.7509750000000001e-01,	 1.6582190957208014e-02,	 7.3816104204142937e+02,	 -2.3087032149335423e+02,	 5.0363423481036727e+02,	 2.4026310947683064e+03,	 4.3065309772363946e+02,	 1.7959299613429556e+00 
1.2448580000000000e+00,	 4.7510720000000001e-01,	 1.6514915478996035e-02,	 7.3889126483569862e+02,	 -2.3301380835573104e+02,	 5.0259016698556400e+02,	 2.3879227897104320e+03,	 4.3020647963988336e+02,	 1.8009066931511151e+00 
1.2523390000000001e+00,	 4.7511609999999999e-01,	 1.6447571580884550e-02,	 7.3964483376134615e+02,	 -2.3508746983481140e+02,	 5.0154052870727708e+02,	 2.3732186689112768e+03,	 4.2975701083667587e+02,	 1.8059182956220816e+00 
1.2598190000000000e+00,	 4.7512420000000000e-01,	 1.6380330276050552e-02,	 7.4042542879080315e+02,	 -2.3709277514098022e+02,	 5.0048741563575641e+02,	 2.3585536175141219e+03,	 4.2930558116357184e+02,	 1.8109692231854244e+00 
1.2672980000000000e+00,	 4.7513139999999998e-01,	 1.6313477257972390e-02,	 7.4123422710938621e+02,	 -2.3902487429119515e+02,	 4.9943592376326382e+02,	 2.3439927101337644e+03,	 4.2885437234070048e+02,	 1.8160484230264740e+00 
1.2747759999999999e+00,	 4.7513800000000000e-01,	 1.6246578146664956e-02,	 7.4208411815930754e+02,	 -2.4088283102429756e+02,	 4.9838729165351532e+02,	 2.3294790074968196e+03,	 4.2840391738872285e+02,	 1.8211804910624123e+00 
1.2822540000000000e+00,	 4.7514390000000001e-01,	 1.6166066305970068e-02,	 7.4313615984872763e+02,	 -2.4306859945086117e+02,	 4.9712465793300231e+02,	 2.3120626520477799e+03,	 4.2786090568778206e+02,	 1.8274123727163363e+00 
1.2897310000000000e+00,	 4.7514930000000000e-01,	 1.6040734746059656e-02,	 7.4430896649796648e+02,	 -2.4662904773746601e+02,	 4.9535562268867727e+02,	 2.2859740270571451e+03,	 4.2709894832446548e+02,	 1.8358876503624402e+00 
1.2972079999999999e+00,	 4.7515410000000002e-01,	 1.6100031830897664e-02,	 7.4266119729440481e+02,	 -2.4524509300325042e+02,	 4.9664371779538953e+02,	 2.3003907809309067e+03,	 4.2765388992954553e+02,	 1.8288309001859455e+00 
1.3046830000000000e+00,	 4.7515829999999998e-01,	 1.7049795560308563e-02,	 7.2897915823453377e+02,	 -2.1738857982163449e+02,	 5.1339643523935445e+02,	 2.5182680885662430e+03,	 4.3480685057739305e+02,	 1.7495183760298731e+00 
1.3121590000000001e+00,	 4.7516209999999998e-01,	 2.0067038355195913e-02,	 6.9367900080864399e+02,	 -1.5097947943736233e+02,	 5.4957191263131381e+02,	 3.1727638386545937e+03,	 4.4986501251676174e+02,	 1.5780717389038146e+00 
1.3196330000000001e+00,	 4.7516540000000002e-01,	 2.3702882214114283e-02,	 6.5217875200318360e+02,	 -7.9518665238772144e+01,	 5.8934012868716502e+02,	 4.0188066244402230e+03,	 4.6585735907044250e+02,	 1.4103214628512704e+00 
1.3271080000000000e+00,	 4.7516809999999998e-01,	 2.5602655304953537e-02,	 6.3208119928324982e+02,	 -4.7336025999801734e+01,	 6.0785847627638395e+02,	 4.4773126669420208e+03,	 4.7311987463415932e+02,	 1.3397264255575958e+00 
1.3345810000000000e+00,	 4.7517039999999999e-01,	 2.5945850426877685e-02,	 6.2917181063159558e+02,	 -4.2109593623278002e+01,	 6.0990970483341755e+02,	 4.5526408558205276e+03,	 4.7391747776990871e+02,	 1.3305679446556147e+00 
1.3420540000000001e+00,	 4.7517219999999999e-01,	 2.5816084561440012e-02,	 6.3113341774586070e+02,	 -4.3963384357850828e+01,	 6.0794363261120748e+02,	 4.5152689771105288e+03,	 4.7315301371593279e+02,	 1.3371208540436494e+00 
1.3495269999999999e+00,	 4.7517379999999998e-01,	 2.5629998648991899e-02,	 6.3371141826488906e+02,	 -4.6162629649415337e+01,	 6.0578162332224781e+02,	 4.4667805400495854e+03,	 4.7231093539060578e+02,	 1.3452801991059227e+00 
1.3570000000000000e+00,	 4.7517500000000001e-01,	 2.5465644292696508e-02,	 6.3617849380054486e+02,	 -4.8334534595841276e+01,	 6.0390919365063405e+02,	 4.4244189844421653e+03,	 4.7158043002791794e+02,	 1.3529229636606255e+00 
1.3644719999999999e+00,	 4.7517589999999998e-01,	 2.5323827819389275e-02,	 6.3851162150342691e+02,	 -5.0179978471159401e+01,	 6.0223730680999688e+02,	 4.3875991609060229e+03,	 4.7092720636445938e+02,	 1.3600411578790550e+00 
1.3719440000000001e+00,	 4.7517650000000000e-01,	 2.5194819919989130e-02,	 6.4072382218403322e+02,	 -5.1679899622550465e+01,	 6.0069022919167787e+02,	 4.3540334764417739e+03,	 4.7032193878005370e+02,	 1.3667333054069262e+00 
1.3794150000000001e+00,	 4.7517690000000001e-01,	 2.5083767286925466e-02,	 6.4267351825715718e+02,	 -5.2952494446782509e+01,	 5.9932798772829665e+02,	 4.3250114298844101e+03,	 4.6978833954139174e+02,	 1.3726422309059227e+00 
1.3868870000000000e+00,	 4.7517710000000002e-01,	 2.4992154551138977e-02,	 6.4429303769647208e+02,	 -5.3999626622876917e+01,	 5.9818120080400422e+02,	 4.3009698245511554e+03,	 4.6933866498929706e+02,	 1.3775809240305803e+00 
1.3943580000000000e+00,	 4.7517700000000002e-01,	 2.4917379715939499e-02,	 6.4560918703576226e+02,	 -5.4730599930471854e+01,	 5.9724901978748449e+02,	 4.2814192124362116e+03,	 4.6897282335550000e+02,	 1.3815830173742234e+00 
1.4018290000000000e+00,	 4.7517680000000001e-01,	 2.4860296165186781e-02,	 6.4664829655671952e+02,	 -5.5093400281694855e+01,	 5.9653761011118934e+02,	 4.2665227489420568e+03,	 4.6869343301453210e+02,	 1.3846812053377848e+00 
1.4092990000000001e+00,	 4.7517640000000000e-01,	 2.4823736211151602e-02,	 6.4739796608742631e+02,	 -5.5093247152459128e+01,	 5.9606169538534914e+02,	 4.2568495266709906e+03,	 4.6850643507063825e+02,	 1.3868282112510095e+00 
1.4167700000000001e+00,	 4.7517579999999998e-01,	 2.4807776066337002e-02,	 6.4786364283286480e+02,	 -5.4751361851065624e+01,	 5.9579964768807145e+02,	 4.2522423893171235e+03,	 4.6840343857723735e+02,	 1.3880621042701347e+00 
1.4242400000000000e+00,	 4.7517510000000002e-01,	 2.4810739227451577e-02,	 6.4809179193034777e+02,	 -5.4104413821638609e+01,	 5.9571389861696196e+02,	 4.2521382306332880e+03,	 4.6836973042954753e+02,	 1.3885317903917551e+00 
1.4317100000000000e+00,	 4.7517419999999999e-01,	 2.4832045386260070e-02,	 6.4813842253310122e+02,	 -5.3179817589000322e+01,	 5.9579830819261815e+02,	 4.2563927668315873e+03,	 4.6840291203729112e+02,	 1.3883698215377767e+00 
1.4391810000000000e+00,	 4.7517320000000002e-01,	 2.4872902259312223e-02,	 6.4797693199808873e+02,	 -5.1996348730890581e+01,	 5.9603666351803076e+02,	 4.2651015473361258e+03,	 4.6849659740270874e+02,	 1.3875443046376128e+00 
1.4466500000000000e+00,	 4.7517199999999998e-01,	 2.4928731443490067e-02,	 6.4764360158771353e+02,	 -5.0545089529884898e+01,	 5.9638684370327189e+02,	 4.2771863365131576e+03,	 4.6863420146780464e+02,	 1.3861834902913739e+00 
1.4541200000000001e+00,	 4.7517070000000000e-01,	 2.4996054683657926e-02,	 6.4713391714086720e+02,	 -4.8868415272905125e+01,	 5.9684555277132085e+02,	 4.2920360963398971e+03,	 4.6881439108861662e+02,	 1.3842929298005988e+00 
1.4615899999999999e+00,	 4.7516920000000001e-01,	 2.5072671717303284e-02,	 6.4647803114271562e+02,	 -4.7027876838554270e+01,	 5.9739011473907954e+02,	 4.3091199531529746e+03,	 4.6902821548514316e+02,	 1.3819771777939835e+00 
1.4690589999999999e+00,	 4.7516770000000003e-01,	 2.5155317566246706e-02,	 6.4572927172617085e+02,	 -4.5074965055590425e+01,	 5.9799495283317674e+02,	 4.3277011242868921e+03,	 4.6926559333548965e+02,	 1.3793906739805406e+00 
1.4765280000000001e+00,	 4.7516609999999998e-01,	 2.5241167214292766e-02,	 6.4492087657239222e+02,	 -4.3063527608003504e+01,	 5.9864531052274083e+02,	 4.3471933445225277e+03,	 4.6952070213882052e+02,	 1.3766315789341763e+00 
1.4839979999999999e+00,	 4.7516439999999999e-01,	 2.5326391583396012e-02,	 6.4407390375681621e+02,	 -4.1034012595195563e+01,	 5.9931394915350029e+02,	 4.3667430830949806e+03,	 4.6978283738105580e+02,	 1.3737830954882191e+00 
1.4914670000000001e+00,	 4.7516259999999999e-01,	 2.5407932500768539e-02,	 6.4321053502148675e+02,	 -3.9016383307275362e+01,	 5.9997300701179483e+02,	 4.3856197727055433e+03,	 4.7004107348437060e+02,	 1.3709286878646330e+00 
1.4989360000000000e+00,	 4.7516069999999999e-01,	 2.5484780516421411e-02,	 6.4236988685193251e+02,	 -3.7036221902718836e+01,	 6.0060906114490047e+02,	 4.4035478013659294e+03,	 4.7029016166686057e+02,	 1.3681695393725724e+00 
1.5064050000000000e+00,	 4.7515879999999999e-01,	 2.5556651970220265e-02,	 6.4158586431686547e+02,	 -3.5106108978857634e+01,	 6.0121297279757300e+02,	 4.4204068105399328e+03,	 4.7052654034406612e+02,	 1.3655884510689411e+00 
1.5138739999999999e+00,	 4.7515679999999999e-01,	 2.5622484766425375e-02,	 6.4086743664803646e+02,	 -3.3228013103254384e+01,	 6.0176677415197321e+02,	 4.4358758840396640e+03,	 4.7074320088489765e+02,	 1.3632236611273785e+00 
1.5213429999999999e+00,	 4.7515469999999999e-01,	 2.5681513411138966e-02,	 6.4021414679374845e+02,	 -3.1403678430414075e+01,	 6.0225523321429023e+02,	 4.4497041116629225e+03,	 4.7093421520348130e+02,	 1.3610900787908427e+00 
1.5288120000000001e+00,	 4.7515259999999998e-01,	 2.5723573832298108e-02,	 6.3981585358228926e+02,	 -2.9814445564692576e+01,	 6.0258566102550321e+02,	 4.4594370371476552e+03,	 4.7106338670367978e+02,	 1.3597111320489292e+00 
1.1549700000000001e+00,	 4.8064459999999998e-01,	 1.7557007370135311e-02,	 7.2967321275274264e+02,	 -1.9788177827536663e+02,	 5.1700090661204922e+02,	 2.6113899812704981e+03,	 4.3633053432738029e+02,	 1.7326984243330406e+00 
1.1624699999999999e+00,	 4.8067019999999999e-01,	 1.7494691322503322e-02,	 7.3009066134555837e+02,	 -2.0063627453813848e+02,	 5.1608701739067112e+02,	 2.5975215289619091e+03,	 4.3594471861451967e+02,	 1.7368196959417725e+00 
1.1699670000000000e+00,	 4.8069400000000001e-01,	 1.7421900408147336e-02,	 7.3072489980247724e+02,	 -2.0358639229703246e+02,	 5.1503024517509220e+02,	 2.5814171914684571e+03,	 4.3549815599132950e+02,	 1.7418108247733297e+00 
1.1774620000000000e+00,	 4.8071599999999998e-01,	 1.7349553993610038e-02,	 7.3136696916150163e+02,	 -2.0644785196349633e+02,	 5.1397391953940576e+02,	 2.5654250704956930e+03,	 4.3505132399266506e+02,	 1.7467968607683746e+00 
1.1849550000000000e+00,	 4.8073640000000001e-01,	 1.7277581575650465e-02,	 7.3201731505884231e+02,	 -2.0922221926593801e+02,	 5.1291689065263586e+02,	 2.5495286138274346e+03,	 4.3460373465167129e+02,	 1.7517795758180750e+00 
1.1924470000000000e+00,	 4.8075519999999999e-01,	 1.7206001807582073e-02,	 7.3267885784015596e+02,	 -2.1191119646910343e+02,	 5.1185914940999032e+02,	 2.5337302257408683e+03,	 4.3415538176470773e+02,	 1.7567645121201587e+00 
1.1999370000000000e+00,	 4.8077249999999999e-01,	 1.7134804578736854e-02,	 7.3335476217052167e+02,	 -2.1451778211990194e+02,	 5.1080047930380567e+02,	 2.5180270386955317e+03,	 4.3370617104853721e+02,	 1.7617590790381010e+00 
1.2074250000000000e+00,	 4.8078820000000000e-01,	 1.7063921408918499e-02,	 7.3404726318328073e+02,	 -2.1704560426029701e+02,	 5.0974010742463184e+02,	 2.5024049233271576e+03,	 4.3325577136619177e+02,	 1.7667701756855185e+00 
1.2149120000000000e+00,	 4.8080250000000002e-01,	 1.6993311444242272e-02,	 7.3475874490926753e+02,	 -2.1949690598607461e+02,	 5.0867767843319712e+02,	 2.4868559804254019e+03,	 4.3280402783710662e+02,	 1.7718035874023417e+00 
1.2223970000000000e+00,	 4.8081550000000001e-01,	 1.6922935604186881e-02,	 7.3549138707977397e+02,	 -2.2187269943140362e+02,	 5.0761290290328839e+02,	 2.4713729685296325e+03,	 4.3235081299195730e+02,	 1.7768638510925450e+00 
1.2298819999999999e+00,	 4.8082750000000002e-01,	 1.6852691355766451e-02,	 7.3624537864610147e+02,	 -2.2417320101116951e+02,	 5.0654459668698678e+02,	 2.4559351316574789e+03,	 4.3189561737861288e+02,	 1.7819522346656305e+00 
1.2373650000000000e+00,	 4.8083830000000000e-01,	 1.6782419790269964e-02,	 7.3701943092223451e+02,	 -2.2639850126920152e+02,	 5.0547089630272683e+02,	 2.4405104565895563e+03,	 4.3143763945392777e+02,	 1.7870679562448164e+00 
1.2448470000000000e+00,	 4.8084830000000001e-01,	 1.6712019710243334e-02,	 7.3781336131324792e+02,	 -2.2854970904052593e+02,	 5.0439038956591605e+02,	 2.4250778213170302e+03,	 4.3097626702802739e+02,	 1.7922127087861541e+00 
1.2523280000000001e+00,	 4.8085739999999999e-01,	 1.6641518014016986e-02,	 7.3862954745804950e+02,	 -2.3062937125994432e+02,	 5.0330324135662033e+02,	 2.4096424434342821e+03,	 4.3051155970432188e+02,	 1.7973921784531308e+00 
1.2598080000000000e+00,	 4.8086570000000001e-01,	 1.6571049517998281e-02,	 7.3947164200794441e+02,	 -2.3264118268855566e+02,	 5.0221080514377076e+02,	 2.3942307535076534e+03,	 4.3004408616111112e+02,	 1.8026136667307173e+00 
1.2672870000000001e+00,	 4.8087320000000000e-01,	 1.6500766411882157e-02,	 7.4034171048994222e+02,	 -2.3458832786580339e+02,	 5.0111478871253348e+02,	 2.3788730897055193e+03,	 4.2957456935725168e+02,	 1.8078800562352098e+00 
1.2747660000000001e+00,	 4.8087999999999997e-01,	 1.6430930891088411e-02,	 7.4123733085656420e+02,	 -2.3646582543706145e+02,	 5.0001999558965423e+02,	 2.3636299175403883e+03,	 4.2910506372581949e+02,	 1.8131729339076175e+00 
1.2822439999999999e+00,	 4.8088609999999998e-01,	 1.6360981591478172e-02,	 7.4216865568431808e+02,	 -2.3828035947254784e+02,	 4.9892274991855243e+02,	 2.3484028612936318e+03,	 4.2863399030740834e+02,	 1.8185253531913756e+00 
1.2897209999999999e+00,	 4.8089169999999998e-01,	 1.6269454891286297e-02,	 7.4341228802737601e+02,	 -2.4065444049019013e+02,	 4.9740912095221870e+02,	 2.3281806973250773e+03,	 4.2798330275345256e+02,	 1.8257578535050161e+00 
1.2971969999999999e+00,	 4.8089670000000001e-01,	 1.6161506525208889e-02,	 7.4459838947969877e+02,	 -2.4383339193372728e+02,	 4.9552666621197136e+02,	 2.3039805574339994e+03,	 4.2717267939816674e+02,	 1.8341666753534036e+00 
1.3046730000000000e+00,	 4.8090119999999997e-01,	 1.6120702525115268e-02,	 7.4465025784535658e+02,	 -2.4559303983412116e+02,	 4.9403044435816332e+02,	 2.2912243409706202e+03,	 4.2652727690061795e+02,	 1.8383456205285307e+00 
1.3121490000000000e+00,	 4.8090519999999998e-01,	 1.6635753248234110e-02,	 7.3729584538256233e+02,	 -2.3128027814516190e+02,	 5.0229387925690276e+02,	 2.4039769186302105e+03,	 4.3007965295240763e+02,	 1.7966897342118511e+00 
1.3196239999999999e+00,	 4.8090860000000002e-01,	 1.9061401604253764e-02,	 7.0851322386933953e+02,	 -1.7355521790247266e+02,	 5.3405502061547907e+02,	 2.9286722438617448e+03,	 4.4346868150824270e+02,	 1.6448971039109612e+00 
1.3270980000000001e+00,	 4.8091149999999999e-01,	 2.2714441540982920e-02,	 6.6693519609298073e+02,	 -9.8607921203592127e+01,	 5.7513721830070676e+02,	 3.7584041046778452e+03,	 4.6020961697198044e+02,	 1.4649530721452326e+00 
1.3345720000000001e+00,	 4.8091400000000001e-01,	 2.5196623132995109e-02,	 6.4041065549019629e+02,	 -5.4533532809707673e+01,	 6.0038002666306761e+02,	 4.3520964700444974e+03,	 4.7020048358745515e+02,	 1.3669240215831338e+00 
1.3420449999999999e+00,	 4.8091600000000001e-01,	 2.5886981229672264e-02,	 6.3412534512544278e+02,	 -4.3213173437809182e+01,	 6.0630386456289261e+02,	 4.5154567066616883e+03,	 4.7251447995282257e+02,	 1.3451355913764018e+00 
1.3495180000000000e+00,	 4.8091770000000000e-01,	 2.5846074835184724e-02,	 6.3528101830197124e+02,	 -4.3841136586832633e+01,	 6.0522001693637696e+02,	 4.5002622037260699e+03,	 4.7209195025371679e+02,	 1.3488727632927924e+00 
1.3569899999999999e+00,	 4.8091909999999999e-01,	 2.5683943770690849e-02,	 6.3756050076470092e+02,	 -4.6215909313188050e+01,	 6.0327069231424468e+02,	 4.4576285382267160e+03,	 4.7133106773298420e+02,	 1.3562300782020671e+00 
1.3644630000000000e+00,	 4.8092020000000002e-01,	 2.5511721252870143e-02,	 6.3997953925643594e+02,	 -4.8301851956542002e+01,	 6.0144370337097985e+02,	 4.4143288277438114e+03,	 4.7061681986999457e+02,	 1.3637415666114483e+00 
1.3719349999999999e+00,	 4.8092099999999999e-01,	 2.5358637152983310e-02,	 6.4218185250547094e+02,	 -4.9990617424277573e+01,	 5.9990918265576249e+02,	 4.3766453556048791e+03,	 4.7001607163732257e+02,	 1.3704311643997844e+00 