TITLE = "Final State"
VARIABLES = "X", "Y", "rho", "u", "v", "T", "p", "c", "M"
ZONE I=101, J=26, DATAPACKING=POINT
1.0570605000000000e+00,	 2.6719612500000001e-01,	 4.8255667331632224e-02,	 1.4845575489438882e+03,	 -3.1998896591490965e+01,	 7.0159860785809383e+02,	 9.7401799819652515e+03,	 5.3158576885830803e+02,	 2.7933448485747636e+00 
1.0577540000000001e+00,	 2.6718162499999998e-01,	 4.8307974719763197e-02,	 1.4844065881808917e+03,	 -3.1992816161607653e+01,	 7.0182135796470311e+02,	 9.7538337385264276e+03,	 5.3167014857935430e+02,	 2.7926174080838155e+00 
1.0584515000000001e+00,	 2.6716702500000000e-01,	 4.8358072420124944e-02,	 1.4842620361438953e+03,	 -3.2008283150842104e+01,	 7.0203395391103936e+02,	 9.7669066331588238e+03,	 5.3175066932622894e+02,	 2.7919233822112859e+00 
1.0591530000000000e+00,	 2.6715234999999998e-01,	 4.8409566564020026e-02,	 1.4841176465331389e+03,	 -3.2015224930772412e+01,	 7.0224656056190349e+02,	 9.7802679309538998e+03,	 5.3183118193545556e+02,	 2.7912295692171933e+00 
1.0598589999999999e+00,	 2.6713757499999996e-01,	 4.8460270696861284e-02,	 1.4839707580755426e+03,	 -3.2027086506094946e+01,	 7.0246267269791213e+02,	 9.7935247448971168e+03,	 5.3191300955689758e+02,	 2.7905245703373951e+00 
1.0605690000000001e+00,	 2.6712272500000001e-01,	 4.8516796783207035e-02,	 1.4838066905572507e+03,	 -3.1985023639389578e+01,	 7.0270579281423761e+02,	 9.8083417834255561e+03,	 5.3200504830181376e+02,	 2.7897317718617032e+00 
1.0612832500000000e+00,	 2.6710780000000001e-01,	 4.8571392231297396e-02,	 1.4836453608141126e+03,	 -3.1961726961852285e+01,	 7.0294425500117018e+02,	 9.8227112006388943e+03,	 5.3209530821406952e+02,	 2.7889544766133745e+00 
1.0620017500000001e+00,	 2.6709274999999999e-01,	 4.8620356799552726e-02,	 1.4835079933669817e+03,	 -3.1998321872275806e+01,	 7.0314548591136986e+02,	 9.8354281938596396e+03,	 5.3217146386975310e+02,	 2.7882987827887096e+00 
1.0627244999999998e+00,	 2.6707762499999999e-01,	 4.8675555252217909e-02,	 1.4833480564880126e+03,	 -3.1974311096723529e+01,	 7.0338187133673000e+02,	 9.8499045630043129e+03,	 5.3226090980192691e+02,	 2.7875288233605646e+00 
1.0634519999999998e+00,	 2.6706242499999999e-01,	 4.8730843773957533e-02,	 1.4831882704741111e+03,	 -3.1952134769920868e+01,	 7.0361795035409477e+02,	 9.8644023765132479e+03,	 5.3235022479274107e+02,	 2.7867601662055725e+00 
1.0641837500000000e+00,	 2.6704712500000000e-01,	 4.8783647803395384e-02,	 1.4830370045848440e+03,	 -3.1956147361056690e+01,	 7.0384062402895654e+02,	 9.8782164645862085e+03,	 5.3243445445436794e+02,	 2.7860354343203748e+00 
1.0649197500000001e+00,	 2.6703172500000000e-01,	 4.8838420491320707e-02,	 1.4828778405393689e+03,	 -3.1941301114975413e+01,	 7.0407550483332716e+02,	 9.8926075946812143e+03,	 5.3252328720782350e+02,	 2.7852712647489803e+00 
1.0656604999999999e+00,	 2.6701622500000000e-01,	 4.8892266604566650e-02,	 1.4827225164881004e+03,	 -3.1938554470320462e+01,	 7.0430432207723391e+02,	 9.9067330895885061e+03,	 5.3260981245378696e+02,	 2.7845271112398682e+00 
1.0664060000000002e+00,	 2.6700062499999999e-01,	 4.8946741119766504e-02,	 1.4825653040268519e+03,	 -3.1931767177358552e+01,	 7.0453602393246683e+02,	 9.9210336644047275e+03,	 5.3269741416932902e+02,	 2.7837738665154892e+00 
1.0671560000000000e+00,	 2.6698492499999998e-01,	 4.9000414283269296e-02,	 1.4824104501336210e+03,	 -3.1934359822495264e+01,	 7.0476393144780559e+02,	 9.9351255327884865e+03,	 5.3278356727100959e+02,	 2.7830332413811636e+00 
1.0679107500000000e+00,	 2.6696912500000003e-01,	 4.9054981082279903e-02,	 1.4822538649667463e+03,	 -3.1931729383838992e+01,	 7.0499452932487418e+02,	 9.9494436566364257e+03,	 5.3287072320074981e+02,	 2.7822841603546626e+00 
1.0686705000000001e+00,	 2.6695324999999998e-01,	 4.9110416817876090e-02,	 1.4820984026151500e+03,	 -3.1925250925175689e+01,	 7.0522357218202308e+02,	 9.9639233474475022e+03,	 5.3295727729185489e+02,	 2.7815404161346198e+00 
1.0694347499999999e+00,	 2.6693727499999997e-01,	 4.9165990625453501e-02,	 1.4819369898857310e+03,	 -3.1915047189572256e+01,	 7.0546146651659683e+02,	 9.9785635680872510e+03,	 5.3304716143021642e+02,	 2.7807682304510863e+00 
1.0702039999999999e+00,	 2.6692117500000001e-01,	 4.9222116241819283e-02,	 1.4817750837739734e+03,	 -3.1903518163907012e+01,	 7.0570010291677670e+02,	 9.9933339350579026e+03,	 5.3313731071988366e+02,	 2.7799939438625110e+00 
1.0709782500000000e+00,	 2.6690494999999997e-01,	 4.9271665710264492e-02,	 1.4816378780380956e+03,	 -3.1960086643128420e+01,	 7.0590020907804148e+02,	 1.0006230261474613e+04,	 5.3321289275434481e+02,	 2.7793449110252544e+00 
1.0717572500000001e+00,	 2.6688862499999999e-01,	 4.9330416650056504e-02,	 1.4814665313698015e+03,	 -3.1925431757924478e+01,	 7.0615342108791094e+02,	 1.0021755163825390e+04,	 5.3330851802890777e+02,	 2.7785239425618196e+00 
1.0725415000000000e+00,	 2.6687222500000002e-01,	 4.9389096551068379e-02,	 1.4812971344561918e+03,	 -3.1896775959758532e+01,	 7.0640354443460888e+02,	 1.0037230302215423e+04,	 5.3340296004203003e+02,	 2.7777133280818389e+00 
1.0733307500000000e+00,	 2.6685572499999999e-01,	 4.9446450904358549e-02,	 1.4811330286203538e+03,	 -3.1884009867168480e+01,	 7.0664535258676915e+02,	 1.0052326115215190e+04,	 5.3349424649520586e+02,	 2.7769299827996279e+00 
1.0741250000000000e+00,	 2.6683910000000000e-01,	 4.9499649198057140e-02,	 1.4809845809433743e+03,	 -3.1914546164004342e+01,	 7.0686273245191751e+02,	 1.0066236827133867e+04,	 5.3357629754775894e+02,	 2.7762260427189207e+00 
1.0749247499999999e+00,	 2.6682237500000000e-01,	 4.9561404317581853e-02,	 1.4808053071520683e+03,	 -3.1862473013008980e+01,	 7.0712804084972026e+02,	 1.0082578230663059e+04,	 5.3367642235656501e+02,	 2.7753672406984795e+00 
1.0757295000000000e+00,	 2.6680555000000000e-01,	 4.9615462523120268e-02,	 1.4806546230169538e+03,	 -3.1890105972085024e+01,	 7.0734875365235075e+02,	 1.0096726084442198e+04,	 5.3375970290990676e+02,	 2.7746530829594462e+00 
1.0765395000000000e+00,	 2.6678859999999999e-01,	 4.9672351458390565e-02,	 1.4804951607526425e+03,	 -3.1892758166720540e+01,	 7.0758314129404721e+02,	 1.0111652454472156e+04,	 5.3384812910363837e+02,	 2.7738949643882975e+00 
1.0773549999999998e+00,	 2.6677152500000001e-01,	 4.9729752815334323e-02,	 1.4803295637052106e+03,	 -3.1889283731800759e+01,	 7.0782671676870609e+02,	 1.0126822293070492e+04,	 5.3394000602617541e+02,	 2.7731074407069043e+00 
1.0781760000000000e+00,	 2.6675434999999997e-01,	 4.9789451681791760e-02,	 1.4801620741045658e+03,	 -3.1870868384280971e+01,	 7.0807352002882988e+02,	 1.0142514430747602e+04,	 5.3403308435033330e+02,	 2.7723098057004880e+00 
1.0790025000000001e+00,	 2.6673707499999999e-01,	 4.9849011534280528e-02,	 1.4799906847336333e+03,	 -3.1852670834206489e+01,	 7.0832602012900554e+02,	 1.0158268417671052e+04,	 5.3412829437039704e+02,	 2.7714940971915678e+00 
1.0798345000000000e+00,	 2.6671967499999993e-01,	 4.9910087517634649e-02,	 1.4798152034123493e+03,	 -3.1823614868022698e+01,	 7.0858484764548507e+02,	 1.0174430980296818e+04,	 5.3422587265297182e+02,	 2.7706583021870026e+00 
1.0806719999999999e+00,	 2.6670214999999997e-01,	 4.9965327484333140e-02,	 1.4796613443741855e+03,	 -3.1854443798579361e+01,	 7.0880997771615364e+02,	 1.0188928111252049e+04,	 5.3431073246713072e+02,	 2.7699316130573828e+00 
1.0815150000000000e+00,	 2.6668449999999999e-01,	 5.0023517688347584e-02,	 1.4794983157955960e+03,	 -3.1859284198351720e+01,	 7.0904937898271658e+02,	 1.0204239584228317e+04,	 5.3440095683692618e+02,	 2.7691591557157236e+00 
1.0823640000000001e+00,	 2.6666672499999999e-01,	 5.0083605068910610e-02,	 1.4793251854319431e+03,	 -3.1845615175563911e+01,	 7.0930418046175362e+02,	 1.0220168103737240e+04,	 5.3449696843173695e+02,	 2.7683373440038941e+00 
1.0832189999999999e+00,	 2.6664884999999999e-01,	 5.0145662238005616e-02,	 1.4791513133387227e+03,	 -3.1820378971466305e+01,	 7.0956040717676160e+02,	 1.0236528097575816e+04,	 5.3459349968049401e+02,	 2.7675112848362828e+00 
1.0840795000000001e+00,	 2.6663087499999999e-01,	 5.0207349900790697e-02,	 1.4789742975879574e+03,	 -3.1797753679433740e+01,	 7.0982113819803646e+02,	 1.0252886845404053e+04,	 5.3469170999892970e+02,	 2.7666710633462190e+00 
1.0849457499999999e+00,	 2.6661274999999995e-01,	 5.0264819719838018e-02,	 1.4788150803208248e+03,	 -3.1821219288687004e+01,	 7.1005424262784379e+02,	 1.0267993697526050e+04,	 5.3477949885750911e+02,	 2.7659201767816279e+00 
1.0858182500000000e+00,	 2.6659447499999994e-01,	 5.0325819843174545e-02,	 1.4786386869530838e+03,	 -3.1808108791880361e+01,	 7.1031370008972374e+02,	 1.0284211207767903e+04,	 5.3487719551940017e+02,	 2.7650847406584940e+00 
1.0866967500000000e+00,	 2.6657609999999998e-01,	 5.0387701267253573e-02,	 1.4784665384540131e+03,	 -3.1795821347149200e+01,	 7.1056686777773950e+02,	 1.0300526808602006e+04,	 5.3497250661868941e+02,	 2.7642699021745543e+00 
1.0875812499999999e+00,	 2.6655759999999995e-01,	 5.0446387864829870e-02,	 1.4783016080767529e+03,	 -3.1813044334605788e+01,	 7.1080847682993374e+02,	 1.0316030335661704e+04,	 5.3506345035717027e+02,	 2.7634925834624573e+00 
1.0884719999999999e+00,	 2.6653894999999994e-01,	 5.0507764376510444e-02,	 1.4781296424747352e+03,	 -3.1808929094629168e+01,	 7.1106106033636320e+02,	 1.0332251749083265e+04,	 5.3515850845148918e+02,	 2.7626802882872861e+00 
1.0893690000000000e+00,	 2.6652019999999998e-01,	 5.0571064362019087e-02,	 1.4779523305064631e+03,	 -3.1789928125479022e+01,	 7.1132193185850088e+02,	 1.0348996284765288e+04,	 5.3525666796277096e+02,	 2.7618416943514412e+00 
1.0902720000000001e+00,	 2.6650132500000001e-01,	 5.0635476834601595e-02,	 1.4777676368824100e+03,	 -3.1760341825001277e+01,	 7.1159393909213952e+02,	 1.0366140287101323e+04,	 5.3535899840067782e+02,	 2.7609676875611093e+00 
1.0911815000000000e+00,	 2.6648229999999995e-01,	 5.0696660013797079e-02,	 1.4775970676440297e+03,	 -3.1766896464874957e+01,	 7.1184404556153163e+02,	 1.0382313589300158e+04,	 5.3545307240719114e+02,	 2.7601643972324079e+00 
1.0920974999999999e+00,	 2.6646312499999997e-01,	 5.0754479677479598e-02,	 1.4774402275710599e+03,	 -3.1809122859515210e+01,	 7.1207285245799937e+02,	 1.0397495619677888e+04,	 5.3553912040679757e+02,	 2.7594298063698939e+00 
1.0930197500000001e+00,	 2.6644382499999997e-01,	 5.0821068234722065e-02,	 1.4772496772290144e+03,	 -3.1767307484519876e+01,	 7.1235374454357543e+02,	 1.0415243755000452e+04,	 5.3564473731657370e+02,	 2.7585283726398897e+00 
1.0939485000000000e+00,	 2.6642440000000001e-01,	 5.0883983008686698e-02,	 1.4770739617884351e+03,	 -3.1765122736446205e+01,	 7.1261158800568944e+02,	 1.0431912043815946e+04,	 5.3574166949321852e+02,	 2.7577012726016039e+00 
1.0948837499999999e+00,	 2.6640480000000000e-01,	 5.0944167220813734e-02,	 1.4769048585583919e+03,	 -3.1789046209030268e+01,	 7.1285887848887012e+02,	 1.0447874993951598e+04,	 5.3583461797097186e+02,	 2.7569083532227836e+00 
1.0958257500000002e+00,	 2.6638509999999999e-01,	 5.1013268425728328e-02,	 1.4767122032758634e+03,	 -3.1736852658937540e+01,	 7.1314308259582867e+02,	 1.0466217632803799e+04,	 5.3594142117440424e+02,	 2.7559974706654620e+00 
1.0967747500000000e+00,	 2.6636525000000000e-01,	 5.1073301207310573e-02,	 1.4765440227389304e+03,	 -3.1768318559512426e+01,	 7.1338872203914946e+02,	 1.0482143644682321e+04,	 5.3603371472745823e+02,	 2.7552105313635886e+00 
1.0977304999999999e+00,	 2.6634524999999998e-01,	 5.1142361926226357e-02,	 1.4763507625630050e+03,	 -3.1721167011785692e+01,	 7.1367358409921917e+02,	 1.0500508743401202e+04,	 5.3614072540999837e+02,	 2.7542983342160712e+00 
1.0986929999999999e+00,	 2.6632515000000001e-01,	 5.1207278215994884e-02,	 1.4761699691140354e+03,	 -3.1715244431690870e+01,	 7.1393883278108478e+02,	 1.0517744946826217e+04,	 5.3624034897222327e+02,	 2.7534493269258160e+00 
1.0996622500000000e+00,	 2.6630485000000004e-01,	 5.1268225523340281e-02,	 1.4760011279511345e+03,	 -3.1747895311374972e+01,	 7.1418531334963075e+02,	 1.0533898722900196e+04,	 5.3633290691566378e+02,	 2.7526607233779883e+00 
1.1006385000000001e+00,	 2.6628439999999998e-01,	 5.1334770822491708e-02,	 1.4758149130587897e+03,	 -3.1730976411803972e+01,	 7.1445879201523064e+02,	 1.0551610465063530e+04,	 5.3643558444644327e+02,	 2.7517861132193464e+00 
1.1016220000000001e+00,	 2.6626382500000001e-01,	 5.1398565503727234e-02,	 1.4756412908302616e+03,	 -3.1745474382377157e+01,	 7.1471279162447763e+02,	 1.0568479048711841e+04,	 5.3653093096778548e+02,	 2.7509741496147568e+00 
1.1026125000000000e+00,	 2.6624310000000001e-01,	 5.1465838801861216e-02,	 1.4754531049754003e+03,	 -3.1727522230226953e+01,	 7.1498912432003601e+02,	 1.0586403149109390e+04,	 5.3663464165563084e+02,	 2.7500911768111034e+00 
1.1036102500000000e+00,	 2.6622224999999999e-01,	 5.1536974708571291e-02,	 1.4752535870048123e+03,	 -3.1677707753070578e+01,	 7.1528302721243438e+02,	 1.0605393293151994e+04,	 5.3674492463994534e+02,	 2.7491524993561915e+00 
1.1046152500000002e+00,	 2.6620124999999994e-01,	 5.1602740692398417e-02,	 1.4750718015686982e+03,	 -3.1681576920418198e+01,	 7.1554922379137838e+02,	 1.0622878656575827e+04,	 5.3684479166207234e+02,	 2.7483027004204525e+00 
1.1056275000000002e+00,	 2.6618004999999995e-01,	 5.1667229295433555e-02,	 1.4748922281246157e+03,	 -3.1697415402877741e+01,	 7.1581177081768965e+02,	 1.0640056787074840e+04,	 5.3694327131404555e+02,	 2.7474649141492073e+00 
1.1066472500000002e+00,	 2.6615869999999997e-01,	 5.1736710304931433e-02,	 1.4746973628123344e+03,	 -3.1669946023966624e+01,	 7.1609804448238663e+02,	 1.0658626299314456e+04,	 5.3705063009104549e+02,	 2.7465518255028933e+00 
1.1076744999999999e+00,	 2.6613722499999998e-01,	 5.1803114215333540e-02,	 1.4745170298941446e+03,	 -3.1677566069239344e+01,	 7.1636189565152495e+02,	 1.0676238897342153e+04,	 5.3714956094794320e+02,	 2.7457106325567233e+00 
1.1087095000000000e+00,	 2.6611557499999994e-01,	 5.1868505427440106e-02,	 1.4743392026721133e+03,	 -3.1695946201285718e+01,	 7.1662170699031981e+02,	 1.0693592506804456e+04,	 5.3724695927130642e+02,	 2.7448826727867077e+00 
1.1097519999999998e+00,	 2.6609374999999996e-01,	 5.1937477602303418e-02,	 1.4741465436905310e+03,	 -3.1680661624598297e+01,	 7.1690426021989595e+02,	 1.0712034247953085e+04,	 5.3735286305686554e+02,	 2.7439826377248564e+00 
1.1108020000000001e+00,	 2.6607177500000001e-01,	 5.2004979381010757e-02,	 1.4739628720263438e+03,	 -3.1684587187078908e+01,	 7.1717301625877815e+02,	 1.0729977389142039e+04,	 5.3745357615247110e+02,	 2.7431269361260240e+00 
1.1118600000000001e+00,	 2.6604965000000003e-01,	 5.2076742751708829e-02,	 1.4737628446742824e+03,	 -3.1649118370758401e+01,	 7.1746691648560011e+02,	 1.0749187288943795e+04,	 5.3756369013107360e+02,	 2.7421916056301501e+00 
1.1129257499999998e+00,	 2.6602735000000000e-01,	 5.2144734990900193e-02,	 1.4735749063765747e+03,	 -3.1650329822876472e+01,	 7.1774193193416897e+02,	 1.0767347300598611e+04,	 5.3766670822957542e+02,	 2.7413167805486296e+00 
1.1139992500000000e+00,	 2.6600487499999997e-01,	 5.2212803328919040e-02,	 1.4733891897685696e+03,	 -3.1653192450916379e+01,	 7.1801360950714673e+02,	 1.0785483651839293e+04,	 5.3776845661558627e+02,	 2.7404529573739449e+00 
1.1150810000000000e+00,	 2.6598224999999998e-01,	 5.2285095931693885e-02,	 1.4731881837129672e+03,	 -3.1617488151903917e+01,	 7.1830883395579076e+02,	 1.0804857764675044e+04,	 5.3787900192965685e+02,	 2.7395146971872433e+00 
1.1161707500000000e+00,	 2.6595947499999995e-01,	 5.2353812097204175e-02,	 1.4730032112584715e+03,	 -3.1618653924781807e+01,	 7.1857940498049311e+02,	 1.0823133447334261e+04,	 5.3798029594381660e+02,	 2.7386551837632114e+00 
1.1172685000000000e+00,	 2.6593652499999998e-01,	 5.2422236941332093e-02,	 1.4728179105012780e+03,	 -3.1620681980485219e+01,	 7.1885039515016263e+02,	 1.0841365901569081e+04,	 5.3808172776084973e+02,	 2.7377947172314143e+00 
1.1183747499999999e+00,	 2.6591337500000001e-01,	 5.2490384738004076e-02,	 1.4726323232470843e+03,	 -3.1623159052182238e+01,	 7.1912175611642533e+02,	 1.0859557306965346e+04,	 5.3818327921112973e+02,	 2.7369334523886391e+00 
1.1194892500000000e+00,	 2.6589004999999999e-01,	 5.2561391756695525e-02,	 1.4724363712053619e+03,	 -3.1597538018280218e+01,	 7.1940912154077103e+02,	 1.0878593123215489e+04,	 5.3829079912544262e+02,	 2.7360218045766960e+00 
1.1206119999999999e+00,	 2.6586657499999999e-01,	 5.2631240288309393e-02,	 1.4722478088529667e+03,	 -3.1582328178652741e+01,	 7.1968531710282252e+02,	 1.0897231682929318e+04,	 5.3839411951603336e+02,	 2.7351459925072361e+00 
1.1217432500000000e+00,	 2.6584292500000001e-01,	 5.2699887722950776e-02,	 1.4720619125559674e+03,	 -3.1573046752779941e+01,	 7.1995739365455381e+02,	 1.0915570111866624e+04,	 5.3849587966735373e+02,	 2.7342836248005029e+00 
1.1228830000000001e+00,	 2.6581907500000002e-01,	 5.2766431534284071e-02,	 1.4718829512586042e+03,	 -3.1578124151602147e+01,	 7.2021884833495380e+02,	 1.0933322159739118e+04,	 5.3859364898633908e+02,	 2.7334552817739386e+00 
1.1240312500000000e+00,	 2.6579502499999996e-01,	 5.2831302276137200e-02,	 1.4717095957799140e+03,	 -3.1591334931679725e+01,	 7.2047182267295511e+02,	 1.0950608534156678e+04,	 5.3868823024442042e+02,	 2.7326541397552511e+00 
1.1251882500000001e+00,	 2.6577079999999997e-01,	 5.2902185489078615e-02,	 1.4715135043007006e+03,	 -3.1538383214899657e+01,	 7.2076006790041015e+02,	 1.0969687832819727e+04,	 5.3879597823622169e+02,	 2.7317416981029878e+00 
1.1263542500000001e+00,	 2.6574639999999994e-01,	 5.2963962150611492e-02,	 1.4713546580580216e+03,	 -3.1564266925233774e+01,	 7.2099138070877461e+02,	 1.0986022315678087e+04,	 5.3888242892809365e+02,	 2.7310097836986960e+00 
1.1275290000000000e+00,	 2.6572182499999997e-01,	 5.3030686122958998e-02,	 1.4711766343289014e+03,	 -3.1528693162023924e+01,	 7.2125261357529325e+02,	 1.1003848021017817e+04,	 5.3898004524934981e+02,	 2.7301835257689930e+00 
1.1287127500000000e+00,	 2.6569707500000000e-01,	 5.3095682532138193e-02,	 1.4710036203625511e+03,	 -3.1493237869155212e+01,	 7.2150649133498962e+02,	 1.1021212805765614e+04,	 5.3907489621045431e+02,	 2.7293808653103664e+00 
1.1299055000000000e+00,	 2.6567212500000004e-01,	 5.3156406834027101e-02,	 1.4708443188633969e+03,	 -3.1478089673747302e+01,	 7.2173967342952994e+02,	 1.1037383506681495e+04,	 5.3916200038773832e+02,	 2.7286439260056499e+00 
1.1311072500000001e+00,	 2.6564697500000001e-01,	 5.3214593801478707e-02,	 1.4706936123223306e+03,	 -3.1464132363521255e+01,	 7.2196023932741730e+02,	 1.1052842185722277e+04,	 5.3924437888988382e+02,	 2.7279471134805124e+00 
1.1323182500000002e+00,	 2.6562162499999997e-01,	 5.3270947308499676e-02,	 1.4705468293801075e+03,	 -3.1439177863880197e+01,	 7.2217539576423871e+02,	 1.1067844413560453e+04,	 5.3932472490478949e+02,	 2.7272676292677991e+00 
1.1335385000000000e+00,	 2.6559607499999999e-01,	 5.3323765967758709e-02,	 1.4704118080360922e+03,	 -3.1417398005914766e+01,	 7.2237325578751802e+02,	 1.1081853638513339e+04,	 5.3939860134474714e+02,	 2.7266429766844009e+00 
1.1347682500000000e+00,	 2.6557037500000003e-01,	 5.3378319246176052e-02,	 1.4702743673487230e+03,	 -3.1348918034571717e+01,	 7.2257608487493837e+02,	 1.1096305775376335e+04,	 5.3947432261937251e+02,	 2.7260028431894154e+00 
1.1360074999999998e+00,	 2.6554447500000000e-01,	 5.3422212838721964e-02,	 1.4701670299758259e+03,	 -3.1335173830264058e+01,	 7.2273323668483863e+02,	 1.1107845693122401e+04,	 5.3953298409381171e+02,	 2.7255070120232969e+00 
1.1372562499999999e+00,	 2.6551835000000001e-01,	 5.3463146227933238e-02,	 1.4700723094746415e+03,	 -3.1306895359788406e+01,	 7.2287240882374647e+02,	 1.1118497398728830e+04,	 5.3958492880947017e+02,	 2.7250680134075260e+00 
1.1385144999999999e+00,	 2.6549202500000002e-01,	 5.3498433098460280e-02,	 1.4699909529827235e+03,	 -3.1277939477753282e+01,	 7.2299208256108375e+02,	 1.1127677771467574e+04,	 5.3962959192834342e+02,	 2.7246905983313230e+00 
1.1397824999999999e+00,	 2.6546547500000001e-01,	 5.3529002543420405e-02,	 1.4699242201219352e+03,	 -3.1237527752210589e+01,	 7.2309075670028665e+02,	 1.1135555794157628e+04,	 5.3966641506242252e+02,	 2.7243794643474422e+00 
1.1410602500000000e+00,	 2.6543875000000000e-01,	 5.3553111194849373e-02,	 1.4698826607027188e+03,	 -3.1199419243309737e+01,	 7.2315260629157331e+02,	 1.1141523988818393e+04,	 5.3968949476104513e+02,	 2.7241844687240571e+00 
1.1423480000000001e+00,	 2.6541182500000005e-01,	 5.3571852570111655e-02,	 1.4698524319400753e+03,	 -3.1140542388315033e+01,	 7.2319855546970939e+02,	 1.1146131242801357e+04,	 5.3970664044689931e+02,	 2.7240396155129347e+00 
1.1436457499999999e+00,	 2.6538465000000000e-01,	 5.3577895850270001e-02,	 1.4698628446752077e+03,	 -3.1125034831225840e+01,	 7.2318383499352228e+02,	 1.1147161702923542e+04,	 5.3970114764058962e+02,	 2.7240860201448154e+00 
1.1449535000000000e+00,	 2.6535727500000000e-01,	 5.3582900287606046e-02,	 1.4698747648018782e+03,	 -3.1041144889604038e+01,	 7.2316902412451134e+02,	 1.1147974586125583e+04,	 5.3969562104863405e+02,	 2.7241327108386093e+00 
1.1462715000000001e+00,	 2.6532970000000000e-01,	 5.3573184141453935e-02,	 1.4699347228518179e+03,	 -3.1008158683191120e+01,	 7.2308251414179540e+02,	 1.1144619784123577e+04,	 5.3966333920740203e+02,	 2.7244054524486923e+00 
1.1475995000000001e+00,	 2.6530192499999999e-01,	 5.3560503124640738e-02,	 1.4700012769578768e+03,	 -3.0911804749464306e+01,	 7.2298831735184001e+02,	 1.1140530323064195e+04,	 5.3962818678088604e+02,	 2.7247024715647763e+00 
1.1489380000000000e+00,	 2.6527394999999998e-01,	 5.3532648681974458e-02,	 1.4701181960181623e+03,	 -3.0859545730908174e+01,	 7.2281922470695838e+02,	 1.1132132432926906e+04,	 5.3956507891937918e+02,	 2.7252357634914377e+00 
1.1502870000000001e+00,	 2.6524569999999997e-01,	 5.3489802074982572e-02,	 1.4702819178664752e+03,	 -3.0841643231342186e+01,	 7.2258072522245425e+02,	 1.1119552277959237e+04,	 5.3947605485516488e+02,	 2.7259882005872580e+00 
1.1516465000000000e+00,	 2.6521724999999996e-01,	 5.3444649270114129e-02,	 1.4704562957016026e+03,	 -3.0742743395682858e+01,	 7.2232911369407873e+02,	 1.1106297138142008e+04,	 5.3938212056626855e+02,	 2.7267823179099300e+00 
1.1530167499999999e+00,	 2.6518860000000000e-01,	 5.3381878897296391e-02,	 1.4706905268653784e+03,	 -3.0695711784203830e+01,	 7.2198846402404251e+02,	 1.1088021301886683e+04,	 5.3925491953978394e+02,	 2.7278579638094711e+00 
1.1543977500000000e+00,	 2.6515970000000000e-01,	 5.3310580821415210e-02,	 1.4709555458852042e+03,	 -3.0614673541175115e+01,	 7.2160381663602266e+02,	 1.1067312506554503e+04,	 5.3911125337286853e+02,	 2.7290732486348563e+00 
1.1557895000000000e+00,	 2.6513057500000003e-01,	 5.3226772746135680e-02,	 1.4712649467681426e+03,	 -3.0531887148026478e+01,	 7.2115429868469892e+02,	 1.1043030428589460e+04,	 5.3894330945866921e+02,	 2.7304944467179193e+00 
1.0570607500000000e+00,	 2.6790002499999999e-01,	 5.0812003225433611e-02,	 1.5083725015109192e+03,	 -3.3801256770182952e+01,	 6.6614664187632627e+02,	 9.7379176455906199e+03,	 5.1798109338067025e+02,	 2.9127533822719753e+00 
1.0577542499999999e+00,	 2.6788582500000002e-01,	 5.0867043009852016e-02,	 1.5082240154724159e+03,	 -3.3783344464151455e+01,	 6.6636966353890000e+02,	 9.7517295250322750e+03,	 5.1806779451376894e+02,	 2.9119786014028834e+00 
1.0584517500000001e+00,	 2.6787152500000000e-01,	 5.0921544648089727e-02,	 1.5080779922937761e+03,	 -3.3773886167254872e+01,	 6.6658869083075081e+02,	 9.7653867480528570e+03,	 5.1815292868902304e+02,	 2.9112180011450333e+00 
1.0591532500000000e+00,	 2.6785714999999999e-01,	 5.0975861312905442e-02,	 1.5079318472056750e+03,	 -3.3766285161514183e+01,	 6.6680781714352497e+02,	 9.7790168072511860e+03,	 5.1823808735792386e+02,	 2.9104573583249422e+00 
1.0598589999999999e+00,	 2.6784267499999997e-01,	 5.1029944019970998e-02,	 1.5077869336206873e+03,	 -3.3763678839687373e+01,	 6.6702491065138213e+02,	 9.7925789749371979e+03,	 5.1832244222427028e+02,	 2.9097040688200688e+00 
1.0605690000000001e+00,	 2.6782812499999997e-01,	 5.1085443743555649e-02,	 1.5076388888710205e+03,	 -3.3749337347231432e+01,	 6.6724706489049424e+02,	 9.8064942876418190e+03,	 5.1840874930215080e+02,	 2.9089335248652821e+00 
1.0612835000000000e+00,	 2.6781349999999998e-01,	 5.1141485403677772e-02,	 1.5074889617698582e+03,	 -3.3731697916965864e+01,	 6.6747212574891159e+02,	 9.8205635260485706e+03,	 5.1849617095411531e+02,	 2.9081532143270694e+00 
1.0620020000000001e+00,	 2.6779874999999997e-01,	 5.1196170825240084e-02,	 1.5073408831498207e+03,	 -3.3726853336067897e+01,	 6.6769396837310330e+02,	 9.8343320982508449e+03,	 5.1858232810651941e+02,	 2.9073843718189303e+00 
1.0627247499999999e+00,	 2.6778392499999998e-01,	 5.1251948604373973e-02,	 1.5071923032891254e+03,	 -3.3716442108706104e+01,	 6.6791672587836979e+02,	 9.8483310425304462e+03,	 5.1866882617143574e+02,	 2.9066126680635098e+00 
1.0634522500000001e+00,	 2.6776902499999999e-01,	 5.1308225944148363e-02,	 1.5070408254047475e+03,	 -3.3700833200199547e+01,	 6.6814397272553731e+02,	 9.8624994285121757e+03,	 5.1875705261282235e+02,	 2.9058257310443669e+00 
1.0641840000000000e+00,	 2.6775402500000001e-01,	 5.1364359249391450e-02,	 1.5068903596459886e+03,	 -3.3690018084415541e+01,	 6.6836952149279989e+02,	 9.8766223843574044e+03,	 5.1884460495608459e+02,	 2.9050449928991635e+00 
1.0649202499999999e+00,	 2.6773894999999998e-01,	 5.1421107382238603e-02,	 1.5067406400066016e+03,	 -3.3677859352892618e+01,	 6.6859397612511611e+02,	 9.8908547012973140e+03,	 5.1893171791954012e+02,	 2.9042683568947418e+00 
1.0656610000000000e+00,	 2.6772377500000000e-01,	 5.1477683203110879e-02,	 1.5065885827616710e+03,	 -3.3666279214598667e+01,	 6.6882188658876100e+02,	 9.9051123719477255e+03,	 5.1902015716323524e+02,	 2.9034800843898787e+00 
1.0664062500000000e+00,	 2.6770847500000000e-01,	 5.1534431188942270e-02,	 1.5064356272681534e+03,	 -3.3654666250553895e+01,	 6.6905111889929742e+02,	 9.9194301981431636e+03,	 5.1910909414293462e+02,	 2.9026875660355937e+00 
1.0671562500000000e+00,	 2.6769310000000002e-01,	 5.1591405042793956e-02,	 1.5062856419637747e+03,	 -3.3647175672664787e+01,	 6.6927574692641713e+02,	 9.9337306604641199e+03,	 5.1919622998549494e+02,	 2.9019112828320623e+00 
1.0679112500000001e+00,	 2.6767762499999997e-01,	 5.1648349963590051e-02,	 1.5061327988616010e+03,	 -3.3638766803580687e+01,	 6.6950465785192330e+02,	 9.9480965528410015e+03,	 5.1928501217230917e+02,	 2.9011205209487714e+00 
1.0686709999999999e+00,	 2.6766204999999998e-01,	 5.1705614581071556e-02,	 1.5059791893216027e+03,	 -3.3629966756385187e+01,	 6.6973470487108875e+02,	 9.9625484438750063e+03,	 5.1937421969884770e+02,	 2.9003261620871457e+00 
1.0694352499999999e+00,	 2.6764640000000001e-01,	 5.1763385261762211e-02,	 1.5058267073952532e+03,	 -3.3621021308846210e+01,	 6.6996304692560193e+02,	 9.9770800653671813e+03,	 5.1946275092523115e+02,	 2.8995380150002990e+00 
1.0702042500000000e+00,	 2.6763062500000001e-01,	 5.1821335534733670e-02,	 1.5056705517874980e+03,	 -3.3609023914156481e+01,	 6.7019696099037742e+02,	 9.9917369753799285e+03,	 5.1955342685121263e+02,	 2.8987309704286637e+00 
1.0709784999999998e+00,	 2.6761474999999996e-01,	 5.1878107811354206e-02,	 1.5055230875572056e+03,	 -3.3616431108512927e+01,	 6.7041720804147849e+02,	 1.0005970494698349e+04,	 5.1963879034661511e+02,	 2.8979713889957073e+00 
1.0717574999999999e+00,	 2.6759877499999996e-01,	 5.1935973838217943e-02,	 1.5053682270325417e+03,	 -3.3610673497657700e+01,	 6.7064893054023059e+02,	 1.0020593696568931e+04,	 5.1972858636805006e+02,	 2.8971725551952621e+00 
1.0725415000000000e+00,	 2.6758270000000001e-01,	 5.1995135764831342e-02,	 1.5052121381377344e+03,	 -3.3597540219462417e+01,	 6.7088271155461814e+02,	 1.0035505525312597e+04,	 5.1981916437675761e+02,	 2.8963669610983334e+00 
1.0733310000000000e+00,	 2.6756652500000000e-01,	 5.2054477345553844e-02,	 1.5050530412063870e+03,	 -3.3582987651079726e+01,	 6.7112101165321019e+02,	 1.0050527675644847e+04,	 5.1991147705519165e+02,	 2.8955461417313519e+00 
1.0741255000000001e+00,	 2.6755022499999997e-01,	 5.2112968782476433e-02,	 1.5048978684552169e+03,	 -3.3580437272866838e+01,	 6.7135302135227039e+02,	 1.0065299451814182e+04,	 5.2000133721447867e+02,	 2.8947473259646270e+00 
1.0749249999999999e+00,	 2.6753384999999996e-01,	 5.2173347737242332e-02,	 1.5047383637927180e+03,	 -3.3562867201590613e+01,	 6.7159198144027835e+02,	 1.0080548049614334e+04,	 5.2009387311298792e+02,	 2.8939249265257363e+00 
1.0757297499999998e+00,	 2.6751737500000000e-01,	 5.2232745933132430e-02,	 1.5045811433822441e+03,	 -3.3557320666807662e+01,	 6.7182710212802556e+02,	 1.0095557692058288e+04,	 5.2018490615952419e+02,	 2.8931160837548986e+00 
1.0765397500000000e+00,	 2.6750077500000002e-01,	 5.2292215051111382e-02,	 1.5044235071458734e+03,	 -3.3552381868049316e+01,	 6.7206279926125387e+02,	 1.0110597754962566e+04,	 5.2027614640508216e+02,	 2.8923055991836022e+00 
1.0773552500000001e+00,	 2.6748405000000003e-01,	 5.2352081601788766e-02,	 1.5042659514746986e+03,	 -3.3548032358271861e+01,	 6.7229833170094776e+02,	 1.0125720272171311e+04,	 5.2036730691532296e+02,	 2.8914960219277899e+00 
1.0781762500000001e+00,	 2.6746722499999998e-01,	 5.2412696438949691e-02,	 1.5041053679276642e+03,	 -3.3537249373044197e+01,	 6.7253857668487228e+02,	 1.0141066743228217e+04,	 5.2046027491988241e+02,	 2.8906705974580791e+00 
1.0790025000000001e+00,	 2.6745027499999996e-01,	 5.2473726103816815e-02,	 1.5039413965330516e+03,	 -3.3523641094072147e+01,	 6.7278395008901566e+02,	 1.0156579305290887e+04,	 5.2055521033887112e+02,	 2.8898279183673337e+00 
1.0798345000000000e+00,	 2.6743319999999998e-01,	 5.2535885282358946e-02,	 1.5037768090640548e+03,	 -3.3504558432436582e+01,	 6.7303039884274006e+02,	 1.0172335440224744e+04,	 5.2065054438809489e+02,	 2.8889819175807010e+00 