TITLE = "Final State"
VARIABLES = "X", "Y", "rho", "u", "v", "T", "p", "c", "M"
ZONE I=102, J=25, DATAPACKING=POINT
1.1565000000000001e+00,	 2.8413739999999998e-01,	 5.1827182121671075e-02,	 1.5502421126625054e+03,	 1.6303315085227101e+01,	 6.1257822247006197e+02,	 9.1337493065803192e+03,	 4.7495310390649723e+02,	 3.2641703474868833e+00 
1.1579079999999999e+00,	 2.8412319999999996e-01,	 5.1612715576611193e-02,	 1.5508152097251241e+03,	 1.8991260658310221e+01,	 6.1158065569130690e+02,	 9.0811403445770557e+03,	 4.7456622230568365e+02,	 3.2681034085875527e+00 
1.1593270000000000e+00,	 2.8410879999999999e-01,	 5.1363151863425410e-02,	 1.5515504281076273e+03,	 2.2061108263266981e+01,	 6.1042640196086109e+02,	 9.0201739508110259e+03,	 4.7411817957660435e+02,	 3.2728280157129142e+00 
1.1607580000000000e+00,	 2.8409429999999997e-01,	 5.1114764295182080e-02,	 1.5522774825370170e+03,	 2.5133224332993137e+01,	 6.0927527991192630e+02,	 8.9596255143746530e+03,	 4.7367093038388123e+02,	 3.2775516462212617e+00 
1.1621999999999999e+00,	 2.8407959999999999e-01,	 5.0867648379878935e-02,	 1.5529962330596763e+03,	 2.8206537014173705e+01,	 6.0812779974442242e+02,	 8.8995173713305212e+03,	 4.7322467548773386e+02,	 3.2822725551190368e+00 
1.1636530000000000e+00,	 2.8406490000000001e-01,	 5.0621990066128691e-02,	 1.5537063654133617e+03,	 3.1279310949915573e+01,	 6.0698475103413398e+02,	 8.8398914559393525e+03,	 4.7277972520363755e+02,	 3.2869878067248202e+00 
1.1651170000000000e+00,	 2.8404999999999997e-01,	 5.0377925609595808e-02,	 1.5544074634013898e+03,	 3.4350168133155748e+01,	 6.0584700121789410e+02,	 8.7807817118348648e+03,	 4.7233642135846185e+02,	 3.2916939948151733e+00 
1.1665930000000000e+00,	 2.8403509999999998e-01,	 5.0135488074019449e-02,	 1.5550995046134492e+03,	 3.7418575999317426e+01,	 6.0471471617457541e+02,	 8.7221936024576298e+03,	 4.7189483331483865e+02,	 3.2963904450621140e+00 
1.1680809999999999e+00,	 2.8401999999999999e-01,	 4.9894751285631894e-02,	 1.5557821080458548e+03,	 4.0483468481485112e+01,	 6.0358861689651917e+02,	 8.6641475636327687e+03,	 4.7145524747305353e+02,	 3.3010741601404763e+00 
1.1695810000000000e+00,	 2.8400480000000000e-01,	 4.9655802612928512e-02,	 1.5564553401694241e+03,	 4.3543209563035248e+01,	 6.0246907313504175e+02,	 8.6066610825255702e+03,	 4.7101781397699187e+02,	 3.3057439754182107e+00 
1.1710920000000000e+00,	 2.8398940000000000e-01,	 4.9418738543505217e-02,	 1.5571189431490325e+03,	 4.6597106317247096e+01,	 6.0135665485306640e+02,	 8.5497558757704592e+03,	 4.7058276183692385e+02,	 3.3103975059910731e+00 
1.1726160000000001e+00,	 2.8397400000000000e-01,	 4.9183687350380881e-02,	 1.5577727702452316e+03,	 4.9643918051847415e+01,	 6.0025187739271621e+02,	 8.4934581192956630e+03,	 4.7015029948579115e+02,	 3.3150326829304699e+00 
1.1741520000000001e+00,	 2.8395840000000000e-01,	 4.8950698866653319e-02,	 1.5584165286581770e+03,	 5.2682362346778575e+01,	 5.9915542994864518e+02,	 8.4377826393827181e+03,	 4.6972070423121346e+02,	 3.3196466017639223e+00 
1.1756990000000000e+00,	 2.8394269999999999e-01,	 4.8720075896417553e-02,	 1.5590496634582910e+03,	 5.5709754765406409e+01,	 5.9806865703972721e+02,	 8.3827967548380639e+03,	 4.6929451145795332e+02,	 3.3242338240555895e+00 
1.1772600000000000e+00,	 2.8392689999999998e-01,	 4.8491899103873644e-02,	 1.5596719182005231e+03,	 5.8725237320271283e+01,	 5.9699205585882328e+02,	 8.3285171115556986e+03,	 4.6887192568965486e+02,	 3.3287919606461207e+00 
1.1788320000000001e+00,	 2.8391089999999997e-01,	 4.8266483273505453e-02,	 1.5602824740628939e+03,	 6.1724868046669798e+01,	 5.9592740917793765e+02,	 8.2750181567532763e+03,	 4.6845365739958766e+02,	 3.3333135344845974e+00 
1.1804170000000000e+00,	 2.8389480000000000e-01,	 4.8044258194598177e-02,	 1.5608801682663534e+03,	 6.4704733218252713e+01,	 5.9487674270648790e+02,	 8.2223965818715824e+03,	 4.6804051506310299e+02,	 3.3377895234812991e+00 
1.1820150000000000e+00,	 2.8387859999999998e-01,	 4.7825742454358444e-02,	 1.5614633822804990e+03,	 6.7659317360626488e+01,	 5.9384269812786829e+02,	 8.1707717569025490e+03,	 4.6763355239108785e+02,	 3.3422079104756248e+00 
1.1836260000000001e+00,	 2.8386230000000001e-01,	 4.7611875774082046e-02,	 1.5620294703443187e+03,	 7.0578520293794497e+01,	 5.9282998045152146e+02,	 8.1203619552972268e+03,	 4.6723463964429538e+02,	 3.3465480288720766e+00 
1.1852490000000000e+00,	 2.8384579999999998e-01,	 4.7403913203592135e-02,	 1.5625746245768132e+03,	 7.3449449718436995e+01,	 5.9184481954101034e+02,	 8.0714578334162306e+03,	 4.6684625451814861e+02,	 3.3507817989962398e+00 
1.1868860000000001e+00,	 2.8382920000000000e-01,	 4.7203795956252390e-02,	 1.5630932948190616e+03,	 7.6251577478038257e+01,	 5.9089639722334960e+02,	 8.0245041116193679e+03,	 4.6647204753318141e+02,	 3.3548678183058454e+00 
1.1885349999999999e+00,	 2.8381249999999997e-01,	 4.7014244718324188e-02,	 1.5635773219259686e+03,	 7.8955936466475634e+01,	 5.8999805298920160e+02,	 7.9801302433475275e+03,	 4.6611732217895207e+02,	 3.3587457416312896e+00 
1.1901980000000001e+00,	 2.8379559999999998e-01,	 4.6839321927880012e-02,	 1.5640148234758128e+03,	 8.1519503221281127e+01,	 5.8916960291639384e+02,	 7.9392754335200143e+03,	 4.6578995620006538e+02,	 3.3623263864987845e+00 
1.1918740000000001e+00,	 2.8377859999999999e-01,	 4.6684560595371002e-02,	 1.5643896352978286e+03,	 8.3883797038714945e+01,	 5.8843800251744460e+02,	 7.9032173446557827e+03,	 4.6550066940545344e+02,	 3.3654881324022354e+00 
1.1935640000000001e+00,	 2.8376150000000000e-01,	 4.6557948648833704e-02,	 1.5646783119158099e+03,	 8.5964170420892685e+01,	 5.8784269837954628e+02,	 7.8738094894380811e+03,	 4.6526514366105010e+02,	 3.3680537004772790e+00 
1.1952670000000001e+00,	 2.8374420000000000e-01,	 4.6470243344012820e-02,	 1.5648499420516378e+03,	 8.7646585703309484e+01,	 5.8743709138414863e+02,	 7.8535542672838101e+03,	 4.6510460125601264e+02,	 3.3697850762805053e+00 
1.1969840000000000e+00,	 2.8372680000000000e-01,	 4.6435652823485364e-02,	 1.5648644029080870e+03,	 8.8779758796692221e+01,	 5.8729230371887536e+02,	 7.8457741554114928e+03,	 4.6504727974849226e+02,	 3.3703686220615903e+00 
1.1987140000000001e+00,	 2.8370919999999999e-01,	 4.6471825144186643e-02,	 1.5646733208453675e+03,	 8.9174034944448067e+01,	 5.8749782579196631e+02,	 7.8546335914245383e+03,	 4.6512864393467117e+02,	 3.3694170191694646e+00 
1.2004589999999999e+00,	 2.8369159999999999e-01,	 4.6602201888125305e-02,	 1.5642213219367329e+03,	 8.8642652753444523e+01,	 5.8816348448736881e+02,	 7.8855943565209118e+03,	 4.6539207407880576e+02,	 3.3664753557533920e+00 
1.2022180000000000e+00,	 2.8367369999999997e-01,	 4.6843729312091652e-02,	 1.5634748674405782e+03,	 8.6929471871179516e+01,	 5.8936209955437380e+02,	 7.9426166926542764e+03,	 4.6586604267629582e+02,	 3.3612444479453192e+00 
1.2039899999999999e+00,	 2.8365570000000001e-01,	 4.7194771556894180e-02,	 1.5624121778758981e+03,	 8.3781462582757342e+01,	 5.9113076755303905e+02,	 8.0261521832880071e+03,	 4.6656454798628852e+02,	 3.3535700153998205e+00 
1.2057780000000000e+00,	 2.8363759999999999e-01,	 4.7679433603671537e-02,	 1.5609919204301934e+03,	 7.9408517585609673e+01,	 5.9362013122938288e+02,	 8.1427227105561624e+03,	 4.6754591175529504e+02,	 3.3430094320193202e+00 
1.2075790000000000e+00,	 2.8361929999999996e-01,	 4.8273193667937281e-02,	 1.5593067068806715e+03,	 7.3819161272321693e+01,	 5.9665549318328112e+02,	 8.2862801599100403e+03,	 4.6873974048242525e+02,	 3.3303194312853353e+00 
1.2093950000000000e+00,	 2.8360089999999999e-01,	 4.8941019929618537e-02,	 1.5574618105236714e+03,	 6.7334815060087067e+01,	 6.0005431130869806e+02,	 8.4487705094604626e+03,	 4.7007292080410878e+02,	 3.3163295057564510e+00 
1.2112259999999999e+00,	 2.8358230000000001e-01,	 4.9636215983999768e-02,	 1.5555895218034955e+03,	 6.0412286281710649e+01,	 6.0358012343176097e+02,	 8.6191320155047633e+03,	 4.7145193039375135e+02,	 3.3020591365000160e+00 
1.2130719999999999e+00,	 2.8356359999999997e-01,	 5.0308484082204050e-02,	 1.5538258080133924e+03,	 5.3526236133400602e+01,	 6.0698064288304840e+02,	 8.7850858507509402e+03,	 4.7277812528385010e+02,	 3.2885351250024075e+00 
1.2149319999999999e+00,	 2.8354469999999998e-01,	 5.0914738792920716e-02,	 1.5522823218591298e+03,	 4.7063355119614258e+01,	 6.1004315731828751e+02,	 8.9358118877632878e+03,	 4.7396932315396481e+02,	 3.2765741042896872e+00 
1.2168079999999999e+00,	 2.8352569999999999e-01,	 5.1426333369387844e-02,	 1.5510282254729366e+03,	 4.1262267271741358e+01,	 6.1263077830139571e+02,	 9.0638834005149474e+03,	 4.7497347764730029e+02,	 3.2666602557147471e+00 
1.2186990000000000e+00,	 2.8350649999999999e-01,	 5.1830759533800327e-02,	 1.5500891792703135e+03,	 3.6210292837940003e+01,	 6.1468681773434560e+02,	 9.1658218123868373e+03,	 4.7576983513433953e+02,	 3.2589541113254414e+00 
1.2206049999999999e+00,	 2.8348719999999999e-01,	 5.2128490029617211e-02,	 1.5494561724176051e+03,	 3.1877229192586455e+01,	 6.1621943731092335e+02,	 9.2414576094405129e+03,	 4.7636259244530356e+02,	 3.2533705840346450e+00 
1.2225269999999999e+00,	 2.8346769999999999e-01,	 5.2329246663796986e-02,	 1.5490978475780098e+03,	 2.8157093494460568e+01,	 6.1728008121857681e+02,	 9.2930159643768075e+03,	 4.7677237654724729e+02,	 3.2496717524020826e+00 
1.2244640000000000e+00,	 2.8344809999999998e-01,	 5.2446855838118034e-02,	 1.5489736671596684e+03,	 2.4913797868344254e+01,	 6.1793897328009166e+02,	 9.3238436433951392e+03,	 4.7702676491868931e+02,	 3.2475620358064168e+00 
1.2264170000000001e+00,	 2.8342829999999997e-01,	 5.2495884718131762e-02,	 1.5490429692181983e+03,	 2.2012053771492493e+01,	 6.1826832410890052e+02,	 9.3375339432658802e+03,	 4.7715387150901648e+02,	 3.2467500539287442e+00 
1.2283860000000000e+00,	 2.8340830000000000e-01,	 5.2489929933767186e-02,	 1.5492696491298261e+03,	 1.9333804548899046e+01,	 6.1833463267990578e+02,	 9.3374760817014376e+03,	 4.7717945792664381e+02,	 3.2469760692611080e+00 
1.2303710000000001e+00,	 2.8338809999999998e-01,	 5.2439421186161968e-02,	 1.5496231482769406e+03,	 1.6793359084923594e+01,	 6.1818847329183586e+02,	 9.3262860095410288e+03,	 4.7712305773827012e+02,	 3.2480386679945630e+00 
1.2323720000000000e+00,	 2.8336780000000000e-01,	 5.2356430198314291e-02,	 1.5500730448475090e+03,	 1.4293189020911566e+01,	 6.1788770649835442e+02,	 9.3069958351674486e+03,	 4.7700697644818212e+02,	 3.2497196447272141e+00 
1.2343890000000000e+00,	 2.8334739999999997e-01,	 5.2246003990309729e-02,	 1.5506071739019960e+03,	 1.1798486626787788e+01,	 6.1745653653185354e+02,	 9.2808853828098036e+03,	 4.7684051661058021e+02,	 3.2519301658753932e+00 
1.2364230000000000e+00,	 2.8332679999999999e-01,	 5.2113901920192801e-02,	 1.5512092872673793e+03,	 9.2900284671212177e+00,	 6.1692228492341997e+02,	 9.2494090687655298e+03,	 4.7663417986646448e+02,	 3.2545653900688269e+00 
1.2384729999999999e+00,	 2.8330600000000000e-01,	 5.1964453774159765e-02,	 1.5518670116512935e+03,	 6.7445374998195149e+00,	 6.1630531958612426e+02,	 9.2136608134934340e+03,	 4.7639578652799617e+02,	 3.2575470052759874e+00 
1.2405409999999999e+00,	 2.8328500000000001e-01,	 5.1800375117210501e-02,	 1.5525724051164907e+03,	 4.1424128274068996e+00,	 6.1561835649008185e+02,	 9.1743309659005718e+03,	 4.7613020584781310e+02,	 3.2608263710562904e+00 
1.2426250000000001e+00,	 2.8326380000000001e-01,	 5.1624445183285010e-02,	 1.5533176329087155e+03,	 1.4819395558974773e+00,	 6.1487419353101052e+02,	 9.1321198106818902e+03,	 4.7584234438343520e+02,	 3.2643550078376564e+00 
1.2447260000000000e+00,	 2.8324250000000001e-01,	 5.1438751861585745e-02,	 1.5540963570343911e+03,	 -1.2357157911132948e+00,	 6.1408245941909456e+02,	 9.0875549926018903e+03,	 4.7553588984831276e+02,	 3.2680958083105667e+00 
1.2468440000000001e+00,	 2.8322110000000000e-01,	 5.1244963668949969e-02,	 1.5549031151719582e+03,	 -4.0077501317390229e+00,	 6.1325088458248058e+02,	 9.0410591456722104e+03,	 4.7521380147117338e+02,	 3.2720183532577471e+00 
1.2489790000000001e+00,	 2.8319939999999999e-01,	 5.1044432169880818e-02,	 1.5557331208417020e+03,	 -6.8307855039103726e+00,	 6.1238561402838479e+02,	 8.9929730989177933e+03,	 4.7487843003969033e+02,	 3.2760976670724387e+00 
1.2511319999999999e+00,	 2.8317759999999997e-01,	 5.0838422511104778e-02,	 1.5565818917265897e+03,	 -9.7001917373245767e+00,	 6.1149228567004047e+02,	 8.9436127450300355e+03,	 4.7453193497022897e+02,	 3.2803105569681112e+00 
1.2533030000000001e+00,	 2.8315550000000000e-01,	 5.0627984254113162e-02,	 1.5574458962536646e+03,	 -1.2611415094587681e+01,	 6.1057564617091066e+02,	 8.8932407963323367e+03,	 4.7417613502255222e+02,	 3.2846380086107212e+00 
1.2554909999999999e+00,	 2.8313329999999998e-01,	 5.0413911070780082e-02,	 1.5583242816102211e+03,	 -1.5561293755366671e+01,	 6.0963817902865605e+02,	 8.8420402110233881e+03,	 4.7381197432524266e+02,	 3.2890725878566904e+00 
1.2576970000000001e+00,	 2.8311100000000000e-01,	 5.0196961485824414e-02,	 1.5592193661994734e+03,	 -1.8547048788683799e+01,	 6.0868084597595885e+02,	 8.7901644947165660e+03,	 4.7343980760969316e+02,	 3.2936175763138471e+00 
1.2599220000000000e+00,	 2.8308839999999996e-01,	 4.9977744687006699e-02,	 1.5601273236385359e+03,	 -2.1563673063926892e+01,	 6.0770771306827760e+02,	 8.7377847124059663e+03,	 4.7306119856376353e+02,	 3.2982547395391499e+00 
1.2621640000000001e+00,	 2.8306559999999997e-01,	 4.9756789688227845e-02,	 1.5610436189276591e+03,	 -2.4605768743059365e+01,	 6.0672269209799674e+02,	 8.6850540926543890e+03,	 4.7267765548344443e+02,	 3.3029645289097433e+00 
1.2644249999999999e+00,	 2.8304269999999998e-01,	 4.9534579825636332e-02,	 1.5619656004945612e+03,	 -2.7669588308799515e+01,	 6.0572845756955712e+02,	 8.6320987217925795e+03,	 4.7229020901298378e+02,	 3.3077345861425598e+00 
1.2667050000000000e+00,	 2.8301959999999998e-01,	 4.9311659828936635e-02,	 1.5628907943948975e+03,	 -3.0751440955750724e+01,	 6.0472780921785920e+02,	 8.5790559320517441e+03,	 4.7189994192710594e+02,	 3.3125524267466964e+00 
1.2690030000000001e+00,	 2.8299629999999998e-01,	 4.9088477550658968e-02,	 1.5638170250129656e+03,	 -3.3848706445346672e+01,	 6.0372290839089362e+02,	 8.5260358801623534e+03,	 4.7150769122924959e+02,	 3.3174078336681037e+00 
1.2713200000000000e+00,	 2.8297279999999997e-01,	 4.8865413492110613e-02,	 1.5647424110554416e+03,	 -3.6959326902746739e+01,	 6.0271553924292562e+02,	 8.4731306725382528e+03,	 4.7111414925962606e+02,	 3.3222921527939313e+00 
1.2736559999999999e+00,	 2.8294910000000001e-01,	 4.8642945766404044e-02,	 1.5656647153991962e+03,	 -4.0080661127330721e+01,	 6.0170808011134022e+02,	 8.4204567292812717e+03,	 4.7072024307507246e+02,	 3.3271941929952282e+00 
1.2760110000000000e+00,	 2.8292519999999999e-01,	 4.8421321565013734e-02,	 1.5665824377969261e+03,	 -4.3211438064407929e+01,	 6.0070169020873709e+02,	 8.3680724165888259e+03,	 4.7032642557024121e+02,	 3.3321076496502244e+00 
1.2783860000000000e+00,	 2.8290110000000002e-01,	 4.8200879490956541e-02,	 1.5674941466853784e+03,	 -4.6348845872337009e+01,	 5.9969801325073308e+02,	 8.3160580095270197e+03,	 4.6993334098997519e+02,	 3.3370248478999107e+00 
1.2807800000000000e+00,	 2.8287679999999998e-01,	 4.7981654806584853e-02,	 1.5683994235326550e+03,	 -4.9491898720499940e+01,	 5.9869713101046727e+02,	 8.2644191703379056e+03,	 4.6954102324118401e+02,	 3.3419446366638241e+00 
1.2831939999999999e+00,	 2.8285230000000000e-01,	 4.7763716025410449e-02,	 1.5692979942707116e+03,	 -5.2637349179000658e+01,	 5.9769943746052468e+02,	 8.2131715134816532e+03,	 4.6914962886723686e+02,	 3.3468651145439070e+00 
1.2856280000000000e+00,	 2.8282760000000001e-01,	 4.7547120526707953e-02,	 1.5701898383955454e+03,	 -5.5780832961066963e+01,	 5.9670516628180246e+02,	 8.1623263786018133e+03,	 4.6875925196852398e+02,	 3.3517852150676037e+00 
1.2880810000000000e+00,	 2.8280279999999997e-01,	 4.7331544227053601e-02,	 1.5710761285707072e+03,	 -5.8918496774817456e+01,	 5.9571267259434887e+02,	 8.1118040324967124e+03,	 4.6836924845978183e+02,	 3.3567116677751168e+00 
1.2905549999999999e+00,	 2.8277769999999997e-01,	 4.7116619617313546e-02,	 1.5719582144804813e+03,	 -6.2045084227770111e+01,	 5.9472032628069110e+02,	 8.0615182949962973e+03,	 4.6797897791408951e+02,	 3.3616514199228384e+00 
1.2930500000000000e+00,	 2.8275240000000001e-01,	 4.6901975177805394e-02,	 1.5728381525666059e+03,	 -6.5151849415963881e+01,	 5.9372604550386632e+02,	 8.0113770296687990e+03,	 4.6758761989049913e+02,	 3.3666138781192059e+00 
1.2955639999999999e+00,	 2.8272690000000000e-01,	 4.6686843666332148e-02,	 1.5737191005933128e+03,	 -6.8229762791969478e+01,	 5.9272603395091664e+02,	 7.9611985307145560e+03,	 4.6719367550914149e+02,	 3.3716155950495095e+00 
1.2981000000000000e+00,	 2.8270109999999998e-01,	 4.6470272827951242e-02,	 1.5746052418181760e+03,	 -7.1267895800621858e+01,	 5.9171541539162365e+02,	 7.9107569851251574e+03,	 4.6679521483424878e+02,	 3.3766782255785182e+00 
1.3006570000000000e+00,	 2.8267520000000002e-01,	 4.6251382107914227e-02,	 1.5755009428782978e+03,	 -7.4250885229216962e+01,	 5.9068958952396315e+02,	 7.8598447779146054e+03,	 4.6639041016511766e+02,	 3.3818226143742547e+00 
1.3032340000000000e+00,	 2.8264909999999999e-01,	 4.6028873156867531e-02,	 1.5764118628504384e+03,	 -7.7163428506331684e+01,	 5.8964208252549588e+02,	 7.8081608589221069e+03,	 4.6597668694020103e+02,	 3.3870777333762323e+00 
1.3058330000000000e+00,	 2.8262270000000000e-01,	 4.5801477606312313e-02,	 1.5773438795842110e+03,	 -7.9987561961258450e+01,	 5.8856643882782896e+02,	 7.7554128284069393e+03,	 4.6555146823742456e+02,	 3.3924727582723362e+00 
1.3084530000000001e+00,	 2.8259610000000002e-01,	 4.5568079605602316e-02,	 1.5783028541900931e+03,	 -8.2702613767908858e+01,	 5.8745667936830023e+02,	 7.7013437727481569e+03,	 4.6511235560600727e+02,	 3.3980352195738317e+00 
1.3110949999999999e+00,	 2.8256929999999997e-01,	 4.5327603563331861e-02,	 1.5792946183737590e+03,	 -8.5287089401262250e+01,	 5.8630721804713608e+02,	 7.6457120392354918e+03,	 4.6465709612794882e+02,	 3.4037914114906211e+00 
1.3137589999999999e+00,	 2.8254229999999997e-01,	 4.5079303180939098e-02,	 1.5803239366154567e+03,	 -8.7717406231961917e+01,	 5.8511423080585655e+02,	 7.5883576677897909e+03,	 4.6418412544139119e+02,	 3.4097600442628142e+00 
1.3164450000000001e+00,	 2.8251500000000002e-01,	 4.4822922850269217e-02,	 1.5813944290411841e+03,	 -8.9967506644358053e+01,	 5.8387635640170174e+02,	 7.5292375523661785e+03,	 4.6369284882581951e+02,	 3.4159499065061993e+00 
1.3191530000000000e+00,	 2.8248760000000001e-01,	 4.4558864896330971e-02,	 1.5825079459266613e+03,	 -9.2008436380262822e+01,	 5.8259582016428726e+02,	 7.4684662181290269e+03,	 4.6318409264088444e+02,	 3.4223550445505904e+00 
1.3218829999999999e+00,	 2.8245989999999999e-01,	 4.4288267532537479e-02,	 1.5836638654057510e+03,	 -9.3808372100892427e+01,	 5.8127920555280934e+02,	 7.4063360974795087e+03,	 4.6266041923294358e+02,	 3.4289507752982886e+00 
1.3246359999999999e+00,	 2.8243200000000002e-01,	 4.4013479152913260e-02,	 1.5848584316835831e+03,	 -9.5327827013359880e+01,	 5.7993961608724760e+02,	 7.3434207778174205e+03,	 4.6212699871303761e+02,	 3.4356849735238444e+00 
1.3274120000000000e+00,	 2.8240379999999998e-01,	 4.3737924916763884e-02,	 1.5860850723725544e+03,	 -9.6522173145927425e+01,	 5.7859609981464962e+02,	 7.2805403646431087e+03,	 4.6159139541051849e+02,	 3.4424803664621071e+00 
1.3302099999999999e+00,	 2.8237540000000000e-01,	 4.3466989616277665e-02,	 1.5873310276177995e+03,	 -9.7329613917414889e+01,	 5.7727953445353182e+02,	 7.2189770668443471e+03,	 4.6106593270659181e+02,	 3.4492077421995400e+00 
1.3330320000000000e+00,	 2.8234680000000001e-01,	 4.3208838034628841e-02,	 1.5885802134844639e+03,	 -9.7661329001946569e+01,	 5.7603739274731856e+02,	 7.1606624366869219e+03,	 4.6056962407364426e+02,	 3.4556759013142040e+00 
1.3358770000000000e+00,	 2.8231790000000001e-01,	 4.2971907770499154e-02,	 1.5898063974965364e+03,	 -9.7430328644676422e+01,	 5.7492070989961212e+02,	 7.1075925844704652e+03,	 4.6012298666520707e+02,	 3.4616594372550642e+00 
1.3387460000000000e+00,	 2.8228880000000001e-01,	 4.2768288082188452e-02,	 1.5909793908130318e+03,	 -9.6513339621097273e+01,	 5.7398498011226866e+02,	 7.0624003384113385e+03,	 4.5974839056109704e+02,	 3.4669052079005569e+00 
1.3416390000000000e+00,	 2.8225950000000000e-01,	 4.2611849294152009e-02,	 1.5920665060242632e+03,	 -9.4766272224173605e+01,	 5.7332159434912285e+02,	 7.0284347897423195e+03,	 4.5948263560059195e+02,	 3.4710440080229441e+00 
1.3445549999999999e+00,	 2.8222989999999998e-01,	 4.2517731743707050e-02,	 1.5930258169840924e+03,	 -9.2035994779292025e+01,	 5.7301466500744095e+02,	 7.0091565788731923e+03,	 4.5935962646895234e+02,	 3.4737102892924470e+00 
1.3474960000000000e+00,	 2.8220010000000001e-01,	 4.2499770684053376e-02,	 1.5938193671725360e+03,	 -8.8193936814782717e+01,	 5.7313412903927735e+02,	 7.0076563276767401e+03,	 4.5940750839628936e+02,	 3.4746006043099857e+00 
1.3504609999999999e+00,	 2.8216999999999998e-01,	 4.2566848996567180e-02,	 1.5944178436433699e+03,	 -8.3173752920439981e+01,	 5.7371977242863886e+02,	 7.0258885716877321e+03,	 4.5964216574913854e+02,	 3.4735407080447369e+00 
1.3534500000000000e+00,	 2.8213969999999999e-01,	 4.2719075022251349e-02,	 1.5948124570051571e+03,	 -7.7013239064085639e+01,	 5.7476036042899602e+02,	 7.0638031236981988e+03,	 4.6005881640550700e+02,	 3.4705798385114996e+00 
1.3564650000000000e+00,	 2.8210910000000000e-01,	 4.2944943991126208e-02,	 1.5950561434898323e+03,	 -6.9892147604173999e+01,	 5.7617962884334975e+02,	 7.1186866667817130e+03,	 4.6062648286672504e+02,	 3.4661200237842520e+00 
1.3595040000000000e+00,	 2.8207830000000000e-01,	 4.3221004373448245e-02,	 1.5951791198116384e+03,	 -6.2115009749168841e+01,	 5.7783979003936497e+02,	 7.1850903955034346e+03,	 4.6128961300785784e+02,	 3.4607066175462289e+00 
1.3625689999999999e+00,	 2.8204720000000000e-01,	 4.3515704049937778e-02,	 1.5951996219028717e+03,	 -5.4060997830277934e+01,	 5.7956886518048668e+02,	 7.2557280848854562e+03,	 4.6197925799060715e+02,	 3.4549503893299174e+00 
1.3656590000000000e+00,	 2.8201579999999998e-01,	 4.3795218768782826e-02,	 1.5952039260006613e+03,	 -4.6106146882440271e+01,	 5.8119364744291397e+02,	 7.3228054535454794e+03,	 4.6262636863615569e+02,	 3.4495873940899635e+00 
1.3687739999999999e+00,	 2.8198419999999996e-01,	 4.4032060157120509e-02,	 1.5952298995618530e+03,	 -3.8551408981919259e+01,	 5.8258161217936811e+02,	 7.3799890263364869e+03,	 4.6317844468350256e+02,	 3.4450991397524455e+00 
1.3719159999999999e+00,	 2.8195239999999999e-01,	 4.4206063637320492e-02,	 1.5954737974720172e+03,	 -3.1579640701613897e+01,	 5.8364106210328964e+02,	 7.4226267279423164e+03,	 4.6359940842833555e+02,	 3.4421663833130314e+00 
1.3750830000000001e+00,	 2.8192020000000001e-01,	 4.4305759709808601e-02,	 1.5957908854544437e+03,	 -2.6420113061310452e+01,	 5.8429707498851917e+02,	 7.4477285175703046e+03,	 4.6385987825599858e+02,	 3.4407148637525946e+00 
1.1565000000000001e+00,	 2.8488340000000001e-01,	 5.1412529258609396e-02,	 1.5512248627602921e+03,	 1.9489980027822774e+01,	 6.1035623580567142e+02,	 9.0278075639112303e+03,	 4.7409092976754118e+02,	 3.2722568584031051e+00 
1.1579079999999999e+00,	 2.8486970000000000e-01,	 5.1199649950930098e-02,	 1.5517968246218479e+03,	 2.2180540324430382e+01,	 6.0935629492975158e+02,	 8.9756979886827503e+03,	 4.7370242122600166e+02,	 3.2762241974679176e+00 
1.1593279999999999e+00,	 2.8485590000000000e-01,	 5.0952763223637197e-02,	 1.5525332034653268e+03,	 2.5250507998863029e+01,	 6.0819733812168909e+02,	 8.9154279326165415e+03,	 4.7325173093180405e+02,	 3.2809991520580368e+00 
1.1607580000000000e+00,	 2.8484199999999998e-01,	 5.0707205610917544e-02,	 1.5532608478977495e+03,	 2.8320739305209301e+01,	 6.0704262928298101e+02,	 8.8556166003576182e+03,	 4.7280226531709422e+02,	 3.2857689728813737e+00 
1.1621999999999999e+00,	 2.8482799999999997e-01,	 5.0463063014025096e-02,	 1.5539794604088790e+03,	 3.1390356757225089e+01,	 6.0589273778619736e+02,	 8.7962850066437823e+03,	 4.7235424981948876e+02,	 3.2905313564660608e+00 
1.1636530000000000e+00,	 2.8481390000000001e-01,	 5.0220425549806103e-02,	 1.5546889196119528e+03,	 3.4458421540711527e+01,	 6.0474801823801386e+02,	 8.7374515341502938e+03,	 4.7190782692562811e+02,	 3.2952849169023293e+00 
1.1651180000000001e+00,	 2.8479959999999999e-01,	 4.9979531595394082e-02,	 1.5553886124427693e+03,	 3.7522567139797950e+01,	 6.0360982283602152e+02,	 8.6791744508850643e+03,	 4.7146352924259452e+02,	 3.3000243959595821e+00 
1.1665939999999999e+00,	 2.8478529999999996e-01,	 4.9740350253604085e-02,	 1.5560788415961322e+03,	 4.0582672160996864e+01,	 6.0247793253669624e+02,	 8.6214421977787497e+03,	 4.7102127715945693e+02,	 3.3047508189979973e+00 
1.1680820000000001e+00,	 2.8477079999999999e-01,	 4.9503013579897011e-02,	 1.5567592427685943e+03,	 4.3637455384526433e+01,	 6.0135314031449559e+02,	 8.5642859397479115e+03,	 4.7058138670980890e+02,	 3.3094609488050364e+00 
1.1695810000000000e+00,	 2.8475620000000001e-01,	 4.9267566398399021e-02,	 1.5574296578739913e+03,	 4.6685774962591140e+01,	 6.0023579280579872e+02,	 8.5077150856487260e+03,	 4.7014400027682439e+02,	 3.3141531747356292e+00 
1.1710929999999999e+00,	 2.8474149999999998e-01,	 4.9034155526852821e-02,	 1.5580898127817063e+03,	 4.9726008416790918e+01,	 5.9912672961766305e+02,	 8.4517634508413339e+03,	 4.6970945397756338e+02,	 3.3188242084126087e+00 
1.1726160000000001e+00,	 2.8472670000000000e-01,	 4.8802847241198648e-02,	 1.5587396739756239e+03,	 5.2757243974120911e+01,	 5.9802631500230518e+02,	 8.3964439340998197e+03,	 4.6927789861823237e+02,	 3.3234725868133546e+00 
1.1741520000000001e+00,	 2.8471180000000001e-01,	 4.8573778779263777e-02,	 1.5593787243855099e+03,	 5.5778305057791613e+01,	 5.9693535244509280e+02,	 8.3417876085330354e+03,	 4.6884965799792417e+02,	 3.3280945434174245e+00 
1.1757000000000000e+00,	 2.8469679999999997e-01,	 4.8347308429450994e-02,	 1.5600063176914232e+03,	 5.8784787197993715e+01,	 5.9585575911397029e+02,	 8.2878785816691216e+03,	 4.6842549478870734e+02,	 3.3326826105491136e+00 
1.1772600000000000e+00,	 2.8468159999999998e-01,	 4.8123590025548869e-02,	 1.5606219047359887e+03,	 6.1775572941172626e+01,	 5.9478843450950114e+02,	 8.2347509873332565e+03,	 4.6800577396040586e+02,	 3.3372325162087924e+00 
1.1788330000000000e+00,	 2.8466629999999998e-01,	 4.7903159397877329e-02,	 1.5612240413404145e+03,	 6.4744562288876949e+01,	 5.9373625897649970e+02,	 8.1825311436774873e+03,	 4.6759164167197355e+02,	 3.3417320078997887e+00 
1.1804180000000000e+00,	 2.8465089999999998e-01,	 4.7686651087272228e-02,	 1.5618111133167286e+03,	 6.7685015243495343e+01,	 5.9270258896000519e+02,	 8.1313674296156605e+03,	 4.6718443560810408e+02,	 3.3461668591851410e+00 
1.1820160000000000e+00,	 2.8463539999999998e-01,	 4.7474954482149112e-02,	 1.5623804521581014e+03,	 7.0587627328771887e+01,	 5.9169217940780629e+02,	 8.0814692278279199e+03,	 4.6678604948866229e+02,	 3.3505161501811345e+00 
1.1836260000000001e+00,	 2.8461969999999998e-01,	 4.7269545950421980e-02,	 1.5629279641774674e+03,	 7.3436869145078504e+01,	 5.9071266112559294e+02,	 8.0331827614742051e+03,	 4.6639951839122187e+02,	 3.3547468003998135e+00 
1.1852499999999999e+00,	 2.8460389999999997e-01,	 4.7072431752327538e-02,	 1.5634478722883571e+03,	 7.6211529708256407e+01,	 5.8977459098006614e+02,	 7.9869806083413441e+03,	 4.6602904275390807e+02,	 3.3588126980634314e+00 
1.1868860000000001e+00,	 2.8458800000000001e-01,	 4.6886590699008107e-02,	 1.5639315908321678e+03,	 7.8879814781315687e+01,	 5.8889352305036778e+02,	 7.9435634693435641e+03,	 4.6568081080606026e+02,	 3.3626456502140591e+00 
1.1885360000000000e+00,	 2.8457199999999999e-01,	 4.6716387439287209e-02,	 1.5643666987154256e+03,	 8.1394972555680610e+01,	 5.8809227790642001e+02,	 7.9039587650172616e+03,	 4.6536390165537995e+02,	 3.3661458860099773e+00 
1.1901980000000001e+00,	 2.8455579999999997e-01,	 4.6567875398335616e-02,	 1.5647361101363094e+03,	 8.3691895756384838e+01,	 5.8740265562168508e+02,	 7.8695929138802057e+03,	 4.6509096876112034e+02,	 3.3691746357976675e+00 
1.1918750000000000e+00,	 2.8453950000000000e-01,	 4.6449239852911335e-02,	 1.5650164454210606e+03,	 8.5682549396086088e+01,	 5.8686768201843608e+02,	 7.8423955421083929e+03,	 4.6487913105004247e+02,	 3.3715434572752381e+00 
1.1935640000000001e+00,	 2.8452309999999997e-01,	 4.6371938313770338e-02,	 1.5651755449108443e+03,	 8.7243237671528107e+01,	 5.8654778989293766e+02,	 7.8250764574386712e+03,	 4.6475241471480189e+02,	 3.3729897649545233e+00 
1.1952670000000001e+00,	 2.8450650000000000e-01,	 4.6350636313058732e-02,	 1.5651728515572368e+03,	 8.8216717822497287e+01,	 5.8652039394934309e+02,	 7.8211165125434818e+03,	 4.6474156097037189e+02,	 3.3731799775636389e+00 
1.1969840000000000e+00,	 2.8448989999999996e-01,	 4.6403429487454871e-02,	 1.5649595941250391e+03,	 8.8408788989516140e+01,	 5.8688093046506742e+02,	 7.8348378790785482e+03,	 4.6488437830746324e+02,	 3.3717089743160886e+00 
1.1987150000000000e+00,	 2.8447299999999998e-01,	 4.6550156495407544e-02,	 1.5644838529290992e+03,	 8.7607558936344731e+01,	 5.8773308305226601e+02,	 7.8710237047634100e+03,	 4.6522176252451078e+02,	 3.3681460581938376e+00 
1.2004589999999999e+00,	 2.8445609999999999e-01,	 4.6809654820850220e-02,	 1.5636938961376409e+03,	 8.5623260432635632e+01,	 5.8917483343502204e+02,	 7.9343172908172710e+03,	 4.6579202378605709e+02,	 3.3620935955292435e+00 
1.2022180000000000e+00,	 2.8443900000000000e-01,	 4.7197398291350875e-02,	 1.5625723323116915e+03,	 8.2364944315048675e+01,	 5.9126878533493095e+02,	 8.0284729554546821e+03,	 4.6661901177779652e+02,	 3.3533601534858724e+00 
1.2039910000000000e+00,	 2.8442170000000000e-01,	 4.7701847018797448e-02,	 1.5611516573761378e+03,	 7.7728209290451304e+01,	 5.9393698064063324e+02,	 8.1508987726018104e+03,	 4.6767067326220115e+02,	 3.3422781343158015e+00 