TITLE = "Final State"
VARIABLES = "X", "Y", "rho", "u", "v", "T", "p", "c", "M"
ZONE I=72, J=20, DATAPACKING=POINT
5.2779299999999996e-01,	 3.0328817499999999e-01,	 1.1586407740522199e-02,	 1.7360000000000000e+03,	 5.0503436264047812e-14,	 2.9999999999999989e+02,	 9.9999999999999966e+02,	 3.4760788074254759e+02,	 4.9941330337264462e+00 
5.3229100000000007e-01,	 3.0328049999999995e-01,	 1.1586407740522199e-02,	 1.7360000000000000e+03,	 5.6554612541913854e-14,	 3.0000000000000006e+02,	 1.0000000000000002e+03,	 3.4760788074254771e+02,	 4.9941330337264445e+00 
5.3678899999999996e-01,	 3.0327282499999997e-01,	 1.1586407740522199e-02,	 1.7360000000000000e+03,	 3.5464490322671349e-14,	 2.9999999999999994e+02,	 9.9999999999999989e+02,	 3.4760788074254765e+02,	 4.9941330337264453e+00 
5.4128700000000007e-01,	 3.0326517500000000e-01,	 1.1586407740522199e-02,	 1.7360000000000000e+03,	 -3.0707273190712060e-14,	 3.0000000000000000e+02,	 1.0000000000000000e+03,	 3.4760788074254771e+02,	 4.9941330337264445e+00 
5.4578499999999996e-01,	 3.0325749999999996e-01,	 1.1586407740522199e-02,	 1.7360000000000000e+03,	 -5.5121828036915928e-14,	 3.0000000000000000e+02,	 1.0000000000000000e+03,	 3.4760788074254771e+02,	 4.9941330337264445e+00 
5.5028300000000008e-01,	 3.0324982499999997e-01,	 1.1586407740522199e-02,	 1.7360000000000000e+03,	 -3.3619950871228140e-14,	 3.0000000000000040e+02,	 1.0000000000000014e+03,	 3.4760788074254793e+02,	 4.9941330337264418e+00 
5.5478099999999997e-01,	 3.0324217500000000e-01,	 1.1586407740522199e-02,	 1.7360000000000000e+03,	 -3.8909955407650408e-14,	 2.9999999999999983e+02,	 9.9999999999999943e+02,	 3.4760788074254759e+02,	 4.9941330337264462e+00 
5.5927900000000008e-01,	 3.0323449999999996e-01,	 1.1586407740522199e-02,	 1.7360000000000000e+03,	 -3.9160954020975375e-14,	 3.0000000000000000e+02,	 1.0000000000000000e+03,	 3.4760788074254771e+02,	 4.9941330337264445e+00 
5.6377699999999997e-01,	 3.0322682499999998e-01,	 1.1586407740522199e-02,	 1.7360000000000000e+03,	 -3.2560381796957543e-14,	 3.0000000000000000e+02,	 1.0000000000000000e+03,	 3.4760788074254771e+02,	 4.9941330337264445e+00 
5.6827500000000009e-01,	 3.0321917500000001e-01,	 1.1586407740522199e-02,	 1.7360000000000000e+03,	 -2.5872984394621622e-14,	 3.0000000000000000e+02,	 1.0000000000000000e+03,	 3.4760788074254771e+02,	 4.9941330337264445e+00 
5.7277299999999998e-01,	 3.0321149999999997e-01,	 1.1586407740522199e-02,	 1.7360000000000000e+03,	 -4.9481982401393593e-14,	 3.0000000000000006e+02,	 1.0000000000000002e+03,	 3.4760788074254771e+02,	 4.9941330337264445e+00 
5.7727100000000009e-01,	 3.0320382499999998e-01,	 1.1586407740522199e-02,	 1.7360000000000000e+03,	 -3.9323335868136796e-14,	 3.0000000000000034e+02,	 1.0000000000000011e+03,	 3.4760788074254788e+02,	 4.9941330337264427e+00 
5.8176899999999998e-01,	 3.0319617499999996e-01,	 1.1586407740522199e-02,	 1.7360000000000000e+03,	 -3.1667618541647958e-14,	 2.9999999999999994e+02,	 9.9999999999999989e+02,	 3.4760788074254765e+02,	 4.9941330337264453e+00 
5.8626700000000009e-01,	 3.0318849999999997e-01,	 1.1586407740522199e-02,	 1.7360000000000000e+03,	 5.8446755590780800e-14,	 2.9999999999999983e+02,	 9.9999999999999943e+02,	 3.4760788074254759e+02,	 4.9941330337264462e+00 
5.9076499999999998e-01,	 3.0318082499999999e-01,	 1.1586407740522199e-02,	 1.7360000000000000e+03,	 3.3967564769473102e-13,	 3.0000000000000006e+02,	 1.0000000000000002e+03,	 3.4760788074254771e+02,	 4.9941330337264445e+00 
5.9526300000000010e-01,	 3.0317317499999996e-01,	 1.1586407740522213e-02,	 1.7360000000000000e+03,	 1.1390271135596656e-12,	 3.0000000000000006e+02,	 1.0000000000000015e+03,	 3.4760788074254771e+02,	 4.9941330337264445e+00 
5.9976099999999999e-01,	 3.0316549999999998e-01,	 1.1586407740522265e-02,	 1.7360000000000000e+03,	 3.0356026533140220e-12,	 3.0000000000000074e+02,	 1.0000000000000082e+03,	 3.4760788074254810e+02,	 4.9941330337264391e+00 
6.0425900000000010e-01,	 3.0315782499999999e-01,	 1.1586407740522379e-02,	 1.7360000000000000e+03,	 7.1067105869721199e-12,	 3.0000000000000267e+02,	 1.0000000000000246e+03,	 3.4760788074254924e+02,	 4.9941330337264231e+00 
6.0875699999999999e-01,	 3.0315017499999997e-01,	 1.1586407740522643e-02,	 1.7360000000000000e+03,	 1.5982036232753420e-11,	 3.0000000000000477e+02,	 1.0000000000000543e+03,	 3.4760788074255044e+02,	 4.9941330337264054e+00 
6.1325500000000011e-01,	 3.0314249999999998e-01,	 1.1586407740523224e-02,	 1.7359999999999980e+03,	 3.4797567236802374e-11,	 3.0000000000001097e+02,	 1.0000000000001251e+03,	 3.4760788074255402e+02,	 4.9941330337263485e+00 
6.1775300000000000e-01,	 3.0313482500000000e-01,	 1.1586407740524452e-02,	 1.7359999999999920e+03,	 7.4122816880583078e-11,	 3.0000000000002370e+02,	 1.0000000000002735e+03,	 3.4760788074256141e+02,	 4.9941330337262251e+00 
6.2225100000000011e-01,	 3.0312717499999997e-01,	 1.1586407740527020e-02,	 1.7359999999999782e+03,	 1.5553833099162013e-10,	 3.0000000000005065e+02,	 1.0000000000005849e+03,	 3.4760788074257704e+02,	 4.9941330337259604e+00 
6.2674900000000000e-01,	 3.0311949999999999e-01,	 1.1586407740532339e-02,	 1.7359999999999479e+03,	 3.2309414994366760e-10,	 3.0000000000010579e+02,	 1.0000000000012278e+03,	 3.4760788074260898e+02,	 4.9941330337254142e+00 
6.3124699999999989e-01,	 3.0311182500000000e-01,	 1.1586407740543279e-02,	 1.7359999999998840e+03,	 6.6722464527592534e-10,	 3.0000000000021896e+02,	 1.0000000000025494e+03,	 3.4760788074267452e+02,	 4.9941330337242889e+00 
6.3574500000000000e-01,	 3.0310417499999998e-01,	 1.1586407740565711e-02,	 1.7359999999997508e+03,	 1.3716546432758839e-09,	 3.0000000000045168e+02,	 1.0000000000052612e+03,	 3.4760788074280936e+02,	 4.9941330337219689e+00 
6.4024299999999990e-01,	 3.0309649999999999e-01,	 1.1586407740611553e-02,	 1.7359999999994766e+03,	 2.8098048592340652e-09,	 3.0000000000092689e+02,	 1.0000000000108016e+03,	 3.4760788074308465e+02,	 4.9941330337172243e+00 
6.4474100000000001e-01,	 3.0308882500000001e-01,	 1.1586407740704987e-02,	 1.7359999999989163e+03,	 5.7394252769743987e-09,	 3.0000000000189550e+02,	 1.0000000000220945e+03,	 3.4760788074364586e+02,	 4.9941330337075502e+00 
6.4923899999999990e-01,	 3.0308117499999998e-01,	 1.1586407740894955e-02,	 1.7359999999977756e+03,	 1.1693006056950394e-08,	 3.0000000000386405e+02,	 1.0000000000450520e+03,	 3.4760788074478631e+02,	 4.9941330336878833e+00 
6.5373700000000001e-01,	 3.0307350000000000e-01,	 1.1586407741280334e-02,	 1.7359999999954605e+03,	 2.3764997649132981e-08,	 3.0000000000785866e+02,	 1.0000000000916287e+03,	 3.4760788074710058e+02,	 4.9941330336479739e+00 
6.5823499999999990e-01,	 3.0306582500000001e-01,	 1.1586407742060439e-02,	 1.7359999999907718e+03,	 4.8192642929945408e-08,	 3.0000000001594486e+02,	 1.0000000001859121e+03,	 3.4760788075178527e+02,	 4.9941330335671799e+00 
6.6273300000000002e-01,	 3.0305817499999999e-01,	 1.1586407743636297e-02,	 1.7359999999812994e+03,	 9.7517426300099653e-08,	 3.0000000003227825e+02,	 1.0000000003763658e+03,	 3.4760788076124794e+02,	 4.9941330334039780e+00 
6.6723099999999991e-01,	 3.0305050000000000e-01,	 1.1586407746813148e-02,	 1.7359999999622014e+03,	 1.9691133271112545e-07,	 3.0000000006520639e+02,	 1.0000000007603142e+03,	 3.4760788078032476e+02,	 4.9941330330749567e+00 
6.7172900000000002e-01,	 3.0304282500000002e-01,	 1.1586407753205184e-02,	 1.7359999999237746e+03,	 3.9682338109574449e-07,	 3.0000000013145939e+02,	 1.0000000015328415e+03,	 3.4760788081870822e+02,	 4.9941330324129503e+00 
6.7622699999999991e-01,	 3.0303517499999999e-01,	 1.1586407766040311e-02,	 1.7359999998466121e+03,	 7.9807967658311675e-07,	 3.0000000026449482e+02,	 1.0000000030840674e+03,	 3.4760788089578182e+02,	 4.9941330310836411e+00 
6.8072500000000002e-01,	 3.0302750000000001e-01,	 1.1586407791763008e-02,	 1.7359999996919694e+03,	 1.6018959717801694e-06,	 3.0000000053111023e+02,	 1.0000000061928606e+03,	 3.4760788105024454e+02,	 4.9941330284195757e+00 
6.8522299999999992e-01,	 3.0301982500000002e-01,	 1.1586407843219172e-02,	 1.7359999993826182e+03,	 3.2092579342522833e-06,	 3.0000000106445202e+02,	 1.0000000124117466e+03,	 3.4760788135923423e+02,	 4.9941330230903329e+00 
6.8972100000000003e-01,	 3.0301217499999999e-01,	 1.1586407945959670e-02,	 1.7359999987649464e+03,	 6.4173020637491735e-06,	 3.0000000212935578e+02,	 1.0000000248287557e+03,	 3.4760788197618240e+02,	 4.9941330124496277e+00 
6.9421899999999992e-01,	 3.0300450000000001e-01,	 1.1586408150706856e-02,	 1.7359999975340054e+03,	 1.2807792886962898e-05,	 3.0000000425157208e+02,	 1.0000000495741363e+03,	 3.4760788320568093e+02,	 4.9941329912440660e+00 
6.9871699999999992e-01,	 3.0299682500000003e-01,	 1.1586408558001530e-02,	 1.7359999950853564e+03,	 2.5515220444278533e-05,	 3.0000000847318603e+02,	 1.0000000987989843e+03,	 3.4760788565145805e+02,	 4.9941329490609467e+00 
7.0321499999999992e-01,	 3.0298917500000000e-01,	 1.1586409366758038e-02,	 1.7359999902231161e+03,	 5.0737894548878825e-05,	 3.0000001685596914e+02,	 1.0000001965437796e+03,	 3.4760789050799372e+02,	 4.9941328652986812e+00 
7.0771300000000004e-01,	 3.0298150000000001e-01,	 1.1586410969757301e-02,	 1.7359999805858181e+03,	 1.0070938474709715e-04,	 3.0000003347122390e+02,	 1.0000003902796901e+03,	 3.4760790013398247e+02,	 4.9941326992760944e+00 
7.1221099999999993e-01,	 3.0297382500000003e-01,	 1.1586414141263417e-02,	 1.7359999615186578e+03,	 1.9953850857254061e-04,	 3.0000006634409198e+02,	 1.0000007735824457e+03,	 3.4760791917876094e+02,	 4.9941323708045715e+00 
7.1670900000000004e-01,	 3.0296617500000000e-01,	 1.1586420404323512e-02,	 1.7359999238648916e+03,	 3.9462518398739656e-04,	 3.0000013126129215e+02,	 1.0000015305258331e+03,	 3.4760795678830533e+02,	 4.9941317221405477e+00 
7.2120699999999993e-01,	 3.0295850000000002e-01,	 1.1586432750612660e-02,	 1.7359998496377193e+03,	 7.7903122798536444e-04,	 3.0000025923297341e+02,	 1.0000030226833566e+03,	 3.4760803092822277e+02,	 4.9941304434256839e+00 
7.2570500000000004e-01,	 3.0295082500000003e-01,	 1.1586457045425798e-02,	 1.7359997035744261e+03,	 1.5351683902544353e-03,	 3.0000051105358727e+02,	 1.0000059589281914e+03,	 3.4760817681951227e+02,	 4.9941279271933920e+00 
7.3020299999999994e-01,	 3.0294317500000001e-01,	 1.1586504759548255e-02,	 1.7359994167071909e+03,	 3.0195723482827051e-03,	 3.0000100562570748e+02,	 1.0000117256345469e+03,	 3.4760846334776107e+02,	 4.9941229853573947e+00 
7.3470099999999994e-01,	 3.0293549999999997e-01,	 1.1586598292377558e-02,	 1.7359988543495263e+03,	 5.9281529589026308e-03,	 3.0000197514923815e+02,	 1.0000230300938798e+03,	 3.4760902503639892e+02,	 4.9941132977714489e+00 
7.3919899999999994e-01,	 3.0292782499999998e-01,	 1.1586781317230120e-02,	 1.7359977538779344e+03,	 1.1617527896415021e-02,	 3.0000387237408995e+02,	 1.0000451509986673e+03,	 3.4761012418155957e+02,	 4.9940943406184619e+00 
7.4369700000000005e-01,	 3.0292017500000001e-01,	 1.1587138754758582e-02,	 1.7359956045012184e+03,	 2.2724147886457144e-02,	 3.0000757782659332e+02,	 1.0000883534126046e+03,	 3.4761227090189584e+02,	 4.9940573160602995e+00 
7.4819499999999994e-01,	 3.0291249999999997e-01,	 1.1587835377968658e-02,	 1.7359914146701124e+03,	 4.4362060198913068e-02,	 3.0001480058840366e+02,	 1.0001725579458532e+03,	 3.4761645530540642e+02,	 4.9939851486942350e+00 
7.5269300000000006e-01,	 3.0290482499999999e-01,	 1.1589190339736695e-02,	 1.7359832623027587e+03,	 8.6436843794828647e-02,	 3.0002885290300594e+02,	 1.0003363600911580e+03,	 3.4762459616809548e+02,	 4.9938447497403686e+00 
7.5719099999999995e-01,	 3.0289717500000002e-01,	 1.1591819750941800e-02,	 1.7359674307572564e+03,	 1.6806920952624876e-01,	 3.0005613669320184e+02,	 1.0006543096606022e+03,	 3.4764040181619055e+02,	 4.9935721792514958e+00 
7.6168900000000006e-01,	 3.0288949999999998e-01,	 1.1596909319058201e-02,	 1.7359367450038596e+03,	 3.2607743946627626e-01,	 3.0010900046446790e+02,	 1.0012700347285756e+03,	 3.4767102404161722e+02,	 4.9930441583799334e+00 
7.6618699999999995e-01,	 3.0288182499999999e-01,	 1.1606730562480861e-02,	 1.7358773791773758e+03,	 6.3110293622812474e-01,	 3.0021120010385971e+02,	 1.0024592578589509e+03,	 3.4773021724929220e+02,	 4.9920237235411973e+00 
7.7068499999999995e-01,	 3.0287417500000002e-01,	 1.1625600469378810e-02,	 1.7357627650958461e+03,	 1.2177644283460693e+00,	 3.0040824228832111e+02,	 1.0047480578868258e+03,	 3.4784431406261484e+02,	 4.9900576841359898e+00 
7.7518299999999996e-01,	 3.0286649999999998e-01,	 1.1661640112052247e-02,	 1.7355418987651622e+03,	 2.3406034269637397e+00,	 3.0078696828209337e+02,	 1.0091334182418351e+03,	 3.4806350942839572e+02,	 4.9862839109975248e+00 
7.7968100000000007e-01,	 3.0285882500000000e-01,	 1.1729905508885171e-02,	 1.7351166645144115e+03,	 4.4753602252331612e+00,	 3.0151258815527967e+02,	 1.0174894146099510e+03,	 3.4848309154020245e+02,	 4.9790720934280488e+00 
7.8417899999999996e-01,	 3.0285117500000003e-01,	 1.1856674795473978e-02,	 1.7343040570797014e+03,	 8.4609685352786919e+00,	 3.0288692709029397e+02,	 1.0331737770485759e+03,	 3.4927640727085674e+02,	 4.9654790866961083e+00 
7.8867700000000007e-01,	 3.0284349999999999e-01,	 1.2083035907338582e-02,	 1.7327848832639797e+03,	 1.5616662449187002e+01,	 3.0541681189325476e+02,	 1.0616929731966393e+03,	 3.5073205213029649e+02,	 4.9406811941446804e+00 
7.9317499999999996e-01,	 3.0283582500000000e-01,	 1.2463723929056121e-02,	 1.7300625280802567e+03,	 2.7650801270697080e+01,	 3.0983938375183044e+02,	 1.1110008174853692e+03,	 3.5326230364801370e+02,	 4.8980133492405553e+00 
7.9767300000000008e-01,	 3.0282817500000003e-01,	 1.3055740012606804e-02,	 1.7255111595046840e+03,	 4.6081506522287285e+01,	 3.1697428588869542e+02,	 1.1905714465669796e+03,	 3.5730657059542347e+02,	 4.8309393621925008e+00 
8.0217099999999997e-01,	 3.0282049999999999e-01,	 1.3896307735557448e-02,	 1.7186040470339253e+03,	 7.1247129558643437e+01,	 3.2732073755879753e+02,	 1.3085878439666940e+03,	 3.6309121989388518e+02,	 4.7373225883898211e+00 
8.0666899999999997e-01,	 3.0281282500000001e-01,	 1.4979620958693089e-02,	 1.7092567054262261e+03,	 1.0167674940935773e+02,	 3.4061831415215806e+02,	 1.4679077277027864e+03,	 3.7039318226903680e+02,	 4.6228664174616076e+00 
8.1116699999999997e-01,	 3.0280517499999998e-01,	 1.6248840866069984e-02,	 1.6980092041017804e+03,	 1.3454350749280133e+02,	 3.5579291673367334e+02,	 1.6632197009780552e+03,	 3.7855382210435306e+02,	 4.4995747263081318e+00 
8.1566500000000008e-01,	 3.0279749999999994e-01,	 1.7611716161261046e-02,	 1.6858555884722680e+03,	 1.6685241883114847e+02,	 3.7137915987416119e+02,	 1.8816946254003569e+03,	 3.8675661569491604e+02,	 4.3802542815644543e+00 
8.2016299999999998e-01,	 3.0278982499999996e-01,	 1.8968924374627112e-02,	 1.6738594438594748e+03,	 1.9638472612559704e+02,	 3.8606562508212812e+02,	 2.1068507771722220e+03,	 3.9432975929263586e+02,	 4.2739367248115467e+00 
8.2466100000000009e-01,	 3.0278217499999999e-01,	 2.0238314195745032e-02,	 1.6628351452438535e+03,	 2.2197969975642528e+02,	 3.9901427546081288e+02,	 2.3232326637129986e+03,	 4.0088813562135419e+02,	 4.1846742897323139e+00 
8.2915899999999998e-01,	 3.0277449999999995e-01,	 2.1367039324740777e-02,	 1.6532333146238877e+03,	 2.4335020970077269e+02,	 4.0988695562737081e+02,	 2.5196393612600368e+03,	 4.0631329700816815e+02,	 4.1127068774131796e+00 
8.3365700000000009e-01,	 3.0276682499999996e-01,	 2.2331522341501833e-02,	 1.6451899016921411e+03,	 2.6074926659152692e+02,	 4.1870573030963658e+02,	 2.6900303011153055e+03,	 4.1066097966915004e+02,	 4.0562048687670460e+00 
8.3815499999999998e-01,	 3.0275917499999999e-01,	 2.3130823003721449e-02,	 1.6386330679993732e+03,	 2.7469195119242983e+02,	 4.2569034449313352e+02,	 2.8327928820787088e+03,	 4.1407202131537770e+02,	 4.0125809802377566e+00 
8.4265299999999999e-01,	 3.0275149999999995e-01,	 2.3778565611316103e-02,	 1.6333822305686733e+03,	 2.8577367556018680e+02,	 4.3113755909924214e+02,	 2.9493848787113243e+03,	 4.1671287212930974e+02,	 3.9792219892522929e+00 
8.4715099999999999e-01,	 3.0274382499999997e-01,	 2.4295724262729732e-02,	 1.6292183357737777e+03,	 2.9456828105536249e+02,	 4.3534900990090409e+02,	 3.0429677427434904e+03,	 4.1874319957381698e+02,	 3.9538162632337284e+00 
5.2779299999999996e-01,	 3.0581247499999997e-01,	 1.1586407740522199e-02,	 1.7360000000000000e+03,	 3.6182211801449285e-14,	 2.9999999999999949e+02,	 9.9999999999999829e+02,	 3.4760788074254737e+02,	 4.9941330337264498e+00 
5.3229100000000007e-01,	 3.0578947499999998e-01,	 1.1586407740522199e-02,	 1.7360000000000000e+03,	 4.0543937822695365e-14,	 3.0000000000000000e+02,	 1.0000000000000000e+03,	 3.4760788074254771e+02,	 4.9941330337264445e+00 
5.3678899999999996e-01,	 3.0576647499999998e-01,	 1.1586407740522199e-02,	 1.7360000000000000e+03,	 1.9996570895197221e-14,	 3.0000000000000000e+02,	 1.0000000000000000e+03,	 3.4760788074254771e+02,	 4.9941330337264445e+00 
5.4128700000000007e-01,	 3.0574350000000000e-01,	 1.1586407740522199e-02,	 1.7360000000000000e+03,	 1.3681976077019651e-14,	 3.0000000000000034e+02,	 1.0000000000000011e+03,	 3.4760788074254788e+02,	 4.9941330337264427e+00 
5.4578499999999996e-01,	 3.0572049999999995e-01,	 1.1586407740522199e-02,	 1.7360000000000000e+03,	 2.1055485095758862e-14,	 3.0000000000000000e+02,	 1.0000000000000000e+03,	 3.4760788074254771e+02,	 4.9941330337264445e+00 
5.5028300000000008e-01,	 3.0569752499999997e-01,	 1.1586407740522199e-02,	 1.7360000000000000e+03,	 5.7856190004112752e-14,	 3.0000000000000000e+02,	 1.0000000000000000e+03,	 3.4760788074254771e+02,	 4.9941330337264445e+00 
5.5478099999999997e-01,	 3.0567454999999999e-01,	 1.1586407740522199e-02,	 1.7360000000000000e+03,	 -2.2140578114125439e-14,	 3.0000000000000000e+02,	 1.0000000000000000e+03,	 3.4760788074254771e+02,	 4.9941330337264445e+00 
5.5927900000000008e-01,	 3.0565154999999999e-01,	 1.1586407740522199e-02,	 1.7360000000000000e+03,	 -1.5679079605725727e-14,	 3.0000000000000000e+02,	 1.0000000000000000e+03,	 3.4760788074254771e+02,	 4.9941330337264445e+00 
5.6377699999999997e-01,	 3.0562855000000000e-01,	 1.1586407740522199e-02,	 1.7360000000000000e+03,	 5.8133140274176660e-15,	 3.0000000000000000e+02,	 1.0000000000000000e+03,	 3.4760788074254771e+02,	 4.9941330337264445e+00 
5.6827500000000009e-01,	 3.0560557500000002e-01,	 1.1586407740522199e-02,	 1.7360000000000000e+03,	 1.1701424619122948e-14,	 3.0000000000000000e+02,	 1.0000000000000000e+03,	 3.4760788074254771e+02,	 4.9941330337264445e+00 
5.7277299999999998e-01,	 3.0558260000000004e-01,	 1.1586407740522199e-02,	 1.7360000000000000e+03,	 1.9347415291723507e-14,	 3.0000000000000034e+02,	 1.0000000000000011e+03,	 3.4760788074254788e+02,	 4.9941330337264427e+00 
5.7727100000000009e-01,	 3.0555959999999999e-01,	 1.1586407740522199e-02,	 1.7360000000000000e+03,	 4.2332725471228507e-14,	 3.0000000000000000e+02,	 1.0000000000000000e+03,	 3.4760788074254771e+02,	 4.9941330337264445e+00 
5.8176899999999998e-01,	 3.0553662499999995e-01,	 1.1586407740522199e-02,	 1.7360000000000000e+03,	 4.7723510794093700e-14,	 3.0000000000000000e+02,	 1.0000000000000000e+03,	 3.4760788074254771e+02,	 4.9941330337264445e+00 
5.8626700000000009e-01,	 3.0551362499999996e-01,	 1.1586407740522199e-02,	 1.7360000000000000e+03,	 1.0293730356345580e-14,	 3.0000000000000000e+02,	 1.0000000000000000e+03,	 3.4760788074254771e+02,	 4.9941330337264445e+00 
5.9076499999999998e-01,	 3.0549062500000002e-01,	 1.1586407740522199e-02,	 1.7360000000000000e+03,	 6.4761716284650562e-14,	 3.0000000000000000e+02,	 1.0000000000000000e+03,	 3.4760788074254771e+02,	 4.9941330337264445e+00 
5.9526300000000010e-01,	 3.0546767499999994e-01,	 1.1586407740522199e-02,	 1.7360000000000000e+03,	 2.9206562110251098e-13,	 3.0000000000000006e+02,	 1.0000000000000002e+03,	 3.4760788074254771e+02,	 4.9941330337264445e+00 
5.9976099999999999e-01,	 3.0544467500000000e-01,	 1.1586407740522209e-02,	 1.7360000000000000e+03,	 9.5032899949447479e-13,	 2.9999999999999989e+02,	 1.0000000000000006e+03,	 3.4760788074254759e+02,	 4.9941330337264462e+00 
6.0425900000000010e-01,	 3.0542167500000000e-01,	 1.1586407740522255e-02,	 1.7360000000000000e+03,	 2.6508700481979321e-12,	 3.0000000000000063e+02,	 1.0000000000000069e+03,	 3.4760788074254805e+02,	 4.9941330337264400e+00 
6.0875699999999999e-01,	 3.0539869999999997e-01,	 1.1586407740522353e-02,	 1.7360000000000000e+03,	 6.3730008027391521e-12,	 3.0000000000000193e+02,	 1.0000000000000198e+03,	 3.4760788074254879e+02,	 4.9941330337264294e+00 
6.1325500000000011e-01,	 3.0537570000000003e-01,	 1.1586407740522586e-02,	 1.7360000000000000e+03,	 1.4397836776270903e-11,	 3.0000000000000449e+02,	 1.0000000000000484e+03,	 3.4760788074255026e+02,	 4.9941330337264080e+00 
6.1775300000000000e-01,	 3.0535272499999999e-01,	 1.1586407740523101e-02,	 1.7359999999999984e+03,	 3.1415767724515529e-11,	 3.0000000000000932e+02,	 1.0000000000001090e+03,	 3.4760788074255311e+02,	 4.9941330337263627e+00 
6.2225100000000011e-01,	 3.0532974999999996e-01,	 1.1586407740524213e-02,	 1.7359999999999932e+03,	 6.7181048900621809e-11,	 3.0000000000002109e+02,	 1.0000000000002442e+03,	 3.4760788074255987e+02,	 4.9941330337262499e+00 
6.2674900000000000e-01,	 3.0530674999999996e-01,	 1.1586407740526536e-02,	 1.7359999999999807e+03,	 1.4125672826215691e-10,	 3.0000000000004536e+02,	 1.0000000000005256e+03,	 3.4760788074257397e+02,	 4.9941330337260119e+00 
6.3124699999999989e-01,	 3.0528375000000002e-01,	 1.1586407740531357e-02,	 1.7359999999999534e+03,	 2.9432299210574692e-10,	 3.0000000000009533e+02,	 1.0000000000011082e+03,	 3.4760788074260290e+02,	 4.9941330337255181e+00 
6.3574500000000000e-01,	 3.0526077499999998e-01,	 1.1586407740541319e-02,	 1.7359999999998952e+03,	 6.0968429985869598e-10,	 3.0000000000019821e+02,	 1.0000000000023110e+03,	 3.4760788074266253e+02,	 4.9941330337244931e+00 
6.4024299999999990e-01,	 3.0523780000000000e-01,	 1.1586407740561798e-02,	 1.7359999999997735e+03,	 1.2571385165520784e-09,	 3.0000000000041075e+02,	 1.0000000000047869e+03,	 3.4760788074278565e+02,	 4.9941330337223748e+00 
6.4474100000000001e-01,	 3.0521480000000001e-01,	 1.1586407740603771e-02,	 1.7359999999995232e+03,	 2.5828075660514122e-09,	 3.0000000000084509e+02,	 1.0000000000098573e+03,	 3.4760788074303730e+02,	 4.9941330337180387e+00 
6.4923899999999990e-01,	 3.0519182499999997e-01,	 1.1586407740689574e-02,	 1.7359999999990091e+03,	 5.2912546564854791e-09,	 3.0000000000173407e+02,	 1.0000000000202260e+03,	 3.4760788074355230e+02,	 4.9941330337091614e+00 
6.5373700000000001e-01,	 3.0516882499999998e-01,	 1.1586407740864559e-02,	 1.7359999999979591e+03,	 1.0812456027169989e-08,	 3.0000000000354754e+02,	 1.0000000000413737e+03,	 3.4760788074460294e+02,	 4.9941330336910461e+00 
6.5823499999999990e-01,	 3.0514582499999998e-01,	 1.1586407741220597e-02,	 1.7359999999958216e+03,	 2.2040548267834809e-08,	 3.0000000000723577e+02,	 1.0000000000843967e+03,	 3.4760788074673968e+02,	 4.9941330336541974e+00 
6.6273300000000002e-01,	 3.0512287500000002e-01,	 1.1586407741943564e-02,	 1.7359999999914787e+03,	 4.4828862861942738e-08,	 3.0000000001472569e+02,	 1.0000000001717609e+03,	 3.4760788075107894e+02,	 4.9941330335793612e+00 
6.6723099999999991e-01,	 3.0509987500000002e-01,	 1.1586407743408635e-02,	 1.7359999999826769e+03,	 9.0989604645510444e-08,	 3.0000000002990333e+02,	 1.0000000003488004e+03,	 3.4760788075987205e+02,	 4.9941330334277083e+00 
6.7172900000000002e-01,	 3.0507687499999997e-01,	 1.1586407746371341e-02,	 1.7359999999648751e+03,	 1.8429095650426663e-07,	 3.0000000006059770e+02,	 1.0000000007068203e+03,	 3.4760788077765477e+02,	 4.9941330331210088e+00 
6.7622699999999991e-01,	 3.0505389999999999e-01,	 1.1586407752351095e-02,	 1.7359999999289432e+03,	 3.7251780281439446e-07,	 3.0000000012254924e+02,	 1.0000000014294262e+03,	 3.4760788081354616e+02,	 4.9941330325019830e+00 
6.8072500000000002e-01,	 3.0503089999999999e-01,	 1.1586407764397857e-02,	 1.7359999998565538e+03,	 7.5157722269760669e-07,	 3.0000000024735539e+02,	 1.0000000028851790e+03,	 3.4760788088585213e+02,	 4.9941330312549024e+00 
6.8522299999999992e-01,	 3.0500792499999996e-01,	 1.1586407788616719e-02,	 1.7359999997110176e+03,	 1.5132490148702526e-06,	 3.0000000049827116e+02,	 1.0000000058118471e+03,	 3.4760788103121934e+02,	 4.9941330287477115e+00 
6.8972100000000003e-01,	 3.0498494999999998e-01,	 1.1586407837221535e-02,	 1.7359999994189343e+03,	 3.0411397727611517e-06,	 3.0000000100184212e+02,	 1.0000000116854028e+03,	 3.4760788132296136e+02,	 4.9941330237159445e+00 
6.9421899999999992e-01,	 3.0496194999999998e-01,	 1.1586407934591742e-02,	 1.7359999988338061e+03,	 6.1008317522866826e-06,	 3.0000000201063921e+02,	 1.0000000234518905e+03,	 3.4760788190740442e+02,	 4.9941330136358664e+00 
6.9871699999999992e-01,	 3.0493894999999993e-01,	 1.1586408129255902e-02,	 1.7359999976639745e+03,	 1.2214528459086194e-05,	 3.0000000402749930e+02,	 1.0000000469758374e+03,	 3.4760788307586517e+02,	 4.9941329934830438e+00 
7.0321499999999992e-01,	 3.0491597500000001e-01,	 1.1586408517793998e-02,	 1.7359999953290546e+03,	 2.4411922021763010e-05,	 3.0000000805303790e+02,	 1.0000000939282575e+03,	 3.4760788540804674e+02,	 4.9941329532591450e+00 
7.0771300000000004e-01,	 3.0489300000000003e-01,	 1.1586409291900768e-02,	 1.7359999906770611e+03,	 4.8703745380402208e-05,	 3.0000001607334360e+02,	 1.0000001874742437e+03,	 3.4760789005458241e+02,	 4.9941328731188177e+00 
7.1221099999999993e-01,	 3.0486999999999997e-01,	 1.1586410831161463e-02,	 1.7359999814266162e+03,	 9.6980443524023819e-05,	 3.0000003202164112e+02,	 1.0000003734858115e+03,	 3.4760789929417189e+02,	 4.9941327137605853e+00 
7.1670900000000004e-01,	 3.0484702500000005e-01,	 1.1586413886764695e-02,	 1.7359999630634111e+03,	 1.9277377314817933e-04,	 3.0000006368085013e+02,	 1.0000007427396806e+03,	 3.4760791763582131e+02,	 4.9941323974161556e+00 
7.2120699999999993e-01,	 3.0482402500000000e-01,	 1.1586419941685798e-02,	 1.7359999266749612e+03,	 3.8251584008185732e-04,	 3.0000012641657560e+02,	 1.0000014744473948e+03,	 3.4760795398153653e+02,	 4.9941317705497967e+00 
7.2570500000000004e-01,	 3.0480102499999995e-01,	 1.1586431917243839e-02,	 1.7359998547039261e+03,	 7.5760112753387658e-04,	 3.0000025049855878e+02,	 1.0000029216420990e+03,	 3.4760802586797263e+02,	 4.9941305307014208e+00 
7.3020299999999994e-01,	 3.0477807499999998e-01,	 1.1586455560271510e-02,	 1.7359997126111759e+03,	 1.4977783054072554e-03,	 3.0000049547376949e+02,	 1.0000057788142955e+03,	 3.4760816779340746e+02,	 4.9941280828693637e+00 
7.3470099999999994e-01,	 3.0475507499999999e-01,	 1.1586502153458930e-02,	 1.7359994325843286e+03,	 2.9558189776746069e-03,	 3.0000097825280778e+02,	 1.0000114094636208e+03,	 3.4760844748939456e+02,	 4.9941232588710598e+00 
7.3919899999999994e-01,	 3.0473207499999999e-01,	 1.1586593798457607e-02,	 1.7359988817738308e+03,	 5.8222199735200944e-03,	 3.0000192786880928e+02,	 1.0000224846259981e+03,	 3.4760899764473857e+02,	 4.9941137702016860e+00 
7.4369700000000005e-01,	 3.0470909999999995e-01,	 1.1586773731484834e-02,	 1.7359978002587081e+03,	 1.1447343302816156e-02,	 3.0000379241302113e+02,	 1.0000442297341868e+03,	 3.4761007785669267e+02,	 4.9940951395895405e+00 
7.4819499999999994e-01,	 3.0468609999999996e-01,	 1.1587126350564112e-02,	 1.7359956806051014e+03,	 2.2466901732492647e-02,	 3.0000744662522641e+02,	 1.0000868454389886e+03,	 3.4761219489179905e+02,	 4.9940586270019791e+00 
7.5269300000000006e-01,	 3.0466312500000003e-01,	 1.1587815917199361e-02,	 1.7359915346624098e+03,	 4.4005669649343403e-02,	 3.0001459373143979e+02,	 1.0001701886353579e+03,	 3.4761633546649045e+02,	 4.9939872155044513e+00 
7.5719099999999995e-01,	 3.0464015000000000e-01,	 1.1589161833755525e-02,	 1.7359834394945512e+03,	 8.6028864642509348e-02,	 3.0002854745203939e+02,	 1.0003328811476161e+03,	 3.4762441921462101e+02,	 4.9938478014526400e+00 
7.6168900000000006e-01,	 3.0461715000000000e-01,	 1.1591783478979498e-02,	 1.7359676606864155e+03,	 1.6786574435357771e-01,	 3.0005574032346630e+02,	 1.0006498566678147e+03,	 3.4764017220219040e+02,	 4.9935761388156212e+00 
7.6618699999999995e-01,	 3.0459415000000001e-01,	 1.1596877172008201e-02,	 1.7359369623614477e+03,	 3.2683592611019863e-01,	 3.0010862549521374e+02,	 1.0012660081450879e+03,	 3.4767080684389055e+02,	 4.9930479032386863e+00 
7.7068499999999995e-01,	 3.0457117499999997e-01,	 1.1606747756074136e-02,	 1.7358773251253335e+03,	 6.3495460300261797e-01,	 3.0021129086465947e+02,	 1.0024610459158762e+03,	 3.4773026981273790e+02,	 4.9920228175360757e+00 
7.7518299999999996e-01,	 3.0454819999999999e-01,	 1.1625809929858857e-02,	 1.7357615996412139e+03,	 1.2304847582089855e+00,	 3.0041023585967923e+02,	 1.0047728284450693e+03,	 3.4784546824418101e+02,	 4.9900378019851050e+00 
7.7968100000000007e-01,	 3.0452520000000000e-01,	 1.1662466698592694e-02,	 1.7355370241705207e+03,	 2.3777192350487035e+00,	 3.0079528317410177e+02,	 1.0092328446900244e+03,	 3.4806832029255770e+02,	 4.9862011327880600e+00 
7.8417899999999996e-01,	 3.0450222500000002e-01,	 1.1732249670798160e-02,	 1.7351022815707797e+03,	 4.5691257310114066e+00,	 3.0153695134307532e+02,	 1.0177749875415174e+03,	 3.4849717053364287e+02,	 4.9788303731400063e+00 
7.8867700000000007e-01,	 3.0447922500000002e-01,	 1.1862018951972286e-02,	 1.7342698180092793e+03,	 8.6643135751925389e+00,	 3.0294416977282452e+02,	 1.0338348070462991e+03,	 3.4930941063309001e+02,	 4.9649147955688164e+00 
7.9317499999999996e-01,	 3.0445622500000002e-01,	 1.2093627463880964e-02,	 1.7327135198403505e+03,	 1.6006067032256151e+01,	 3.0553350148309511e+02,	 1.0630296083196363e+03,	 3.5079904724855822e+02,	 4.9395443358747144e+00 
7.9767300000000008e-01,	 3.0443327499999995e-01,	 1.2482749380546321e-02,	 1.7299275623151223e+03,	 2.8319093271515055e+01,	 3.1005269414152372e+02,	 1.1134627638429110e+03,	 3.5338388527792375e+02,	 4.8959769024885391e+00 