TITLE = "Final State"
VARIABLES = "X", "Y", "rho", "u", "v", "T", "p", "c", "M"
ZONE I=97, J=69, DATAPACKING=POINT
2.2792907500000004e+00,	 6.0465432500000005e-01,	 8.2629400640743533e-03,	 1.6334259272266656e+03,	 6.0221213758952402e+01,	 4.6981828073293758e+02,	 1.1168489784587759e+03,	 4.3500469288805067e+02,	 3.7575127258545735e+00 
2.2867592500000002e+00,	 6.0465362499999997e-01,	 8.2476953933434301e-03,	 1.6334269539750694e+03,	 5.9830445347007746e+01,	 4.6983991026583311e+02,	 1.1148397761386316e+03,	 4.3501470616383239e+02,	 3.7573956047846813e+00 
2.2942277500000001e+00,	 6.0465294999999997e-01,	 8.2324992122572212e-03,	 1.6334291692366305e+03,	 5.9438025407457431e+01,	 4.6985955764334955e+02,	 1.1128322441251798e+03,	 4.3502380161168662e+02,	 3.7572892230456501e+00 
2.3016962500000000e+00,	 6.0465225000000000e-01,	 8.2173568228973027e-03,	 1.6334324653507517e+03,	 5.9044230075050422e+01,	 4.6987737938133182e+02,	 1.1108274959920896e+03,	 4.3503205174363256e+02,	 3.7571927314552154e+00 
2.3091647499999999e+00,	 6.0465155000000004e-01,	 8.2022727311699180e-03,	 1.6334368844033645e+03,	 5.8649221343087760e+01,	 4.6989329614824589e+02,	 1.1088259783564290e+03,	 4.3503941988416619e+02,	 3.7571065580185117e+00 
2.3166332500000002e+00,	 6.0465087499999992e-01,	 8.1872517735987506e-03,	 1.6334423203616354e+03,	 5.8253262476872941e+01,	 4.6990746327780295e+02,	 1.1068287365413360e+03,	 4.3504597798301552e+02,	 3.7570298604196930e+00 
2.3241015000000003e+00,	 6.0465017499999996e-01,	 8.1722933916612457e-03,	 1.6334486688498675e+03,	 5.7856426223519321e+01,	 4.6992004477221161e+02,	 1.1048361040813900e+03,	 4.3505180199341129e+02,	 3.7569617496990024e+00 
2.3315699999999997e+00,	 6.0464944999999992e-01,	 8.1574031979952614e-03,	 1.6334559802909082e+03,	 5.7458925276522841e+01,	 4.6993094564293750e+02,	 1.1028486380116130e+03,	 4.3505684797517216e+02,	 3.7569027391487784e+00 
2.3390385000000000e+00,	 6.0464877500000003e-01,	 8.1425852148699733e-03,	 1.6334641556513798e+03,	 5.7060940597160204e+01,	 4.6994031548161053e+02,	 1.1008672548061134e+03,	 4.3506118519981919e+02,	 3.7568520181630207e+00 
2.3465070000000003e+00,	 6.0464807499999995e-01,	 8.1278372244012430e-03,	 1.6334730898075709e+03,	 5.6662558261901943e+01,	 4.6994831938540398e+02,	 1.0988920608201495e+03,	 4.3506489010970785e+02,	 3.7568086924033528e+00 
2.3539755000000002e+00,	 6.0464737499999999e-01,	 8.1131684311329336e-03,	 1.6334828579372356e+03,	 5.6264020066844104e+01,	 4.6995482139444528e+02,	 1.0969240010606561e+03,	 4.3506789978752550e+02,	 3.7567734973163955e+00 
2.3614440000000001e+00,	 6.0464669999999998e-01,	 8.0985759240516930e-03,	 1.6334933576038927e+03,	 5.5865381460247050e+01,	 4.6995998440136532e+02,	 1.0949630809295943e+03,	 4.3507028964747121e+02,	 3.7567455507355390e+00 
2.3689125000000000e+00,	 6.0464600000000002e-01,	 8.0840632238411286e-03,	 1.6335044970988329e+03,	 5.5466784970850455e+01,	 4.6996394918877826e+02,	 1.0930101210693606e+03,	 4.3507212486496553e+02,	 3.7567240903120371e+00 
2.3763809999999999e+00,	 6.0464530000000005e-01,	 8.0696327796332176e-03,	 1.6335163509873896e+03,	 5.5068370304676812e+01,	 4.6996658717929154e+02,	 1.0910651693969121e+03,	 4.3507334593152751e+02,	 3.7567098117911941e+00 
2.3838494999999997e+00,	 6.0464462499999994e-01,	 8.0552873355894498e-03,	 1.6335288269256994e+03,	 5.4670243783177519e+01,	 4.6996804259947100e+02,	 1.0891289478915633e+03,	 4.3507401961137441e+02,	 3.7567019343477606e+00 
2.3913179999999996e+00,	 6.0464394999999993e-01,	 8.0410255622559261e-03,	 1.6335418910289409e+03,	 5.4272486324016029e+01,	 4.6996836637815596e+02,	 1.0872014093668490e+03,	 4.3507416948078776e+02,	 3.7567001822373780e+00 
2.3987864999999999e+00,	 6.0464322500000001e-01,	 8.0268502300979115e-03,	 1.6335554599489071e+03,	 5.3875224098932371e+01,	 4.6996768739627424e+02,	 1.0852832399818362e+03,	 4.3507385519624637e+02,	 3.7567038578397485e+00 
2.4062549999999998e+00,	 6.0464252500000004e-01,	 8.0127633606805471e-03,	 1.6335696102756283e+03,	 5.3478529853231251e+01,	 4.6996587810163192e+02,	 1.0833744312463077e+03,	 4.3507301771574083e+02,	 3.7567136516006552e+00 
2.4137235000000001e+00,	 6.0464184999999993e-01,	 7.9987670389514067e-03,	 1.6335842680546602e+03,	 5.3082546529199895e+01,	 4.6996305158513690e+02,	 1.0814755389044019e+03,	 4.3507170938361776e+02,	 3.7567289514698645e+00 
2.4211920000000000e+00,	 6.0464114999999996e-01,	 7.9848578057859897e-03,	 1.6335993394461100e+03,	 5.2687237791728251e+01,	 4.6995936280690569e+02,	 1.0795864633081417e+03,	 4.3507000192364364e+02,	 3.7567489187950116e+00 
2.4286605000000003e+00,	 6.0464045000000000e-01,	 7.9710430373841241e-03,	 1.6336149255233461e+03,	 5.2292841075753053e+01,	 4.6995463623296348e+02,	 1.0777078092777699e+03,	 4.3506781407947307e+02,	 3.7567745038817302e+00 
2.4361289999999998e+00,	 6.0463977499999988e-01,	 7.9573188146387173e-03,	 1.6336309329193646e+03,	 5.1899297052159525e+01,	 4.6994902744709321e+02,	 1.0758394151068665e+03,	 4.3506521786134806e+02,	 3.7568048647701131e+00 
2.4435975000000001e+00,	 6.0463907499999991e-01,	 7.9436869980115867e-03,	 1.6336472922468729e+03,	 5.1506743979424854e+01,	 4.6994264293124735e+02,	 1.0739817856884497e+03,	 4.3506226255125125e+02,	 3.7568394252827999e+00 
2.4510660000000000e+00,	 6.0463837499999995e-01,	 7.9301492438932954e-03,	 1.6336640858185890e+03,	 5.1115221328376578e+01,	 4.6993534827735795e+02,	 1.0721348469341492e+03,	 4.3505888592541288e+02,	 3.7568789132328764e+00 
2.4585344999999998e+00,	 6.0463770000000006e-01,	 7.9167072035580491e-03,	 1.6336812431467106e+03,	 5.0724853617095370e+01,	 4.6992725275532035e+02,	 1.0702990810013321e+03,	 4.3505513855465210e+02,	 3.7569227374031158e+00 
2.4660030000000002e+00,	 6.0463699999999998e-01,	 7.9033563343805062e-03,	 1.6336986874751042e+03,	 5.0335553204498339e+01,	 4.6991848660477564e+02,	 1.0684741785155945e+03,	 4.3505108071739818e+02,	 3.7569701930345949e+00 
2.4734715000000000e+00,	 6.0463630000000002e-01,	 7.8901040407959866e-03,	 1.6337165156605381e+03,	 4.9947565605501950e+01,	 4.6990888172218069e+02,	 1.0666607659349756e+03,	 4.3504663458894765e+02,	 3.7570221904528749e+00 
2.4809399999999999e+00,	 6.0463559999999994e-01,	 7.8769453510240135e-03,	 1.6337346518612142e+03,	 4.9560785676876975e+01,	 4.6989856783294420e+02,	 1.0648584738936324e+03,	 4.3504186020863932e+02,	 3.7570780277154161e+00 
2.4884084999999998e+00,	 6.0463489999999998e-01,	 7.8638824379951063e-03,	 1.6337530188774192e+03,	 4.9175327734838049e+01,	 4.6988766598678194e+02,	 1.0630678772163383e+03,	 4.3503681360149085e+02,	 3.7571370497940864e+00 
2.4958769999999997e+00,	 6.0463420000000001e-01,	 7.8509156799688468e-03,	 1.6337717221607386e+03,	 4.8791232019959075e+01,	 4.6987600464080532e+02,	 1.0612886453074634e+03,	 4.3503141534714320e+02,	 3.7572001857445025e+00 
2.5033455000000000e+00,	 6.0463352500000001e-01,	 7.8380466521268087e-03,	 1.6337906796677303e+03,	 4.8408568369625989e+01,	 4.6986371509732794e+02,	 1.0595212947076013e+03,	 4.3502572621596948e+02,	 3.7572667250537761e+00 
2.5108139999999999e+00,	 6.0463282500000004e-01,	 7.8252705923332264e-03,	 1.6338098308510257e+03,	 4.8027295039660700e+01,	 4.6985089920821116e+02,	 1.0577654169423722e+03,	 4.3501979334723671e+02,	 3.7573361165927741e+00 
2.5182825000000002e+00,	 6.0463212499999996e-01,	 7.8125945209566502e-03,	 1.6338292671864965e+03,	 4.7647572523552995e+01,	 4.6983740251931806e+02,	 1.0560216185686941e+03,	 4.3501354522789956e+02,	 3.7574091970018655e+00 
2.5257510000000001e+00,	 6.0463144999999996e-01,	 7.8000131444497904e-03,	 1.6338489273896807e+03,	 4.7269327278201629e+01,	 4.6982332966187880e+02,	 1.0542894251612845e+03,	 4.3500703028313819e+02,	 3.7574854001261562e+00 
2.5332195000000004e+00,	 6.0463072499999992e-01,	 7.7875281248179704e-03,	 1.6338687357793406e+03,	 4.6892653257621490e+01,	 4.6980880071461996e+02,	 1.0525693354913842e+03,	 4.3500030409196825e+02,	 3.7575640760867333e+00 
2.5406879999999998e+00,	 6.0463002499999996e-01,	 7.7751396948090501e-03,	 1.6338887981151533e+03,	 4.6517529644199811e+01,	 4.6979364678307212e+02,	 1.0508610069300446e+03,	 4.3499328845286237e+02,	 3.7576461398224912e+00 
2.5481565000000002e+00,	 6.0462932500000000e-01,	 7.7628474962312902e-03,	 1.6339089883077543e+03,	 4.6144059001774735e+01,	 4.6977806948592490e+02,	 1.0491648467651860e+03,	 4.3498607669518105e+02,	 3.7577304998674275e+00 
2.5556250000000000e+00,	 6.0462862500000003e-01,	 7.7506515973387886e-03,	 1.6339294092594498e+03,	 4.5772190008053421e+01,	 4.6976190600934160e+02,	 1.0474805043747810e+03,	 4.3497859342999726e+02,	 3.7578180383087103e+00 
2.5630934999999999e+00,	 6.0462795000000003e-01,	 7.7385533418875179e-03,	 1.6339499917261041e+03,	 4.5402052309491175e+01,	 4.6974526463113614e+02,	 1.0458084072464721e+03,	 4.3497088877440410e+02,	 3.7579081691295211e+00 
2.5705620000000002e+00,	 6.0462725000000006e-01,	 7.7265478237957888e-03,	 1.6339706709833977e+03,	 4.5033514856774005e+01,	 4.6972825814187740e+02,	 1.0441481466909299e+03,	 4.3496301493803088e+02,	 3.7580002817726563e+00 
2.5780305000000001e+00,	 6.0462654999999998e-01,	 7.7146413046249029e-03,	 1.6339915516104215e+03,	 4.4666794325915362e+01,	 4.6971070897512334e+02,	 1.0425001771719158e+03,	 4.3495488969791074e+02,	 3.7580953383449671e+00 
2.5854990000000000e+00,	 6.0462587499999998e-01,	 7.7028287119624639e-03,	 1.6340125665173471e+03,	 4.4301738848689439e+01,	 4.6969273465685745e+02,	 1.0408640777881997e+03,	 4.3494656745587605e+02,	 3.7581927026485489e+00 
2.5929674999999999e+00,	 6.0462517500000001e-01,	 7.6911111909940370e-03,	 1.6340336507271238e+03,	 4.3938483251732436e+01,	 4.6967443655053199e+02,	 1.0392402304422983e+03,	 4.3493809513401067e+02,	 3.7582918259227767e+00 
2.6004359999999997e+00,	 6.0462444999999998e-01,	 7.6794887869795032e-03,	 1.6340549096856373e+03,	 4.3576975207527035e+01,	 4.6965564774536745e+02,	 1.0376282742602643e+03,	 4.3492939543883733e+02,	 3.7583936126837458e+00 
2.6079047499999999e+00,	 6.0462377499999997e-01,	 7.6679623727657223e-03,	 1.6340762759524209e+03,	 4.3217299995780891e+01,	 4.6963647589702356e+02,	 1.0360285680441534e+03,	 4.3492051820554207e+02,	 3.7584974800944280e+00 
2.6153732500000002e+00,	 6.0462307500000001e-01,	 7.6565273276445094e-03,	 1.6340976887777701e+03,	 4.2859363280718682e+01,	 4.6961702556619139e+02,	 1.0344407200514590e+03,	 4.3491151183999307e+02,	 3.7586028619690812e+00 
2.6228417500000001e+00,	 6.0462237500000005e-01,	 7.6451895089883785e-03,	 1.6341192504979867e+03,	 4.2503345380353110e+01,	 4.6959712491315196e+02,	 1.0328651448717058e+03,	 4.3490229676225653e+02,	 3.7587106896567386e+00 
2.6303102500000000e+00,	 6.0462167499999997e-01,	 7.6339424338035776e-03,	 1.6341408434805455e+03,	 4.2149094566715782e+01,	 4.6957697322063848e+02,	 1.0313014070987388e+03,	 4.3489296524070670e+02,	 3.7588198837082887e+00 
2.6377787499999998e+00,	 6.0462097500000000e-01,	 7.6227917158991423e-03,	 1.6341625704588557e+03,	 4.1796778727423494e+01,	 4.6955639865459864e+02,	 1.0297498891145788e+03,	 4.3488343769510982e+02,	 3.7589313755326375e+00 
2.6452472500000002e+00,	 6.0462030000000000e-01,	 7.6117326123010722e-03,	 1.6341843710374883e+03,	 4.1446283654577385e+01,	 4.6953550595673153e+02,	 1.0282101819544225e+03,	 4.3487376261734750e+02,	 3.7590445978953619e+00 
2.6527157499999996e+00,	 6.0461957499999996e-01,	 7.6007657492756248e-03,	 1.6342061805186390e+03,	 4.1097711909434103e+01,	 4.6951439783978390e+02,	 1.0266825961974300e+03,	 4.3486398756382124e+02,	 3.7591589944305204e+00 
2.6601842499999999e+00,	 6.0461887500000000e-01,	 7.5898916083282919e-03,	 1.6342281045084969e+03,	 4.0750987883524772e+01,	 4.6949290796316137e+02,	 1.0251668340241590e+03,	 4.3485403549374740e+02,	 3.7592754669157840e+00 
2.6676527500000002e+00,	 6.0461819999999999e-01,	 7.5791104896486992e-03,	 1.6342500827339045e+03,	 4.0406250036594905e+01,	 4.6947113049576717e+02,	 1.0236631431740423e+03,	 4.3484395000657815e+02,	 3.7593935052994452e+00 
2.6751212500000001e+00,	 6.0461750000000003e-01,	 7.5684179406414918e-03,	 1.6342720469561514e+03,	 4.0063322117148694e+01,	 4.6944918524019465e+02,	 1.0221711840749492e+03,	 4.3483378657743629e+02,	 3.7595124604572203e+00 
2.6825897500000004e+00,	 6.0461680000000007e-01,	 7.5578193842259014e-03,	 1.6342941104945355e+03,	 3.9722440755340727e+01,	 4.6942688078864120e+02,	 1.0206912727842002e+03,	 4.3482345655170013e+02,	 3.7596333701849414e+00 
2.6900582499999999e+00,	 6.0461607500000003e-01,	 7.5473085682295086e-03,	 1.6343161510144796e+03,	 3.9383407005398546e+01,	 4.6940442555241668e+02,	 1.0192230189823368e+03,	 4.3481305644403454e+02,	 3.7597551049759632e+00 
2.6975270000000000e+00,	 6.0461537499999995e-01,	 7.5368899730379486e-03,	 1.6343382719857186e+03,	 3.9046367694837251e+01,	 4.6938164776442937e+02,	 1.0177666549144233e+03,	 4.3480250669287528e+02,	 3.7598785962586807e+00 
2.7049955000000003e+00,	 6.0461469999999995e-01,	 7.5265619575889909e-03,	 1.6343604189666169e+03,	 3.8711321118910760e+01,	 4.6935863785276581e+02,	 1.0163221558807893e+03,	 4.3479184917150269e+02,	 3.7600033540634969e+00 
2.7124640000000002e+00,	 6.0461399999999998e-01,	 7.5163206794688440e-03,	 1.6343825228911558e+03,	 3.8378167314821390e+01,	 4.6933551371880043e+02,	 1.0148892582803700e+03,	 4.3478113848249467e+02,	 3.7601287393253933e+00 
2.7199327500000003e+00,	 6.0461330000000002e-01,	 7.5061708072224906e-03,	 1.6344047024667602e+03,	 3.8047067430044535e+01,	 4.6931207847370808e+02,	 1.0134681665528569e+03,	 4.3477028342311701e+02,	 3.7602558198508556e+00 
2.7274012499999998e+00,	 6.0461257499999999e-01,	 7.4961067796962726e-03,	 1.6344268281709740e+03,	 3.7717872025364876e+01,	 4.6928854997514151e+02,	 1.0120586005845566e+03,	 4.3475938489666299e+02,	 3.7603834145025492e+00 
2.7348697500000001e+00,	 6.0461187500000002e-01,	 7.4861333827196787e-03,	 1.6344490120278290e+03,	 3.7390726281743163e+01,	 4.6926474286544561e+02,	 1.0106608063435455e+03,	 4.3474835703796015e+02,	 3.7605125286698300e+00 
2.7423382500000000e+00,	 6.0461117500000006e-01,	 7.4762449529766593e-03,	 1.6344711340816664e+03,	 3.7065521295499366e+01,	 4.6924085786271013e+02,	 1.0092744515504199e+03,	 4.3473729281675975e+02,	 3.7606420739891768e+00 
2.7498067499999999e+00,	 6.0461045000000002e-01,	 7.4664462883632611e-03,	 1.6344933051852506e+03,	 3.6742389198759831e+01,	 4.6921671208826416e+02,	 1.0078997899572555e+03,	 4.3472610751236817e+02,	 3.7607730425242885e+00 
2.7572752500000002e+00,	 6.0460974999999995e-01,	 7.4567316801660566e-03,	 1.6345154001187318e+03,	 3.6421176613341430e+01,	 4.6919251634813571e+02,	 1.0065365035485653e+03,	 4.3471489877314701e+02,	 3.7609042910247719e+00 
2.7647437500000001e+00,	 6.0460904999999998e-01,	 7.4471058608509919e-03,	 1.6345375369815208e+03,	 3.6102073622504832e+01,	 4.6916807395913816e+02,	 1.0051848083697763e+03,	 4.3470357547974976e+02,	 3.7610368865497787e+00 
2.7722122499999999e+00,	 6.0460832500000006e-01,	 7.4375632476488271e-03,	 1.6345595894667076e+03,	 3.5784914288685954e+01,	 4.6914359785734780e+02,	 1.0038444067209767e+03,	 4.3469223627283839e+02,	 3.7611696741226672e+00 
2.7796807499999998e+00,	 6.0460762499999998e-01,	 7.4281084461306750e-03,	 1.6345816699978266e+03,	 3.5469836613013413e+01,	 4.6911890252241523e+02,	 1.0025155222410784e+03,	 4.3468079520054323e+02,	 3.7613036603664707e+00 
2.7871494999999999e+00,	 6.0460692500000002e-01,	 7.4187356928520536e-03,	 1.6346036628342201e+03,	 3.5156725277126050e+01,	 4.6909418182164609e+02,	 1.0011977908154846e+03,	 4.3466934207493159e+02,	 3.7614377935847934e+00 
2.7946182500000001e+00,	 6.0460619999999998e-01,	 7.4094493113604568e-03,	 1.6346256675701795e+03,	 3.4845686182290009e+01,	 4.6906927225078329e+02,	 9.9989144581990888e+02,	 4.3465780114036062e+02,	 3.7615729610623396e+00 
2.8020867500000000e+00,	 6.0460549999999991e-01,	 7.4002461678937814e-03,	 1.6346475713945863e+03,	 3.4536683623800684e+01,	 4.6904436009194785e+02,	 9.9859646063350340e+02,	 4.3464625870025941e+02,	 3.7617081520862388e+00 
2.8095552500000003e+00,	 6.0460479999999994e-01,	 7.3911271153309244e-03,	 1.6346694845590102e+03,	 3.4229723827694741e+01,	 4.6901926802987902e+02,	 9.9731257152991782e+02,	 4.3463463259653383e+02,	 3.7618443289965331e+00 
2.8170237499999997e+00,	 6.0460407500000002e-01,	 7.3820902521715614e-03,	 1.6346912893425788e+03,	 3.3924821946856873e+01,	 4.6899418853514970e+02,	 9.9603993030612992e+02,	 4.3462301200497006e+02,	 3.7619804473397926e+00 
2.8244924999999999e+00,	 6.0460337499999994e-01,	 7.3731366093395083e-03,	 1.6347130917142897e+03,	 3.3621940275247695e+01,	 4.6896895270604620e+02,	 9.9477831590182359e+02,	 4.3461131866220472e+02,	 3.7621174239063540e+00 
2.8319609999999997e+00,	 6.0460267499999998e-01,	 7.3642643741237716e-03,	 1.6347347780909558e+03,	 3.3321131429353791e+01,	 4.6894374502559668e+02,	 9.9352787401114358e+02,	 4.3459963804838162e+02,	 3.7622542574276454e+00 
2.8394294999999996e+00,	 6.0460192500000010e-01,	 7.3554728172527282e-03,	 1.6347563971170594e+03,	 3.3022348437158357e+01,	 4.6891848992472200e+02,	 9.9228834435185581e+02,	 4.3458793514627831e+02,	 3.7623913581221835e+00 
2.8468982500000002e+00,	 6.0460119999999995e-01,	 7.3467641212082036e-03,	 1.6347780001133515e+03,	 3.2725644720997913e+01,	 4.6889310415391213e+02,	 9.9105984397905775e+02,	 4.3457617137573652e+02,	 3.7625291780238026e+00 
2.8543667499999996e+00,	 6.0460049999999999e-01,	 7.3381353591869432e-03,	 1.6347994713257374e+03,	 3.2430999884171044e+01,	 4.6886777814220721e+02,	 9.8984237928366497e+02,	 4.3456443498024947e+02,	 3.7626666833362075e+00 
2.8618354999999998e+00,	 6.0459979999999991e-01,	 7.3295874384012912e-03,	 1.6348209217419319e+03,	 3.2138417669604301e+01,	 4.6884233338913083e+02,	 9.8863569404150940e+02,	 4.3455264323929356e+02,	 3.7628048432433339e+00 
2.8693040000000001e+00,	 6.0459907500000010e-01,	 7.3211185080097772e-03,	 1.6348422317268798e+03,	 3.1847891578504253e+01,	 4.6881696613850738e+02,	 9.8743995105622719e+02,	 4.3454088709640968e+02,	 3.7629425922104884e+00 
2.8767725000000004e+00,	 6.0459832499999999e-01,	 7.3127280175307556e-03,	 1.6348634528049188e+03,	 3.1559403284215481e+01,	 4.6879159509770705e+02,	 9.8625490276402957e+02,	 4.3452912887888198e+02,	 3.7630803716285426e+00 
2.8842412500000001e+00,	 6.0459759999999996e-01,	 7.3044180654455856e-03,	 1.6348846368200477e+03,	 3.1273001170806179e+01,	 4.6876613634517656e+02,	 9.8508065412242956e+02,	 4.3451732969148890e+02,	 3.7632186372927072e+00 
2.8917097499999995e+00,	 6.0459689999999999e-01,	 7.2961858882385697e-03,	 1.6349056658153124e+03,	 3.0988670135807279e+01,	 4.6874078365009092e+02,	 9.8391723805487902e+02,	 4.3450557933937455e+02,	 3.7633563368441472e+00 
2.8991782499999998e+00,	 6.0459617499999996e-01,	 7.2880307235946669e-03,	 1.6349265982639993e+03,	 3.0706368344491842e+01,	 4.6871544511049217e+02,	 9.8276435661805249e+02,	 4.3449383523047334e+02,	 3.7634939693641969e+00 
2.9066467500000002e+00,	 6.0459542499999996e-01,	 7.2799540136524021e-03,	 1.6349474257005340e+03,	 3.0426171470269804e+01,	 4.6869013389809550e+02,	 9.8162223007149851e+02,	 4.3448210347047069e+02,	 3.7636314632849035e+00 
2.9141155000000003e+00,	 6.0459469999999993e-01,	 7.2719547555079320e-03,	 1.6349682035077183e+03,	 3.0147996236304412e+01,	 4.6866476434379229e+02,	 9.8049054205971447e+02,	 4.3447034435108208e+02,	 3.7637692839898058e+00 
2.9215839999999997e+00,	 6.0459397500000001e-01,	 7.2640316760243821e-03,	 1.6349888080959956e+03,	 2.9871884157109260e+01,	 4.6863953757201415e+02,	 9.7936953995230897e+02,	 4.3445865109766436e+02,	 3.7639063388226246e+00 
2.9290525000000001e+00,	 6.0459322500000001e-01,	 7.2561839218402173e-03,	 1.6350092957414020e+03,	 2.9597780239230591e+01,	 4.6861436552834095e+02,	 9.7825892224781671e+02,	 4.3444698289841847e+02,	 3.7640431060597881e+00 
2.9365209999999999e+00,	 6.0459252499999994e-01,	 7.2484148025873125e-03,	 1.6350297120703801e+03,	 2.9325761910847302e+01,	 4.6858917351734203e+02,	 9.7715897734672546e+02,	 4.3443530512979680e+02,	 3.7641799915230272e+00 
2.9439894999999998e+00,	 6.0459182499999997e-01,	 7.2407187382786727e-03,	 1.6350499447862703e+03,	 2.9055714677483913e+01,	 4.6856414888516287e+02,	 9.7606934173757577e+02,	 4.3442370463891706e+02,	 3.7643159771531960e+00 
2.9514579999999997e+00,	 6.0459112500000001e-01,	 7.2331008073598232e-03,	 1.6350700925004810e+03,	 2.8787719938212117e+01,	 4.6853913077405150e+02,	 9.7499036255181306e+02,	 4.3441210686130529e+02,	 3.7644519369594076e+00 
2.9589259999999999e+00,	 6.0459044999999989e-01,	 7.2255581642349668e-03,	 1.6350900949571851e+03,	 2.8521709932255312e+01,	 4.6851422059331765e+02,	 9.7392186531021514e+02,	 4.3440055880990673e+02,	 3.7645873197753983e+00 
2.9663944999999998e+00,	 6.0458977500000000e-01,	 7.2180900689661478e-03,	 1.6351099408243397e+03,	 2.8257593676334828e+01,	 4.6848944087963019e+02,	 9.7286379476127831e+02,	 4.3438907093682326e+02,	 3.7647220029832260e+00 
2.9738629999999997e+00,	 6.0458917499999998e-01,	 7.2107000992424966e-03,	 1.6351296706722039e+03,	 2.7995428494976196e+01,	 4.6846472565723576e+02,	 9.7181649378527004e+02,	 4.3437761265926576e+02,	 3.7648563450636621e+00 
2.9813310000000000e+00,	 6.0458867500000002e-01,	 7.2033878384736285e-03,	 1.6351492698678076e+03,	 2.7735120598768315e+01,	 4.6844010280284391e+02,	 9.7077996193243473e+02,	 4.3436619690406809e+02,	 3.7649901944028294e+00 
2.9887990000000002e+00,	 6.0458829999999986e-01,	 7.1961555158542535e-03,	 1.6351687729902196e+03,	 2.7476605461792634e+01,	 4.6841551937161012e+02,	 9.6975438776385465e+02,	 4.3435479912709718e+02,	 3.7651238387328587e+00 
2.9962664999999999e+00,	 6.0458809999999996e-01,	 7.1890053869332711e-03,	 1.6351881478187950e+03,	 2.7219800236117077e+01,	 4.6839103131384735e+02,	 9.6874018899744453e+02,	 4.3434344527139706e+02,	 3.7652569738141497e+00 
2.2792892500000002e+00,	 6.1042067499999997e-01,	 8.3810796130550733e-03,	 1.6365546524225363e+03,	 6.1120913184567328e+01,	 4.6468382506089682e+02,	 1.1204370442656875e+03,	 4.3262116688548014e+02,	 3.7855189040490513e+00 
2.2867577500000000e+00,	 6.1042004999999999e-01,	 8.3657591660136425e-03,	 1.6365540057148933e+03,	 6.0736392268309508e+01,	 4.6470814359240950e+02,	 1.1184474368136264e+03,	 4.3263248702755277e+02,	 3.7853852926954326e+00 
2.2942262499999999e+00,	 6.1041942500000002e-01,	 8.3504748188546890e-03,	 1.6365546459996954e+03,	 6.0349723514727586e+01,	 4.6473035227480875e+02,	 1.1164573729082763e+03,	 4.3264282478775760e+02,	 3.7852632814485569e+00 
2.3016947500000002e+00,	 6.1041879999999993e-01,	 8.3352321816682739e-03,	 1.6365565961303228e+03,	 5.9961077352991119e+01,	 4.6475040133889695e+02,	 1.1144675118285420e+03,	 4.3265215707058383e+02,	 3.7851531415059116e+00 
2.3091632500000001e+00,	 6.1041819999999991e-01,	 8.3200351820940464e-03,	 1.6365596941719136e+03,	 5.9570737945968169e+01,	 4.6476853486905895e+02,	 1.1124789921201796e+03,	 4.3266059755217367e+02,	 3.7850535300515222e+00 
2.3166317500000000e+00,	 6.1041759999999989e-01,	 8.3048890242624299e-03,	 1.6365639752753177e+03,	 5.9178888308842772e+01,	 4.6478468299851647e+02,	 1.1104923685649910e+03,	 4.3266811376522429e+02,	 3.7849648292196525e+00 
2.3241002499999999e+00,	 6.1041697500000003e-01,	 8.2897966671201546e-03,	 1.6365692787873102e+03,	 5.8785774777299999e+01,	 4.6479909067911416e+02,	 1.1085086476850620e+03,	 4.3267481976900126e+02,	 3.7848856920753913e+00 
2.3315687499999997e+00,	 6.1041632499999998e-01,	 8.2747606805367042e-03,	 1.6365755964432522e+03,	 5.8391480182037476e+01,	 4.6481176504371501e+02,	 1.1065282134521906e+03,	 4.3268071892107105e+02,	 3.7848160782634164e+00 
2.3390372500000001e+00,	 6.1041570000000001e-01,	 8.2597896141512646e-03,	 1.6365829360151597e+03,	 5.7996365319809215e+01,	 4.6482267127281324e+02,	 1.1045521495483499e+03,	 4.3268579504835662e+02,	 3.7847561779886654e+00 
2.3465057500000004e+00,	 6.1041509999999999e-01,	 8.2448795254082205e-03,	 1.6365911246242003e+03,	 5.7600370105397786e+01,	 4.6483209280122867e+02,	 1.1025806245036031e+03,	 4.3269018009786913e+02,	 3.7847044336911653e+00 
2.3539742500000003e+00,	 6.1041449999999997e-01,	 8.2300406724740236e-03,	 1.6366002369305547e+03,	 5.7203916307952511e+01,	 4.6483988326046807e+02,	 1.1006146831981212e+03,	 4.3269380596744656e+02,	 3.7846616485663827e+00 
2.3614427500000001e+00,	 6.1041387499999988e-01,	 8.2152687020023152e-03,	 1.6366101057188134e+03,	 5.6806912928282216e+01,	 4.6484631900146979e+02,	 1.0986544179630387e+03,	 4.3269680129522499e+02,	 3.7846263043305028e+00 
2.3689112500000000e+00,	 6.1041324999999991e-01,	 8.2005730938574037e-03,	 1.6366208035083876e+03,	 5.6409720643904386e+01,	 4.6485126127590598e+02,	 1.0967007868863027e+03,	 4.3269910151851184e+02,	 3.7845991625521558e+00 
2.3763797499999999e+00,	 6.1041262499999993e-01,	 8.1859493888850748e-03,	 1.6366321724029162e+03,	 5.6012266245803055e+01,	 4.6485497054679183e+02,	 1.0947538262899641e+03,	 4.3270082787176881e+02,	 3.7845787924877090e+00 
2.3838482499999998e+00,	 6.1041202500000002e-01,	 8.1714068313754815e-03,	 1.6366442891571205e+03,	 5.5614884572948171e+01,	 4.6485730323110124e+02,	 1.0928144507212623e+03,	 4.3270191353636267e+02,	 3.7845659824381714e+00 
2.3913167500000001e+00,	 6.1041142500000001e-01,	 8.1569404084727692e-03,	 1.6366570042323556e+03,	 5.5217510299314505e+01,	 4.6485850603012932e+02,	 1.0908825861524956e+03,	 4.3270247333514476e+02,	 3.7845593774453867e+00 
2.3987852500000000e+00,	 6.1041077499999996e-01,	 8.1425570829465315e-03,	 1.6366703401703730e+03,	 5.4820427728930802e+01,	 4.6485852681191483e+02,	 1.0889590558260616e+03,	 4.3270248300725979e+02,	 3.7845592637379748e+00 
2.4062540000000001e+00,	 6.1041014999999987e-01,	 8.1282569157216881e-03,	 1.6366843163475392e+03,	 5.4423619465302693e+01,	 4.6485733534233987e+02,	 1.0870438118639966e+03,	 4.3270192848137276e+02,	 3.7845658073517350e+00 
2.4137225000000000e+00,	 6.1040952499999990e-01,	 8.1140414626438492e-03,	 1.6366987894679582e+03,	 5.4027259429033087e+01,	 4.6485515550602554e+02,	 1.0851375998412339e+03,	 4.3270091395453727e+02,	 3.7845777788375323e+00 
2.4211909999999999e+00,	 6.1040892499999999e-01,	 8.0999121519664888e-03,	 1.6367138388019382e+03,	 5.3631383654205017e+01,	 4.6485185704137194e+02,	 1.0832403191845258e+03,	 4.3269937879763387e+02,	 3.7845958936663235e+00 
2.4286594999999997e+00,	 6.1040832499999997e-01,	 8.0858702744980217e-03,	 1.6367293301460622e+03,	 5.3236167169111511e+01,	 4.6484764938354715e+02,	 1.0813526431133228e+03,	 4.3269742048014052e+02,	 3.7846190018225285e+00 
2.4361279999999996e+00,	 6.1040770000000000e-01,	 8.0719170847401416e-03,	 1.6367453451980562e+03,	 5.2841624470013443e+01,	 4.6484239972929043e+02,	 1.0794744416953504e+03,	 4.3269497718686847e+02,	 3.7846478328335613e+00 
2.4435964999999999e+00,	 6.1040707500000002e-01,	 8.0580534077335994e-03,	 1.6367617450671125e+03,	 5.2447870834911988e+01,	 4.6483632860840061e+02,	 1.0776063486531734e+03,	 4.3269215154951928e+02,	 3.7846811757982195e+00 
2.4510649999999998e+00,	 6.1040644999999993e-01,	 8.0442804511872863e-03,	 1.6367786193511356e+03,	 5.2054955257821980e+01,	 4.6482928875189492e+02,	 1.0757481940293003e+03,	 4.3268887501754040e+02,	 3.7847198397736155e+00 
2.4585335000000001e+00,	 6.1040585000000003e-01,	 8.0305991122606325e-03,	 1.6367958298933897e+03,	 5.1662977932224976e+01,	 4.6482150055499557e+02,	 1.0739006179518319e+03,	 4.3268525015960660e+02,	 3.7847626146099116e+00 
2.4660020000000000e+00,	 6.1040525000000001e-01,	 8.0170098953543188e-03,	 1.6368134740110611e+03,	 5.1271989401464751e+01,	 4.6481280432833034e+02,	 1.0720633277775723e+03,	 4.3268120264179089e+02,	 3.7848103776595710e+00 
2.4734705000000003e+00,	 6.1040462499999992e-01,	 8.0035136213821544e-03,	 1.6368314136451625e+03,	 5.0882080573308642e+01,	 4.6480342103187502e+02,	 1.0702369520114878e+03,	 4.3267683529600419e+02,	 3.7848619156590493e+00 
2.4809389999999998e+00,	 6.1040397499999999e-01,	 7.9901091953386138e-03,	 1.6368496909308853e+03,	 5.0493243987913040e+01,	 4.6479328378373208e+02,	 1.0684211977406351e+03,	 4.3267211698266772e+02,	 3.7849175962743327e+00 
2.4884075000000001e+00,	 6.1040335000000001e-01,	 7.9768021624069523e-03,	 1.6368683362302054e+03,	 5.0105655356082913e+01,	 4.6478233570740503e+02,	 1.0666166838328693e+03,	 4.3266702121706481e+02,	 3.7849777322804021e+00 
2.4958760000000000e+00,	 6.1040274999999999e-01,	 7.9635861299468258e-03,	 1.6368872251071643e+03,	 4.9719203724118692e+01,	 4.6477078598866541e+02,	 1.0648230431707000e+03,	 4.3266164535285475e+02,	 3.7850411750236739e+00 
2.5033444999999999e+00,	 6.1040214999999998e-01,	 7.9504684359737419e-03,	 1.6369064513581350e+03,	 4.9334131539501008e+01,	 4.6475847156451005e+02,	 1.0630408898874414e+03,	 4.3265591347977897e+02,	 3.7851088205773205e+00 
2.5108130000000002e+00,	 6.1040152500000000e-01,	 7.9374422225301638e-03,	 1.6369258890362601e+03,	 4.8950295541039822e+01,	 4.6474560571018850e+02,	 1.0612698016826246e+03,	 4.3264992485684962e+02,	 3.7851794977653244e+00 
2.5182815000000001e+00,	 6.1040089999999991e-01,	 7.9245149197132107e-03,	 1.6369456292278098e+03,	 4.8567912468993917e+01,	 4.6473203129529639e+02,	 1.0595104189161511e+03,	 4.3264360633291273e+02,	 3.7852540701436372e+00 
2.5257499999999999e+00,	 6.1040030000000001e-01,	 7.9116797991999575e-03,	 1.6369655510986775e+03,	 4.8186848410775305e+01,	 4.6471795280642101e+02,	 1.0577623142230887e+03,	 4.3263705307865126e+02,	 3.7853314147374015e+00 
2.5332184999999998e+00,	 6.1039967500000003e-01,	 7.8989420581215136e-03,	 1.6369856960982629e+03,	 4.7807309201056476e+01,	 4.6470329457218958e+02,	 1.0560260149215333e+03,	 4.3263022985907099e+02,	 3.7854119476279147e+00 
2.5406869999999997e+00,	 6.1039904999999994e-01,	 7.8863002333830808e-03,	 1.6370061077040282e+03,	 4.7429230374817870e+01,	 4.6468799065680537e+02,	 1.0543011809577235e+03,	 4.3262310596838643e+02,	 3.7854960314900836e+00 