TITLE = "Final State"
VARIABLES = "X", "Y", "rho", "u", "v", "T", "p", "c", "M"
ZONE I=76, J=24, DATAPACKING=POINT
2.1736572499999998e-01,	 1.9196510000000000e-01,	 1.1586407740522199e-02,	 1.7360000000000000e+03,	 2.9246311281791588e-14,	 2.9999999999999983e+02,	 9.9999999999999943e+02,	 3.4760788074254759e+02,	 4.9941330337264462e+00 
2.2165072499999999e-01,	 1.9247449999999999e-01,	 1.1586407740522199e-02,	 1.7360000000000000e+03,	 7.2220388988623004e-14,	 3.0000000000000000e+02,	 1.0000000000000000e+03,	 3.4760788074254771e+02,	 4.9941330337264445e+00 
2.2593570000000002e-01,	 1.9298389999999999e-01,	 1.1586407740522199e-02,	 1.7360000000000000e+03,	 6.6427393604970432e-14,	 3.0000000000000028e+02,	 1.0000000000000010e+03,	 3.4760788074254782e+02,	 4.9941330337264436e+00 
2.3022067500000001e-01,	 1.9349329999999998e-01,	 1.1586407740522199e-02,	 1.7360000000000000e+03,	 6.6569296066967628e-14,	 3.0000000000000006e+02,	 1.0000000000000002e+03,	 3.4760788074254771e+02,	 4.9941330337264445e+00 
2.3450565000000001e-01,	 1.9400267499999999e-01,	 1.1586407740522199e-02,	 1.7360000000000000e+03,	 4.7751386353322010e-14,	 3.0000000000000000e+02,	 1.0000000000000000e+03,	 3.4760788074254771e+02,	 4.9941330337264445e+00 
2.3879062499999998e-01,	 1.9451205000000002e-01,	 1.1586407740522199e-02,	 1.7360000000000000e+03,	 1.7242086812440738e-14,	 3.0000000000000000e+02,	 1.0000000000000000e+03,	 3.4760788074254771e+02,	 4.9941330337264445e+00 
2.4307560000000000e-01,	 1.9502144999999999e-01,	 1.1586407740522199e-02,	 1.7360000000000000e+03,	 -1.1637602100051655e-14,	 2.9999999999999955e+02,	 9.9999999999999852e+02,	 3.4760788074254742e+02,	 4.9941330337264489e+00 
2.4736057500000000e-01,	 1.9553085000000001e-01,	 1.1586407740522199e-02,	 1.7360000000000000e+03,	 -1.8025963937907680e-14,	 2.9999999999999983e+02,	 9.9999999999999943e+02,	 3.4760788074254759e+02,	 4.9941330337264462e+00 
2.5164552499999998e-01,	 1.9604022499999998e-01,	 1.1586407740522199e-02,	 1.7360000000000000e+03,	 -4.2510279900760024e-14,	 3.0000000000000000e+02,	 1.0000000000000000e+03,	 3.4760788074254771e+02,	 4.9941330337264445e+00 
2.5593052500000002e-01,	 1.9654962499999998e-01,	 1.1586407740522199e-02,	 1.7360000000000000e+03,	 -2.4499101888378098e-14,	 3.0000000000000000e+02,	 1.0000000000000000e+03,	 3.4760788074254771e+02,	 4.9941330337264445e+00 
2.6021552500000000e-01,	 1.9705902499999997e-01,	 1.1586407740522199e-02,	 1.7360000000000000e+03,	 -3.7013594851462554e-14,	 3.0000000000000000e+02,	 1.0000000000000000e+03,	 3.4760788074254771e+02,	 4.9941330337264445e+00 
2.6450049999999997e-01,	 1.9756839999999998e-01,	 1.1586407740522199e-02,	 1.7360000000000000e+03,	 -8.1692030268828881e-14,	 3.0000000000000000e+02,	 1.0000000000000000e+03,	 3.4760788074254771e+02,	 4.9941330337264445e+00 
2.6878547500000000e-01,	 1.9807777499999998e-01,	 1.1586407740522199e-02,	 1.7360000000000000e+03,	 -9.2258471453531123e-14,	 3.0000000000000006e+02,	 1.0000000000000002e+03,	 3.4760788074254771e+02,	 4.9941330337264445e+00 
2.7307045000000002e-01,	 1.9858717500000000e-01,	 1.1586407740522199e-02,	 1.7360000000000000e+03,	 -8.4595124153695873e-14,	 2.9999999999999955e+02,	 9.9999999999999852e+02,	 3.4760788074254742e+02,	 4.9941330337264489e+00 
2.7735542499999999e-01,	 1.9909657500000000e-01,	 1.1586407740522199e-02,	 1.7360000000000000e+03,	 -9.9178649871266549e-14,	 2.9999999999999977e+02,	 9.9999999999999932e+02,	 3.4760788074254754e+02,	 4.9941330337264471e+00 
2.8164040000000001e-01,	 1.9960595000000000e-01,	 1.1586407740522199e-02,	 1.7360000000000000e+03,	 -2.8097953525819671e-14,	 3.0000000000000006e+02,	 1.0000000000000002e+03,	 3.4760788074254771e+02,	 4.9941330337264445e+00 
2.8592537500000004e-01,	 2.0011535000000000e-01,	 1.1586407740522199e-02,	 1.7360000000000000e+03,	 -2.5280110282130053e-15,	 3.0000000000000034e+02,	 1.0000000000000011e+03,	 3.4760788074254788e+02,	 4.9941330337264427e+00 
2.9021035000000001e-01,	 2.0062474999999999e-01,	 1.1586407740522199e-02,	 1.7360000000000000e+03,	 5.4309680783784533e-15,	 2.9999999999999994e+02,	 9.9999999999999989e+02,	 3.4760788074254765e+02,	 4.9941330337264453e+00 
2.9449532499999997e-01,	 2.0113412500000000e-01,	 1.1586407740522199e-02,	 1.7360000000000000e+03,	 -4.3560490634207806e-15,	 3.0000000000000000e+02,	 1.0000000000000000e+03,	 3.4760788074254771e+02,	 4.9941330337264445e+00 
2.9878030000000000e-01,	 2.0164349999999998e-01,	 1.1586407740522199e-02,	 1.7360000000000000e+03,	 6.9150211202555167e-15,	 3.0000000000000000e+02,	 1.0000000000000000e+03,	 3.4760788074254771e+02,	 4.9941330337264445e+00 
3.0306529999999998e-01,	 2.0215290000000000e-01,	 1.1586407740522199e-02,	 1.7360000000000000e+03,	 -3.1382795328985778e-14,	 2.9999999999999966e+02,	 9.9999999999999886e+02,	 3.4760788074254748e+02,	 4.9941330337264480e+00 
3.0735027500000001e-01,	 2.0266229999999999e-01,	 1.1586407740522199e-02,	 1.7360000000000000e+03,	 -2.1954142046133333e-14,	 3.0000000000000000e+02,	 1.0000000000000000e+03,	 3.4760788074254771e+02,	 4.9941330337264445e+00 
3.1163525000000003e-01,	 2.0317169999999996e-01,	 1.1586407740522199e-02,	 1.7360000000000000e+03,	 -9.1721684410276739e-15,	 3.0000000000000011e+02,	 1.0000000000000005e+03,	 3.4760788074254776e+02,	 4.9941330337264436e+00 
3.1592022500000000e-01,	 2.0368110000000000e-01,	 1.1586407740522199e-02,	 1.7360000000000000e+03,	 -1.7291437956267635e-14,	 3.0000000000000000e+02,	 1.0000000000000000e+03,	 3.4760788074254771e+02,	 4.9941330337264445e+00 
3.2020520000000002e-01,	 2.0419050000000000e-01,	 1.1586407740522199e-02,	 1.7360000000000000e+03,	 -2.0659865470022496e-14,	 3.0000000000000000e+02,	 1.0000000000000000e+03,	 3.4760788074254771e+02,	 4.9941330337264445e+00 
3.2449017499999999e-01,	 2.0469987500000000e-01,	 1.1586407740522199e-02,	 1.7360000000000000e+03,	 8.8792836301466559e-15,	 3.0000000000000034e+02,	 1.0000000000000011e+03,	 3.4760788074254788e+02,	 4.9941330337264427e+00 
3.2877515000000002e-01,	 2.0520924999999998e-01,	 1.1586407740522199e-02,	 1.7360000000000000e+03,	 1.4098730872446916e-14,	 3.0000000000000000e+02,	 1.0000000000000000e+03,	 3.4760788074254771e+02,	 4.9941330337264445e+00 
3.3306012499999998e-01,	 2.0571864999999998e-01,	 1.1586407740522199e-02,	 1.7360000000000000e+03,	 2.6046867945243914e-14,	 3.0000000000000006e+02,	 1.0000000000000002e+03,	 3.4760788074254771e+02,	 4.9941330337264445e+00 
3.3734512500000002e-01,	 2.0622804999999997e-01,	 1.1586407740522199e-02,	 1.7360000000000000e+03,	 2.5749496566306760e-14,	 2.9999999999999983e+02,	 9.9999999999999943e+02,	 3.4760788074254759e+02,	 4.9941330337264462e+00 
3.4163012500000001e-01,	 2.0673742500000000e-01,	 1.1586407740522199e-02,	 1.7360000000000000e+03,	 2.8820649597294447e-14,	 3.0000000000000000e+02,	 1.0000000000000000e+03,	 3.4760788074254771e+02,	 4.9941330337264445e+00 
3.4591509999999998e-01,	 2.0724682499999997e-01,	 1.1586407740522199e-02,	 1.7360000000000000e+03,	 1.4641056113596368e-14,	 3.0000000000000000e+02,	 1.0000000000000000e+03,	 3.4760788074254771e+02,	 4.9941330337264445e+00 
3.5020007499999994e-01,	 2.0775622499999999e-01,	 1.1586407740522199e-02,	 1.7360000000000000e+03,	 2.6359140933084849e-15,	 3.0000000000000000e+02,	 1.0000000000000000e+03,	 3.4760788074254771e+02,	 4.9941330337264445e+00 
3.5448502500000001e-01,	 2.0826560000000000e-01,	 1.1586407740522199e-02,	 1.7360000000000000e+03,	 1.4353063228314626e-14,	 3.0000000000000006e+02,	 1.0000000000000002e+03,	 3.4760788074254771e+02,	 4.9941330337264445e+00 
3.5876999999999998e-01,	 2.0877497499999997e-01,	 1.1586407740522199e-02,	 1.7360000000000000e+03,	 -4.1676799522471546e-15,	 2.9999999999999994e+02,	 9.9999999999999989e+02,	 3.4760788074254765e+02,	 4.9941330337264453e+00 
3.6305497500000006e-01,	 2.0928437499999999e-01,	 1.1586407740522199e-02,	 1.7360000000000000e+03,	 9.5018812980563882e-15,	 3.0000000000000006e+02,	 1.0000000000000002e+03,	 3.4760788074254771e+02,	 4.9941330337264445e+00 
3.6733994999999997e-01,	 2.0979377499999999e-01,	 1.1586407740522199e-02,	 1.7360000000000000e+03,	 6.1005496060846098e-15,	 2.9999999999999983e+02,	 9.9999999999999943e+02,	 3.4760788074254759e+02,	 4.9941330337264462e+00 
3.7162492499999999e-01,	 2.1030314999999999e-01,	 1.1586407740522199e-02,	 1.7360000000000000e+03,	 4.2076346570188963e-15,	 2.9999999999999983e+02,	 9.9999999999999943e+02,	 3.4760788074254759e+02,	 4.9941330337264462e+00 
3.7590990000000002e-01,	 2.1081254999999999e-01,	 1.1586407740522199e-02,	 1.7360000000000000e+03,	 -4.2596890402639517e-14,	 2.9999999999999955e+02,	 9.9999999999999852e+02,	 3.4760788074254742e+02,	 4.9941330337264489e+00 
3.8019490000000000e-01,	 2.1132194999999998e-01,	 1.1586407740522199e-02,	 1.7360000000000000e+03,	 -7.5464507541345715e-14,	 2.9999999999999955e+02,	 9.9999999999999852e+02,	 3.4760788074254742e+02,	 4.9941330337264489e+00 
3.8447989999999999e-01,	 2.1183132499999999e-01,	 1.1586407740522199e-02,	 1.7360000000000000e+03,	 -9.9666846524733468e-14,	 2.9999999999999989e+02,	 9.9999999999999966e+02,	 3.4760788074254759e+02,	 4.9941330337264462e+00 
3.8876487500000001e-01,	 2.1234070000000002e-01,	 1.1586407740522199e-02,	 1.7360000000000000e+03,	 -1.4612862514073364e-13,	 2.9999999999999983e+02,	 9.9999999999999943e+02,	 3.4760788074254759e+02,	 4.9941330337264462e+00 
3.9304984999999998e-01,	 2.1285009999999999e-01,	 1.1586407740522199e-02,	 1.7360000000000000e+03,	 -1.4118138444338109e-13,	 2.9999999999999983e+02,	 9.9999999999999943e+02,	 3.4760788074254759e+02,	 4.9941330337264462e+00 
3.9733482499999995e-01,	 2.1335950000000001e-01,	 1.1586407740522199e-02,	 1.7360000000000000e+03,	 -1.5806283197276209e-13,	 2.9999999999999955e+02,	 9.9999999999999852e+02,	 3.4760788074254742e+02,	 4.9941330337264489e+00 
4.0161977500000001e-01,	 2.1386890000000000e-01,	 1.1586407740522199e-02,	 1.7360000000000000e+03,	 -1.4372973337684272e-13,	 3.0000000000000000e+02,	 1.0000000000000000e+03,	 3.4760788074254771e+02,	 4.9941330337264445e+00 
4.0590475000000004e-01,	 2.1437829999999999e-01,	 1.1586407740522199e-02,	 1.7360000000000000e+03,	 -9.9825898573055720e-14,	 2.9999999999999983e+02,	 9.9999999999999943e+02,	 3.4760788074254759e+02,	 4.9941330337264462e+00 
4.1018972500000006e-01,	 2.1488769999999999e-01,	 1.1586407740522199e-02,	 1.7360000000000000e+03,	 -3.5498379978399728e-14,	 2.9999999999999994e+02,	 9.9999999999999989e+02,	 3.4760788074254765e+02,	 4.9941330337264453e+00 
4.1447469999999997e-01,	 2.1539707499999999e-01,	 1.1586407740522199e-02,	 1.7360000000000000e+03,	 1.4210867472721635e-13,	 3.0000000000000000e+02,	 1.0000000000000000e+03,	 3.4760788074254771e+02,	 4.9941330337264445e+00 
4.1875970000000001e-01,	 2.1590644999999997e-01,	 1.1586407740522199e-02,	 1.7360000000000000e+03,	 5.6335691414862051e-13,	 3.0000000000000034e+02,	 1.0000000000000011e+03,	 3.4760788074254788e+02,	 4.9941330337264427e+00 
4.2304470000000005e-01,	 2.1641584999999999e-01,	 1.1586407740522213e-02,	 1.7360000000000000e+03,	 1.5703248790318240e-12,	 3.0000000000000085e+02,	 1.0000000000000041e+03,	 3.4760788074254816e+02,	 4.9941330337264382e+00 
4.2732967499999996e-01,	 2.1692525000000001e-01,	 1.1586407740522260e-02,	 1.7360000000000000e+03,	 3.9253558685698289e-12,	 3.0000000000000159e+02,	 1.0000000000000107e+03,	 3.4760788074254862e+02,	 4.9941330337264320e+00 
4.3161464999999999e-01,	 2.1743462499999999e-01,	 1.1586407740522369e-02,	 1.7360000000000000e+03,	 9.0819809906709898e-12,	 3.0000000000000398e+02,	 1.0000000000000280e+03,	 3.4760788074254998e+02,	 4.9941330337264125e+00 
4.3589962500000001e-01,	 2.1794402500000001e-01,	 1.1586407740522636e-02,	 1.7359999999999980e+03,	 2.0368416426839074e-11,	 3.0000000000000932e+02,	 1.0000000000000688e+03,	 3.4760788074255311e+02,	 4.9941330337263610e+00 
4.4018459999999998e-01,	 2.1845342500000001e-01,	 1.1586407740523212e-02,	 1.7359999999999927e+03,	 4.4134723154243787e-11,	 3.0000000000002041e+02,	 1.0000000000001556e+03,	 3.4760788074255947e+02,	 4.9941330337262544e+00 
4.4446957499999995e-01,	 2.1896279999999999e-01,	 1.1586407740524442e-02,	 1.7359999999999804e+03,	 9.3871035774924115e-11,	 3.0000000000004383e+02,	 1.0000000000003397e+03,	 3.4760788074257306e+02,	 4.9941330337260244e+00 
4.4875452500000002e-01,	 2.1947217499999999e-01,	 1.1586407740527006e-02,	 1.7359999999999532e+03,	 1.9659317175297361e-10,	 3.0000000000009288e+02,	 1.0000000000007245e+03,	 3.4760788074260148e+02,	 4.9941330337255376e+00 
4.5303950000000004e-01,	 2.1998157499999998e-01,	 1.1586407740532266e-02,	 1.7359999999998965e+03,	 4.0665156915916781e-10,	 3.0000000000019270e+02,	 1.0000000000015112e+03,	 3.4760788074265929e+02,	 4.9941330337245438e+00 
4.5732447499999995e-01,	 2.2049097499999998e-01,	 1.1586407740542969e-02,	 1.7359999999997804e+03,	 8.3242268535144234e-10,	 3.0000000000039483e+02,	 1.0000000000031089e+03,	 3.4760788074277644e+02,	 4.9941330337225267e+00 
4.6160947499999999e-01,	 2.2100034999999996e-01,	 1.1586407740564530e-02,	 1.7359999999995464e+03,	 1.6882812804824763e-09,	 3.0000000000080058e+02,	 1.0000000000063221e+03,	 3.4760788074301149e+02,	 4.9941330337184766e+00 
4.6589447500000003e-01,	 2.2150975000000001e-01,	 1.1586407740607626e-02,	 1.7359999999990785e+03,	 3.3949823969685970e-09,	 3.0000000000160964e+02,	 1.0000000000127385e+03,	 3.4760788074348022e+02,	 4.9941330337103960e+00 
4.7017944999999994e-01,	 2.2201914999999997e-01,	 1.1586407740693186e-02,	 1.7359999999981510e+03,	 6.7763491301956817e-09,	 3.0000000000321074e+02,	 1.0000000000254601e+03,	 3.4760788074440779e+02,	 4.9941330336944016e+00 
4.7446442499999997e-01,	 2.2252852499999998e-01,	 1.1586407740861809e-02,	 1.7359999999963270e+03,	 1.3427863485441640e-08,	 3.0000000000635748e+02,	 1.0000000000505028e+03,	 3.4760788074623088e+02,	 4.9941330336629619e+00 
4.7874939999999999e-01,	 2.2303789999999998e-01,	 1.1586407741192045e-02,	 1.7359999999927634e+03,	 2.6431005043518765e-08,	 3.0000000001250362e+02,	 1.0000000000994919e+03,	 3.4760788074979160e+02,	 4.9941330336015524e+00 
4.8303437499999996e-01,	 2.2354729999999998e-01,	 1.1586407741834530e-02,	 1.7359999999858471e+03,	 5.1685004215674339e-08,	 3.0000000002442994e+02,	 1.0000000001946979e+03,	 3.4760788075670109e+02,	 4.9941330334823864e+00 
4.8731935000000004e-01,	 2.2405669999999997e-01,	 1.1586407743078023e-02,	 1.7359999999724969e+03,	 1.0047705438194787e-07,	 3.0000000004744851e+02,	 1.0000000003787499e+03,	 3.4760788077003679e+02,	 4.9941330332523837e+00 
4.9160432499999995e-01,	 2.2456609999999999e-01,	 1.1586407745470191e-02,	 1.7359999999468810e+03,	 1.9417870216398448e-07,	 3.0000000009161397e+02,	 1.0000000007324314e+03,	 3.4760788079562388e+02,	 4.9941330328110789e+00 
4.9588929999999998e-01,	 2.2507549999999998e-01,	 1.1586407750046695e-02,	 1.7359999998979958e+03,	 3.7314183174614851e-07,	 3.0000000017589667e+02,	 1.0000000014083628e+03,	 3.4760788084445278e+02,	 4.9941330319689134e+00 
5.0017429999999996e-01,	 2.2558489999999998e-01,	 1.1586407758761562e-02,	 1.7359999998051549e+03,	 7.1335830526464588e-07,	 3.0000000033596183e+02,	 1.0000000026940762e+03,	 3.4760788093718600e+02,	 4.9941330303695164e+00 
5.0445927499999998e-01,	 2.2609427499999998e-01,	 1.1586407775270431e-02,	 1.7359999996297320e+03,	 1.3567707866044893e-06,	 3.0000000063840321e+02,	 1.0000000051270622e+03,	 3.4760788111240430e+02,	 4.9941330273474724e+00 
5.0874425000000001e-01,	 2.2660364999999999e-01,	 1.1586407806395799e-02,	 1.7359999992998532e+03,	 2.5678247976708525e-06,	 3.0000000120713526e+02,	 1.0000000097092047e+03,	 3.4760788144189723e+02,	 4.9941330216646032e+00 
5.1302922500000003e-01,	 2.2711304999999998e-01,	 1.1586407864786040e-02,	 1.7359999986825105e+03,	 4.8360478939813096e-06,	 3.0000000227147183e+02,	 1.0000000182965399e+03,	 3.4760788205851685e+02,	 4.9941330110295645e+00 
5.1731419999999995e-01,	 2.2762245000000000e-01,	 1.1586407973917405e-02,	 1.7359999975317583e+03,	 9.0684041697294890e-06,	 3.0000000425543652e+02,	 1.0000000343286687e+03,	 3.4760788320791977e+02,	 4.9941329912054364e+00 
5.2159917499999997e-01,	 2.2813182499999998e-01,	 1.1586408176923205e-02,	 1.7359999953964989e+03,	 1.6928649813053648e-05,	 3.0000000793674832e+02,	 1.0000000641207389e+03,	 3.4760788534067478e+02,	 4.9941329544211115e+00 
5.2588414999999999e-01,	 2.2864122499999998e-01,	 1.1586408552954760e-02,	 1.7359999914510358e+03,	 3.1465023670353280e-05,	 3.0000001473895509e+02,	 1.0000001192493057e+03,	 3.4760788928150913e+02,	 4.9941328864522463e+00 
5.3016912499999991e-01,	 2.2915062499999997e-01,	 1.1586409246978376e-02,	 1.7359999841878275e+03,	 5.8251054574476430e-05,	 3.0000002726114468e+02,	 1.0000002208897556e+03,	 3.4760789653619520e+02,	 4.9941327613282942e+00 
5.3445409999999993e-01,	 2.2965999999999998e-01,	 1.1586410522618997e-02,	 1.7359999708720277e+03,	 1.0740498354669890e-04,	 3.0000005021834613e+02,	 1.0000004075118148e+03,	 3.4760790983636792e+02,	 4.9941325319358567e+00 
5.3873907499999996e-01,	 2.3016937500000001e-01,	 1.1586412858601647e-02,	 1.7359999465477304e+03,	 1.9727525626259571e-04,	 3.0000009215482038e+02,	 1.0000007489142131e+03,	 3.4760793413211326e+02,	 4.9941321128992140e+00 
2.1602867500000000e-01,	 1.9664912500000001e-01,	 1.1586407740522199e-02,	 1.7360000000000000e+03,	 7.1837566637120237e-14,	 2.9999999999999983e+02,	 9.9999999999999943e+02,	 3.4760788074254759e+02,	 4.9941330337264462e+00 
2.2032272500000000e-01,	 1.9713687499999999e-01,	 1.1586407740522199e-02,	 1.7360000000000000e+03,	 5.5828331036658718e-14,	 2.9999999999999955e+02,	 9.9999999999999852e+02,	 3.4760788074254742e+02,	 4.9941330337264489e+00 
2.2461677499999999e-01,	 1.9762459999999998e-01,	 1.1586407740522199e-02,	 1.7360000000000000e+03,	 7.8472677344904477e-15,	 3.0000000000000006e+02,	 1.0000000000000002e+03,	 3.4760788074254771e+02,	 4.9941330337264445e+00 
2.2891082499999998e-01,	 1.9811229999999999e-01,	 1.1586407740522199e-02,	 1.7360000000000000e+03,	 1.5046612775925329e-14,	 3.0000000000000006e+02,	 1.0000000000000002e+03,	 3.4760788074254771e+02,	 4.9941330337264445e+00 
2.3320484999999999e-01,	 1.9859999999999997e-01,	 1.1586407740522199e-02,	 1.7360000000000000e+03,	 -2.8449620659867184e-14,	 2.9999999999999989e+02,	 9.9999999999999966e+02,	 3.4760788074254759e+02,	 4.9941330337264462e+00 
2.3749887499999997e-01,	 1.9908772499999997e-01,	 1.1586407740522199e-02,	 1.7360000000000000e+03,	 -4.9816757565532723e-14,	 3.0000000000000006e+02,	 1.0000000000000002e+03,	 3.4760788074254771e+02,	 4.9941330337264445e+00 
2.4179292499999999e-01,	 1.9957544999999999e-01,	 1.1586407740522199e-02,	 1.7360000000000000e+03,	 -1.7218976735067193e-15,	 2.9999999999999989e+02,	 9.9999999999999966e+02,	 3.4760788074254759e+02,	 4.9941330337264462e+00 
2.4608697499999999e-01,	 2.0006315000000000e-01,	 1.1586407740522199e-02,	 1.7360000000000000e+03,	 -2.3129063199259048e-14,	 2.9999999999999983e+02,	 9.9999999999999943e+02,	 3.4760788074254759e+02,	 4.9941330337264462e+00 
2.5038099999999996e-01,	 2.0055085000000000e-01,	 1.1586407740522199e-02,	 1.7360000000000000e+03,	 -1.6956743017449348e-14,	 3.0000000000000017e+02,	 1.0000000000000006e+03,	 3.4760788074254776e+02,	 4.9941330337264436e+00 
2.5467505000000001e-01,	 2.0103857500000000e-01,	 1.1586407740522199e-02,	 1.7360000000000000e+03,	 -2.7751792498182752e-14,	 2.9999999999999983e+02,	 9.9999999999999943e+02,	 3.4760788074254759e+02,	 4.9941330337264462e+00 
2.5896912500000002e-01,	 2.0152629999999999e-01,	 1.1586407740522199e-02,	 1.7360000000000000e+03,	 -3.5472096865358610e-14,	 3.0000000000000006e+02,	 1.0000000000000002e+03,	 3.4760788074254771e+02,	 4.9941330337264445e+00 
2.6326317500000002e-01,	 2.0201400000000000e-01,	 1.1586407740522199e-02,	 1.7360000000000000e+03,	 5.4737390914299992e-14,	 3.0000000000000051e+02,	 1.0000000000000017e+03,	 3.4760788074254799e+02,	 4.9941330337264409e+00 
2.6755720000000005e-01,	 2.0250169999999998e-01,	 1.1586407740522199e-02,	 1.7360000000000000e+03,	 4.0896450587447774e-14,	 3.0000000000000034e+02,	 1.0000000000000011e+03,	 3.4760788074254788e+02,	 4.9941330337264427e+00 
2.7185122499999997e-01,	 2.0298942499999997e-01,	 1.1586407740522199e-02,	 1.7360000000000000e+03,	 3.3291699756970351e-14,	 2.9999999999999989e+02,	 9.9999999999999966e+02,	 3.4760788074254759e+02,	 4.9941330337264462e+00 
2.7614527499999997e-01,	 2.0347715000000000e-01,	 1.1586407740522199e-02,	 1.7360000000000000e+03,	 2.1081316426273028e-14,	 3.0000000000000000e+02,	 1.0000000000000000e+03,	 3.4760788074254771e+02,	 4.9941330337264445e+00 
2.8043932499999996e-01,	 2.0396485000000000e-01,	 1.1586407740522199e-02,	 1.7360000000000000e+03,	 -1.4796086038944370e-14,	 2.9999999999999955e+02,	 9.9999999999999852e+02,	 3.4760788074254742e+02,	 4.9941330337264489e+00 
2.8473335000000000e-01,	 2.0445255000000001e-01,	 1.1586407740522199e-02,	 1.7360000000000000e+03,	 -1.6602154051653786e-14,	 3.0000000000000000e+02,	 1.0000000000000000e+03,	 3.4760788074254771e+02,	 4.9941330337264445e+00 
2.8902737499999998e-01,	 2.0494027500000001e-01,	 1.1586407740522199e-02,	 1.7360000000000000e+03,	 -1.9834498915311781e-14,	 3.0000000000000000e+02,	 1.0000000000000000e+03,	 3.4760788074254771e+02,	 4.9941330337264445e+00 
2.9332142500000002e-01,	 2.0542800000000000e-01,	 1.1586407740522199e-02,	 1.7360000000000000e+03,	 -1.4561481963792961e-14,	 3.0000000000000000e+02,	 1.0000000000000000e+03,	 3.4760788074254771e+02,	 4.9941330337264445e+00 
2.9761550000000003e-01,	 2.0591569999999998e-01,	 1.1586407740522199e-02,	 1.7360000000000000e+03,	 -1.4601790498460789e-14,	 3.0000000000000000e+02,	 1.0000000000000000e+03,	 3.4760788074254771e+02,	 4.9941330337264445e+00 
3.0190955000000003e-01,	 2.0640339999999999e-01,	 1.1586407740522199e-02,	 1.7360000000000000e+03,	 -4.3572329227167008e-14,	 3.0000000000000000e+02,	 1.0000000000000000e+03,	 3.4760788074254771e+02,	 4.9941330337264445e+00 
3.0620357500000001e-01,	 2.0689112499999998e-01,	 1.1586407740522199e-02,	 1.7360000000000000e+03,	 -1.3609959118316674e-14,	 2.9999999999999983e+02,	 9.9999999999999943e+02,	 3.4760788074254759e+02,	 4.9941330337264462e+00 
3.1049762500000000e-01,	 2.0737887499999999e-01,	 1.1586407740522199e-02,	 1.7360000000000000e+03,	 -2.4783950008811243e-14,	 3.0000000000000000e+02,	 1.0000000000000000e+03,	 3.4760788074254771e+02,	 4.9941330337264445e+00 
3.1479167500000005e-01,	 2.0786659999999998e-01,	 1.1586407740522199e-02,	 1.7360000000000000e+03,	 -3.9265110267406091e-14,	 3.0000000000000000e+02,	 1.0000000000000000e+03,	 3.4760788074254771e+02,	 4.9941330337264445e+00 
3.1908569999999997e-01,	 2.0835429999999999e-01,	 1.1586407740522199e-02,	 1.7360000000000000e+03,	 -1.8426035684957241e-14,	 3.0000000000000000e+02,	 1.0000000000000000e+03,	 3.4760788074254771e+02,	 4.9941330337264445e+00 
3.2337972500000001e-01,	 2.0884199999999997e-01,	 1.1586407740522199e-02,	 1.7360000000000000e+03,	 -7.2473274711688448e-15,	 3.0000000000000000e+02,	 1.0000000000000000e+03,	 3.4760788074254771e+02,	 4.9941330337264445e+00 
3.2767377500000000e-01,	 2.0932972499999997e-01,	 1.1586407740522199e-02,	 1.7360000000000000e+03,	 -1.7082270629741441e-14,	 3.0000000000000000e+02,	 1.0000000000000000e+03,	 3.4760788074254771e+02,	 4.9941330337264445e+00 
3.3196782499999999e-01,	 2.0981744999999996e-01,	 1.1586407740522199e-02,	 1.7360000000000000e+03,	 -1.8592386786175833e-14,	 2.9999999999999989e+02,	 9.9999999999999966e+02,	 3.4760788074254759e+02,	 4.9941330337264462e+00 
3.3626187499999999e-01,	 2.1030515000000000e-01,	 1.1586407740522199e-02,	 1.7360000000000000e+03,	 -2.6694554207264887e-14,	 2.9999999999999977e+02,	 9.9999999999999932e+02,	 3.4760788074254754e+02,	 4.9941330337264471e+00 
3.4055592499999998e-01,	 2.1079285000000000e-01,	 1.1586407740522199e-02,	 1.7360000000000000e+03,	 -2.3109484140420858e-14,	 2.9999999999999989e+02,	 9.9999999999999966e+02,	 3.4760788074254759e+02,	 4.9941330337264462e+00 
3.4484997499999992e-01,	 2.1128057500000000e-01,	 1.1586407740522199e-02,	 1.7360000000000000e+03,	 -1.8766338844594201e-14,	 3.0000000000000000e+02,	 1.0000000000000000e+03,	 3.4760788074254771e+02,	 4.9941330337264445e+00 
3.4914402499999997e-01,	 2.1176829999999999e-01,	 1.1586407740522199e-02,	 1.7360000000000000e+03,	 -2.3624731450231123e-14,	 3.0000000000000000e+02,	 1.0000000000000000e+03,	 3.4760788074254771e+02,	 4.9941330337264445e+00 
3.5343804999999995e-01,	 2.1225599999999997e-01,	 1.1586407740522199e-02,	 1.7360000000000000e+03,	 -2.2590092628322474e-14,	 3.0000000000000000e+02,	 1.0000000000000000e+03,	 3.4760788074254771e+02,	 4.9941330337264445e+00 
3.5773207499999998e-01,	 2.1274369999999998e-01,	 1.1586407740522199e-02,	 1.7360000000000000e+03,	 -2.3777992061333098e-14,	 3.0000000000000000e+02,	 1.0000000000000000e+03,	 3.4760788074254771e+02,	 4.9941330337264445e+00 
3.6202612499999998e-01,	 2.1323142499999997e-01,	 1.1586407740522199e-02,	 1.7360000000000000e+03,	 -3.0565439290219071e-14,	 3.0000000000000000e+02,	 1.0000000000000000e+03,	 3.4760788074254771e+02,	 4.9941330337264445e+00 
3.6632017500000003e-01,	 2.1371914999999997e-01,	 1.1586407740522199e-02,	 1.7360000000000000e+03,	 -2.2439232022045822e-14,	 2.9999999999999983e+02,	 9.9999999999999943e+02,	 3.4760788074254759e+02,	 4.9941330337264462e+00 
3.7061420000000000e-01,	 2.1420684999999998e-01,	 1.1586407740522199e-02,	 1.7360000000000000e+03,	 -4.2778539900072824e-14,	 2.9999999999999983e+02,	 9.9999999999999943e+02,	 3.4760788074254759e+02,	 4.9941330337264462e+00 
3.7490822500000004e-01,	 2.1469454999999998e-01,	 1.1586407740522199e-02,	 1.7360000000000000e+03,	 -4.6312359031977346e-14,	 3.0000000000000000e+02,	 1.0000000000000000e+03,	 3.4760788074254771e+02,	 4.9941330337264445e+00 
3.7920229999999999e-01,	 2.1518227500000001e-01,	 1.1586407740522199e-02,	 1.7360000000000000e+03,	 -5.1004178654178048e-14,	 2.9999999999999994e+02,	 9.9999999999999989e+02,	 3.4760788074254765e+02,	 4.9941330337264453e+00 
3.8349637500000000e-01,	 2.1567000000000000e-01,	 1.1586407740522199e-02,	 1.7360000000000000e+03,	 -6.1038913961934916e-14,	 3.0000000000000006e+02,	 1.0000000000000002e+03,	 3.4760788074254771e+02,	 4.9941330337264445e+00 
3.8779039999999998e-01,	 2.1615769999999998e-01,	 1.1586407740522199e-02,	 1.7360000000000000e+03,	 -8.6364758087531967e-14,	 3.0000000000000034e+02,	 1.0000000000000011e+03,	 3.4760788074254788e+02,	 4.9941330337264427e+00 
3.9208442499999996e-01,	 2.1664539999999999e-01,	 1.1586407740522199e-02,	 1.7360000000000000e+03,	 -1.3401534427079219e-13,	 2.9999999999999989e+02,	 9.9999999999999966e+02,	 3.4760788074254759e+02,	 4.9941330337264462e+00 
3.9637847500000001e-01,	 2.1713312499999998e-01,	 1.1586407740522199e-02,	 1.7360000000000000e+03,	 -1.0575691456585011e-13,	 2.9999999999999994e+02,	 9.9999999999999989e+02,	 3.4760788074254765e+02,	 4.9941330337264453e+00 
4.0067252500000000e-01,	 2.1762087499999999e-01,	 1.1586407740522199e-02,	 1.7360000000000000e+03,	 -6.8838095295762125e-14,	 3.0000000000000000e+02,	 1.0000000000000000e+03,	 3.4760788074254771e+02,	 4.9941330337264445e+00 
4.0496657500000000e-01,	 2.1810859999999999e-01,	 1.1586407740522199e-02,	 1.7360000000000000e+03,	 -6.3686701936415493e-14,	 3.0000000000000000e+02,	 1.0000000000000000e+03,	 3.4760788074254771e+02,	 4.9941330337264445e+00 
4.0926059999999997e-01,	 2.1859629999999999e-01,	 1.1586407740522199e-02,	 1.7360000000000000e+03,	 -5.2301447405995841e-14,	 3.0000000000000000e+02,	 1.0000000000000000e+03,	 3.4760788074254771e+02,	 4.9941330337264445e+00 
4.1355462500000001e-01,	 2.1908400000000000e-01,	 1.1586407740522199e-02,	 1.7360000000000000e+03,	 -3.3053826130527451e-14,	 3.0000000000000000e+02,	 1.0000000000000000e+03,	 3.4760788074254771e+02,	 4.9941330337264445e+00 
4.1784869999999996e-01,	 2.1957172500000000e-01,	 1.1586407740522199e-02,	 1.7360000000000000e+03,	 9.7583506254231801e-15,	 3.0000000000000000e+02,	 1.0000000000000000e+03,	 3.4760788074254771e+02,	 4.9941330337264445e+00 
4.2214277499999997e-01,	 2.2005945000000002e-01,	 1.1586407740522199e-02,	 1.7360000000000000e+03,	 1.1833333368619987e-13,	 3.0000000000000000e+02,	 1.0000000000000000e+03,	 3.4760788074254771e+02,	 4.9941330337264445e+00 
4.2643680000000000e-01,	 2.2054714999999997e-01,	 1.1586407740522199e-02,	 1.7360000000000000e+03,	 3.7132877745542879e-13,	 3.0000000000000000e+02,	 1.0000000000000000e+03,	 3.4760788074254771e+02,	 4.9941330337264445e+00 
4.3073082499999998e-01,	 2.2103484999999998e-01,	 1.1586407740522204e-02,	 1.7360000000000000e+03,	 1.0504204659014823e-12,	 3.0000000000000034e+02,	 1.0000000000000017e+03,	 3.4760788074254788e+02,	 4.9941330337264427e+00 
4.3502487500000003e-01,	 2.2152257499999997e-01,	 1.1586407740522237e-02,	 1.7360000000000000e+03,	 2.6836007661778349e-12,	 3.0000000000000051e+02,	 1.0000000000000051e+03,	 3.4760788074254799e+02,	 4.9941330337264409e+00 
4.3931892500000003e-01,	 2.2201029999999999e-01,	 1.1586407740522315e-02,	 1.7360000000000000e+03,	 6.4104277256193281e-12,	 3.0000000000000267e+02,	 1.0000000000000191e+03,	 3.4760788074254924e+02,	 4.9941330337264231e+00 
4.4361295000000006e-01,	 2.2249800000000000e-01,	 1.1586407740522501e-02,	 1.7359999999999993e+03,	 1.4550699628860592e-11,	 3.0000000000000625e+02,	 1.0000000000000470e+03,	 3.4760788074255129e+02,	 4.9941330337263912e+00 
4.4790697499999998e-01,	 2.2298570000000001e-01,	 1.1586407740522921e-02,	 1.7359999999999957e+03,	 3.1802942483947486e-11,	 3.0000000000001455e+02,	 1.0000000000001108e+03,	 3.4760788074255612e+02,	 4.9941330337263112e+00 
4.5220102499999992e-01,	 2.2347342500000000e-01,	 1.1586407740523811e-02,	 1.7359999999999870e+03,	 6.7671224137497354e-11,	 3.0000000000003138e+02,	 1.0000000000002437e+03,	 3.4760788074256584e+02,	 4.9941330337261469e+00 
4.5649507499999997e-01,	 2.2396115000000000e-01,	 1.1586407740525658e-02,	 1.7359999999999684e+03,	 1.4141973826304269e-10,	 3.0000000000006594e+02,	 1.0000000000005184e+03,	 3.4760788074258591e+02,	 4.9941330337258050e+00 