TITLE = "Final State"
VARIABLES = "X", "Y", "rho", "u", "v", "T", "p", "c", "M"
ZONE I=100, J=100, DATAPACKING=POINT
5.0000000000000001e-03,	 4.9999999999999998e-07,	 3.2540412712884320e-01,	 8.9696553589150532e-02,	 4.5368328191987023e-01,	 8.3797800711525827e+02,	 7.8448675397705971e+04,	 5.5550281476769692e+02,	 8.3251625896070493e-04 
1.5000000000000001e-02,	 4.9999999999999998e-07,	 3.2508032962546896e-01,	 5.7130632462633071e-02,	 3.8450952710683961e-01,	 8.5215609258691404e+02,	 7.9696597851078332e+04,	 5.6018249075324206e+02,	 6.9393566279502331e-04 
2.5000000000000001e-02,	 4.9999999999999998e-07,	 3.2519424275003611e-01,	 5.9529350355949244e-02,	 3.8942536822271279e-01,	 8.5251796004945118e+02,	 7.9758379720371639e+04,	 5.6030141867176644e+02,	 7.0310201923883453e-04 
3.5000000000000003e-02,	 4.9999999999999998e-07,	 3.2521917475009648e-01,	 5.9801701497788254e-02,	 3.9029454051595236e-01,	 8.5255070896554162e+02,	 7.9767558738295309e+04,	 5.6031218037344900e+02,	 7.0469542369675398e-04 
4.5000000000000005e-02,	 4.9999999999999998e-07,	 3.2522305931631162e-01,	 5.9842661881460937e-02,	 3.9042422621332235e-01,	 8.5255529822869562e+02,	 7.9768940910691119e+04,	 5.6031368844596398e+02,	 7.0493338169665869e-04 
5.4999999999999993e-02,	 4.9999999999999998e-07,	 3.2522357068002283e-01,	 5.9848203255187603e-02,	 3.9044075756494012e-01,	 8.5255588733980710e+02,	 7.9769121455191926e+04,	 5.6031388203279846e+02,	 7.0496379967916552e-04 
6.5000000000000002e-02,	 4.9999999999999998e-07,	 3.2522362842880492e-01,	 5.9848857010503326e-02,	 3.9044258744894222e-01,	 8.5255595300806340e+02,	 7.9769141763739186e+04,	 5.6031390361193201e+02,	 7.0496717742680082e-04 
7.5000000000000011e-02,	 4.9999999999999998e-07,	 3.2522363413180999e-01,	 5.9848924678659189e-02,	 3.9044276597459082e-01,	 8.5255595943393632e+02,	 7.9769143763777174e+04,	 5.6031390572352711e+02,	 7.0496750800702948e-04 
8.5000000000000006e-02,	 4.9999999999999998e-07,	 3.2522363463228859e-01,	 5.9848930903271445e-02,	 3.9044278153852580e-01,	 8.5255595999389811e+02,	 7.9769143938924579e+04,	 5.6031390590753529e+02,	 7.0496753691520254e-04 
9.5000000000000001e-02,	 4.9999999999999998e-07,	 3.2522363467181770e-01,	 5.9848931418155116e-02,	 3.9044278276497596e-01,	 8.5255596003787900e+02,	 7.9769143952735132e+04,	 5.6031390592198773e+02,	 7.0496753919984127e-04 
1.0500000000000001e-01,	 4.9999999999999998e-07,	 3.2522363467465598e-01,	 5.9848931456787796e-02,	 3.9044278285319922e-01,	 8.5255596004102335e+02,	 7.9769143953725492e+04,	 5.6031390592302103e+02,	 7.0496753936462331e-04 
1.1499999999999999e-01,	 4.9999999999999998e-07,	 3.2522363467484244e-01,	 5.9848931459470393e-02,	 3.9044278285897488e-01,	 8.5255596004123186e+02,	 7.9769143953790743e+04,	 5.6031390592308946e+02,	 7.0496753937545156e-04 
1.2500000000000000e-01,	 4.9999999999999998e-07,	 3.2522363467485355e-01,	 5.9848931459659853e-02,	 3.9044278285924938e-01,	 8.5255596004124300e+02,	 7.9769143953794512e+04,	 5.6031390592309322e+02,	 7.0496753937598227e-04 
1.3500000000000001e-01,	 4.9999999999999998e-07,	 3.2522363467485371e-01,	 5.9848931459670983e-02,	 3.9044278285928885e-01,	 8.5255596004124516e+02,	 7.9769143953794744e+04,	 5.6031390592309390e+02,	 7.0496753937605416e-04 
1.4500000000000002e-01,	 4.9999999999999998e-07,	 3.2522363467485471e-01,	 5.9848931459657882e-02,	 3.9044278285935274e-01,	 8.5255596004124266e+02,	 7.9769143953794759e+04,	 5.6031390592309310e+02,	 7.0496753937616420e-04 
1.5500000000000000e-01,	 4.9999999999999998e-07,	 3.2522363467485427e-01,	 5.9848931459676201e-02,	 3.9044278285925837e-01,	 8.5255596004124402e+02,	 7.9769143953794788e+04,	 5.6031390592309356e+02,	 7.0496753937600222e-04 
1.6500000000000001e-01,	 4.9999999999999998e-07,	 3.2522363467485482e-01,	 5.9848931459668069e-02,	 3.9044278285923339e-01,	 8.5255596004124288e+02,	 7.9769143953794817e+04,	 5.6031390592309310e+02,	 7.0496753937595647e-04 
1.7500000000000002e-01,	 4.9999999999999998e-07,	 3.2522363467485399e-01,	 5.9848931459666313e-02,	 3.9044278285933037e-01,	 8.5255596004124448e+02,	 7.9769143953794759e+04,	 5.6031390592309367e+02,	 7.0496753937612637e-04 
1.8500000000000000e-01,	 4.9999999999999998e-07,	 3.2522363467485443e-01,	 5.9848931459663024e-02,	 3.9044278285931389e-01,	 8.5255596004124300e+02,	 7.9769143953794730e+04,	 5.6031390592309322e+02,	 7.0496753937609698e-04 
1.9500000000000001e-01,	 4.9999999999999998e-07,	 3.2522363467485488e-01,	 5.9848931459666750e-02,	 3.9044278285939460e-01,	 8.5255596004124277e+02,	 7.9769143953794817e+04,	 5.6031390592309310e+02,	 7.0496753937624053e-04 
2.0500000000000002e-01,	 4.9999999999999998e-07,	 3.2522363467485471e-01,	 5.9848931459648202e-02,	 3.9044278285930745e-01,	 8.5255596004124186e+02,	 7.9769143953794686e+04,	 5.6031390592309276e+02,	 7.0496753937608224e-04 
2.1500000000000000e-01,	 4.9999999999999998e-07,	 3.2522363467485349e-01,	 5.9848931459650180e-02,	 3.9044278285929040e-01,	 8.5255596004124561e+02,	 7.9769143953794744e+04,	 5.6031390592309401e+02,	 7.0496753937605101e-04 
2.2500000000000001e-01,	 4.9999999999999998e-07,	 3.2522363467485516e-01,	 5.9848931459652255e-02,	 3.9044278285929740e-01,	 8.5255596004124186e+02,	 7.9769143953794803e+04,	 5.6031390592309276e+02,	 7.0496753937606554e-04 
2.3499999999999999e-01,	 4.9999999999999998e-07,	 3.2522363467485471e-01,	 5.9848931459669547e-02,	 3.9044278285937989e-01,	 8.5255596004124277e+02,	 7.9769143953794774e+04,	 5.6031390592309310e+02,	 7.0496753937621538e-04 
2.4500000000000000e-01,	 4.9999999999999998e-07,	 3.2522363467485377e-01,	 5.9848931459649951e-02,	 3.9044278285933909e-01,	 8.5255596004124482e+02,	 7.9769143953794730e+04,	 5.6031390592309378e+02,	 7.0496753937613710e-04 
2.5500000000000000e-01,	 4.9999999999999998e-07,	 3.2522363467485471e-01,	 5.9848931459663003e-02,	 3.9044278285935829e-01,	 8.5255596004124266e+02,	 7.9769143953794759e+04,	 5.6031390592309310e+02,	 7.0496753937617559e-04 
2.6500000000000001e-01,	 4.9999999999999998e-07,	 3.2522363467485471e-01,	 5.9848931459663753e-02,	 3.9044278285933565e-01,	 8.5255596004124311e+02,	 7.9769143953794803e+04,	 5.6031390592309322e+02,	 7.0496753937613558e-04 
2.7500000000000002e-01,	 4.9999999999999998e-07,	 3.2522363467485443e-01,	 5.9848931459664981e-02,	 3.9044278285931977e-01,	 8.5255596004124300e+02,	 7.9769143953794730e+04,	 5.6031390592309322e+02,	 7.0496753937610793e-04 
2.8500000000000003e-01,	 4.9999999999999998e-07,	 3.2522363467485432e-01,	 5.9848931459661373e-02,	 3.9044278285923384e-01,	 8.5255596004124391e+02,	 7.9769143953794788e+04,	 5.6031390592309344e+02,	 7.0496753937595506e-04 
2.9499999999999998e-01,	 4.9999999999999998e-07,	 3.2522363467485371e-01,	 5.9848931459662656e-02,	 3.9044278285924505e-01,	 8.5255596004124527e+02,	 7.9769143953794759e+04,	 5.6031390592309390e+02,	 7.0496753937597458e-04 
3.0499999999999999e-01,	 4.9999999999999998e-07,	 3.2522363467485471e-01,	 5.9848931459686013e-02,	 3.9044278285921952e-01,	 8.5255596004124232e+02,	 7.9769143953794730e+04,	 5.6031390592309299e+02,	 7.0496753937593706e-04 
3.1500000000000000e-01,	 4.9999999999999998e-07,	 3.2522363467485371e-01,	 5.9848931459653212e-02,	 3.9044278285935841e-01,	 8.5255596004124493e+02,	 7.9769143953794730e+04,	 5.6031390592309378e+02,	 7.0496753937617212e-04 
3.2500000000000001e-01,	 4.9999999999999998e-07,	 3.2522363467485471e-01,	 5.9848931459654219e-02,	 3.9044278285932349e-01,	 8.5255596004124232e+02,	 7.9769143953794730e+04,	 5.6031390592309299e+02,	 7.0496753937611173e-04 
3.3500000000000002e-01,	 4.9999999999999998e-07,	 3.2522363467485482e-01,	 5.9848931459671809e-02,	 3.9044278285939182e-01,	 8.5255596004124300e+02,	 7.9769143953794817e+04,	 5.6031390592309322e+02,	 7.0496753937623695e-04 
3.4500000000000003e-01,	 4.9999999999999998e-07,	 3.2522363467485360e-01,	 5.9848931459657445e-02,	 3.9044278285938777e-01,	 8.5255596004124516e+02,	 7.9769143953794715e+04,	 5.6031390592309390e+02,	 7.0496753937622492e-04 
3.5499999999999998e-01,	 4.9999999999999998e-07,	 3.2522363467485499e-01,	 5.9848931459640473e-02,	 3.9044278285933243e-01,	 8.5255596004124209e+02,	 7.9769143953794774e+04,	 5.6031390592309288e+02,	 7.0496753937612398e-04 
3.6499999999999999e-01,	 4.9999999999999998e-07,	 3.2522363467485482e-01,	 5.9848931459665987e-02,	 3.9044278285943435e-01,	 8.5255596004124243e+02,	 7.9769143953794774e+04,	 5.6031390592309299e+02,	 7.0496753937631057e-04 
3.7500000000000000e-01,	 4.9999999999999998e-07,	 3.2522363467485355e-01,	 5.9848931459662205e-02,	 3.9044278285928663e-01,	 8.5255596004124538e+02,	 7.9769143953794730e+04,	 5.6031390592309401e+02,	 7.0496753937604765e-04 
3.8500000000000001e-01,	 4.9999999999999998e-07,	 3.2522363467485460e-01,	 5.9848931459655516e-02,	 3.9044278285928657e-01,	 8.5255596004124277e+02,	 7.9769143953794744e+04,	 5.6031390592309310e+02,	 7.0496753937604689e-04 
3.9500000000000002e-01,	 4.9999999999999998e-07,	 3.2522363467485454e-01,	 5.9848931459660276e-02,	 3.9044278285927730e-01,	 8.5255596004124254e+02,	 7.9769143953794701e+04,	 5.6031390592309299e+02,	 7.0496753937603204e-04 
4.0500000000000003e-01,	 4.9999999999999998e-07,	 3.2522363467485421e-01,	 5.9848931459660935e-02,	 3.9044278285928563e-01,	 8.5255596004124357e+02,	 7.9769143953794715e+04,	 5.6031390592309333e+02,	 7.0496753937604646e-04 
4.1499999999999998e-01,	 4.9999999999999998e-07,	 3.2522363467485405e-01,	 5.9848931459668533e-02,	 3.9044278285923284e-01,	 8.5255596004124425e+02,	 7.9769143953794744e+04,	 5.6031390592309356e+02,	 7.0496753937595506e-04 
4.2499999999999999e-01,	 4.9999999999999998e-07,	 3.2522363467485371e-01,	 5.9848931459653157e-02,	 3.9044278285930484e-01,	 8.5255596004124584e+02,	 7.9769143953794803e+04,	 5.6031390592309413e+02,	 7.0496753937607725e-04 
4.3500000000000000e-01,	 4.9999999999999998e-07,	 3.2522363467485343e-01,	 5.9848931459655842e-02,	 3.9044278285916661e-01,	 8.5255596004124527e+02,	 7.9769143953794701e+04,	 5.6031390592309390e+02,	 7.0496753937583439e-04 
4.4500000000000001e-01,	 4.9999999999999998e-07,	 3.2522363467485405e-01,	 5.9848931459653643e-02,	 3.9044278285935996e-01,	 8.5255596004124436e+02,	 7.9769143953794759e+04,	 5.6031390592309356e+02,	 7.0496753937617537e-04 
4.5500000000000002e-01,	 4.9999999999999998e-07,	 3.2522363467485427e-01,	 5.9848931459670865e-02,	 3.9044278285925915e-01,	 8.5255596004124334e+02,	 7.9769143953794715e+04,	 5.6031390592309333e+02,	 7.0496753937600233e-04 
4.6499999999999997e-01,	 4.9999999999999998e-07,	 3.2522363467485499e-01,	 5.9848931459667548e-02,	 3.9044278285933748e-01,	 8.5255596004124254e+02,	 7.9769143953794817e+04,	 5.6031390592309299e+02,	 7.0496753937614013e-04 
4.7499999999999998e-01,	 4.9999999999999998e-07,	 3.2522363467485416e-01,	 5.9848931459667805e-02,	 3.9044278285919831e-01,	 8.5255596004124334e+02,	 7.9769143953794686e+04,	 5.6031390592309333e+02,	 7.0496753937589424e-04 
4.8499999999999999e-01,	 4.9999999999999998e-07,	 3.2522363467485449e-01,	 5.9848931459656619e-02,	 3.9044278285936307e-01,	 8.5255596004124345e+02,	 7.9769143953794774e+04,	 5.6031390592309333e+02,	 7.0496753937618188e-04 
4.9500000000000000e-01,	 4.9999999999999998e-07,	 3.2522363467485477e-01,	 5.9848931459657577e-02,	 3.9044278285927136e-01,	 8.5255596004124175e+02,	 7.9769143953794686e+04,	 5.6031390592309276e+02,	 7.0496753937602098e-04 
5.0500000000000000e-01,	 4.9999999999999998e-07,	 3.2522363467485482e-01,	 5.9848931459676478e-02,	 3.9044278285938777e-01,	 8.5255596004124266e+02,	 7.9769143953794788e+04,	 5.6031390592309310e+02,	 7.0496753937623110e-04 
5.1500000000000001e-01,	 4.9999999999999998e-07,	 3.2522363467485355e-01,	 5.9848931459657598e-02,	 3.9044278285926554e-01,	 8.5255596004124504e+02,	 7.9769143953794701e+04,	 5.6031390592309390e+02,	 7.0496753937600938e-04 
5.2500000000000002e-01,	 4.9999999999999998e-07,	 3.2522363467485471e-01,	 5.9848931459659443e-02,	 3.9044278285943756e-01,	 8.5255596004124266e+02,	 7.9769143953794759e+04,	 5.6031390592309310e+02,	 7.0496753937631437e-04 
5.3500000000000003e-01,	 4.9999999999999998e-07,	 3.2522363467485438e-01,	 5.9848931459665425e-02,	 3.9044278285936784e-01,	 8.5255596004124402e+02,	 7.9769143953794803e+04,	 5.6031390592309356e+02,	 7.0496753937619239e-04 
5.4500000000000004e-01,	 4.9999999999999998e-07,	 3.2522363467485338e-01,	 5.9848931459676215e-02,	 3.9044278285922257e-01,	 8.5255596004124550e+02,	 7.9769143953794701e+04,	 5.6031390592309401e+02,	 7.0496753937593847e-04 
5.5500000000000005e-01,	 4.9999999999999998e-07,	 3.2522363467485471e-01,	 5.9848931459643984e-02,	 3.9044278285939782e-01,	 8.5255596004124243e+02,	 7.9769143953794744e+04,	 5.6031390592309299e+02,	 7.0496753937624031e-04 
5.6499999999999995e-01,	 4.9999999999999998e-07,	 3.2522363467485427e-01,	 5.9848931459673481e-02,	 3.9044278285931000e-01,	 8.5255596004124402e+02,	 7.9769143953794788e+04,	 5.6031390592309356e+02,	 7.0496753937609254e-04 
5.7499999999999996e-01,	 4.9999999999999998e-07,	 3.2522363467485460e-01,	 5.9848931459637510e-02,	 3.9044278285922113e-01,	 8.5255596004124266e+02,	 7.9769143953794730e+04,	 5.6031390592309310e+02,	 7.0496753937592666e-04 
5.8499999999999996e-01,	 4.9999999999999998e-07,	 3.2522363467485416e-01,	 5.9848931459667777e-02,	 3.9044278285923506e-01,	 8.5255596004124459e+02,	 7.9769143953794803e+04,	 5.6031390592309367e+02,	 7.0496753937595864e-04 
5.9499999999999997e-01,	 4.9999999999999998e-07,	 3.2522363467485516e-01,	 5.9848931459673786e-02,	 3.9044278285928524e-01,	 8.5255596004124175e+02,	 7.9769143953794788e+04,	 5.6031390592309276e+02,	 7.0496753937604993e-04 
6.0499999999999998e-01,	 4.9999999999999998e-07,	 3.2522363467485538e-01,	 5.9848931459640216e-02,	 3.9044278285933465e-01,	 8.5255596004124163e+02,	 7.9769143953794832e+04,	 5.6031390592309276e+02,	 7.0496753937612799e-04 
6.1499999999999999e-01,	 4.9999999999999998e-07,	 3.2522363467485521e-01,	 5.9848931459660415e-02,	 3.9044278285934070e-01,	 8.5255596004124197e+02,	 7.9769143953794817e+04,	 5.6031390592309288e+02,	 7.0496753937614404e-04 
6.2500000000000000e-01,	 4.9999999999999998e-07,	 3.2522363467485471e-01,	 5.9848931459661282e-02,	 3.9044278285933087e-01,	 8.5255596004124311e+02,	 7.9769143953794803e+04,	 5.6031390592309322e+02,	 7.0496753937612647e-04 
6.3500000000000001e-01,	 4.9999999999999998e-07,	 3.2522363467485410e-01,	 5.9848931459655495e-02,	 3.9044278285928435e-01,	 8.5255596004124448e+02,	 7.9769143953794774e+04,	 5.6031390592309367e+02,	 7.0496753937604223e-04 
6.4500000000000002e-01,	 4.9999999999999998e-07,	 3.2522363467485371e-01,	 5.9848931459659700e-02,	 3.9044278285935607e-01,	 8.5255596004124538e+02,	 7.9769143953794774e+04,	 5.6031390592309401e+02,	 7.0496753937616941e-04 
6.5500000000000003e-01,	 4.9999999999999998e-07,	 3.2522363467485449e-01,	 5.9848931459661213e-02,	 3.9044278285937539e-01,	 8.5255596004124379e+02,	 7.9769143953794817e+04,	 5.6031390592309344e+02,	 7.0496753937620475e-04 
6.6500000000000004e-01,	 4.9999999999999998e-07,	 3.2522363467485438e-01,	 5.9848931459643540e-02,	 3.9044278285938044e-01,	 8.5255596004124334e+02,	 7.9769143953794744e+04,	 5.6031390592309333e+02,	 7.0496753937620898e-04 
6.7500000000000004e-01,	 4.9999999999999998e-07,	 3.2522363467485466e-01,	 5.9848931459644983e-02,	 3.9044278285933143e-01,	 8.5255596004124379e+02,	 7.9769143953794846e+04,	 5.6031390592309344e+02,	 7.0496753937612279e-04 
6.8500000000000005e-01,	 4.9999999999999998e-07,	 3.2522363467485477e-01,	 5.9848931459682765e-02,	 3.9044278285930389e-01,	 8.5255596004124232e+02,	 7.9769143953794744e+04,	 5.6031390592309299e+02,	 7.0496753937608506e-04 
6.9499999999999995e-01,	 4.9999999999999998e-07,	 3.2522363467485460e-01,	 5.9848931459650839e-02,	 3.9044278285928330e-01,	 8.5255596004124232e+02,	 7.9769143953794701e+04,	 5.6031390592309299e+02,	 7.0496753937604006e-04 
7.0500000000000007e-01,	 4.9999999999999998e-07,	 3.2522363467485460e-01,	 5.9848931459662871e-02,	 3.9044278285927764e-01,	 8.5255596004124482e+02,	 7.9769143953794934e+04,	 5.6031390592309378e+02,	 7.0496753937603226e-04 
7.1499999999999997e-01,	 4.9999999999999998e-07,	 3.2522363467485321e-01,	 5.9848931459656071e-02,	 3.9044278285940526e-01,	 8.5255596004124607e+02,	 7.9769143953794715e+04,	 5.6031390592309413e+02,	 7.0496753937625517e-04 
7.2499999999999987e-01,	 4.9999999999999998e-07,	 3.2522363467485443e-01,	 5.9848931459639744e-02,	 3.9044278285934980e-01,	 8.5255596004124368e+02,	 7.9769143953794788e+04,	 5.6031390592309344e+02,	 7.0496753937615380e-04 
7.3499999999999999e-01,	 4.9999999999999998e-07,	 3.2522363467485343e-01,	 5.9848931459658812e-02,	 3.9044278285932527e-01,	 8.5255596004124573e+02,	 7.9769143953794744e+04,	 5.6031390592309413e+02,	 7.0496753937611476e-04 
7.4500000000000011e-01,	 4.9999999999999998e-07,	 3.2522363467485499e-01,	 5.9848931459668048e-02,	 3.9044278285929157e-01,	 8.5255596004124163e+02,	 7.9769143953794730e+04,	 5.6031390592309276e+02,	 7.0496753937605947e-04 
7.5500000000000000e-01,	 4.9999999999999998e-07,	 3.2522363467485521e-01,	 5.9848931459656043e-02,	 3.9044278285931749e-01,	 8.5255596004124095e+02,	 7.9769143953794730e+04,	 5.6031390592309253e+02,	 7.0496753937610230e-04 
7.6499999999999990e-01,	 4.9999999999999998e-07,	 3.2522363467485416e-01,	 5.9848931459654725e-02,	 3.9044278285924200e-01,	 8.5255596004124311e+02,	 7.9769143953794657e+04,	 5.6031390592309322e+02,	 7.0496753937596796e-04 
7.7500000000000002e-01,	 4.9999999999999998e-07,	 3.2522363467485460e-01,	 5.9848931459639744e-02,	 3.9044278285937262e-01,	 8.5255596004124322e+02,	 7.9769143953794788e+04,	 5.6031390592309322e+02,	 7.0496753937619434e-04 
7.8500000000000014e-01,	 4.9999999999999998e-07,	 3.2522363467485482e-01,	 5.9848931459651283e-02,	 3.9044278285933620e-01,	 8.5255596004124186e+02,	 7.9769143953794715e+04,	 5.6031390592309276e+02,	 7.0496753937613374e-04 
7.9500000000000004e-01,	 4.9999999999999998e-07,	 3.2522363467485382e-01,	 5.9848931459648147e-02,	 3.9044278285943840e-01,	 8.5255596004124504e+02,	 7.9769143953794774e+04,	 5.6031390592309390e+02,	 7.0496753937631176e-04 
8.0499999999999994e-01,	 4.9999999999999998e-07,	 3.2522363467485471e-01,	 5.9848931459666771e-02,	 3.9044278285929773e-01,	 8.5255596004124266e+02,	 7.9769143953794759e+04,	 5.6031390592309310e+02,	 7.0496753937606966e-04 
8.1499999999999995e-01,	 4.9999999999999998e-07,	 3.2522363467485477e-01,	 5.9848931459660928e-02,	 3.9044278285938355e-01,	 8.5255596004124186e+02,	 7.9769143953794701e+04,	 5.6031390592309276e+02,	 7.0496753937621982e-04 
8.2499999999999996e-01,	 4.9999999999999998e-07,	 3.2522363467485427e-01,	 5.9848931459669477e-02,	 3.9044278285928080e-01,	 8.5255596004124448e+02,	 7.9769143953794832e+04,	 5.6031390592309367e+02,	 7.0496753937603974e-04 
8.3499999999999996e-01,	 4.9999999999999998e-07,	 3.2522363467485521e-01,	 5.9848931459642700e-02,	 3.9044278285934797e-01,	 8.5255596004124072e+02,	 7.9769143953794701e+04,	 5.6031390592309242e+02,	 7.0496753937615260e-04 
8.4499999999999997e-01,	 4.9999999999999998e-07,	 3.2522363467485388e-01,	 5.9848931459644178e-02,	 3.9044278285936013e-01,	 8.5255596004124493e+02,	 7.9769143953794774e+04,	 5.6031390592309378e+02,	 7.0496753937617266e-04 
8.5499999999999998e-01,	 4.9999999999999998e-07,	 3.2522363467485454e-01,	 5.9848931459664065e-02,	 3.9044278285932238e-01,	 8.5255596004124368e+02,	 7.9769143953794817e+04,	 5.6031390592309344e+02,	 7.0496753937611195e-04 
8.6499999999999999e-01,	 4.9999999999999998e-07,	 3.2522363467485477e-01,	 5.9848931459646780e-02,	 3.9044278285928741e-01,	 8.5255596004124220e+02,	 7.9769143953794730e+04,	 5.6031390592309299e+02,	 7.0496753937604624e-04 
8.7500000000000000e-01,	 4.9999999999999998e-07,	 3.2522363467485366e-01,	 5.9848931459653344e-02,	 3.9044278285926448e-01,	 8.5255596004124504e+02,	 7.9769143953794730e+04,	 5.6031390592309390e+02,	 7.0496753937600634e-04 
8.8500000000000001e-01,	 4.9999999999999998e-07,	 3.2522363467485377e-01,	 5.9848931459651165e-02,	 3.9044278285943090e-01,	 8.5255596004124561e+02,	 7.9769143953794803e+04,	 5.6031390592309401e+02,	 7.0496753937629919e-04 
8.9500000000000002e-01,	 4.9999999999999998e-07,	 3.2522363467485443e-01,	 5.9848931459664682e-02,	 3.9044278285927592e-01,	 8.5255596004124300e+02,	 7.9769143953794730e+04,	 5.6031390592309322e+02,	 7.0496753937603041e-04 
9.0500000000000003e-01,	 4.9999999999999998e-07,	 3.2522363467485477e-01,	 5.9848931459667964e-02,	 3.9044278285924144e-01,	 8.5255596004124345e+02,	 7.9769143953794846e+04,	 5.6031390592309333e+02,	 7.0496753937597035e-04 
9.1500000000000004e-01,	 4.9999999999999998e-07,	 3.2522363467485338e-01,	 5.9848931459662150e-02,	 3.9044278285915091e-01,	 8.5255596004124595e+02,	 7.9769143953794744e+04,	 5.6031390592309413e+02,	 7.0496753937580804e-04 
9.2500000000000004e-01,	 4.9999999999999998e-07,	 3.2522363467485327e-01,	 5.9848931459673599e-02,	 3.9044278285924455e-01,	 8.5255596004124550e+02,	 7.9769143953794672e+04,	 5.6031390592309401e+02,	 7.0496753937597653e-04 
9.3500000000000005e-01,	 4.9999999999999998e-07,	 3.2522363467485393e-01,	 5.9848931459666237e-02,	 3.9044278285923972e-01,	 8.5255596004124595e+02,	 7.9769143953794875e+04,	 5.6031390592309413e+02,	 7.0496753937596590e-04 
9.4499999999999995e-01,	 4.9999999999999998e-07,	 3.2522363467485438e-01,	 5.9848931459660887e-02,	 3.9044278285929196e-01,	 8.5255596004124322e+02,	 7.9769143953794730e+04,	 5.6031390592309322e+02,	 7.0496753937605774e-04 
9.5500000000000007e-01,	 4.9999999999999998e-07,	 3.2522363467485488e-01,	 5.9848931459665938e-02,	 3.9044278285939027e-01,	 8.5255596004124232e+02,	 7.9769143953794774e+04,	 5.6031390592309299e+02,	 7.0496753937623273e-04 
9.6499999999999997e-01,	 4.9999999999999998e-07,	 3.2522363467485454e-01,	 5.9848931459654288e-02,	 3.9044278285936934e-01,	 8.5255596004124209e+02,	 7.9769143953794657e+04,	 5.6031390592309288e+02,	 7.0496753937619283e-04 
9.7499999999999987e-01,	 4.9999999999999998e-07,	 3.2522363467485466e-01,	 5.9848931459665716e-02,	 3.9044278285935141e-01,	 8.5255596004124357e+02,	 7.9769143953794832e+04,	 5.6031390592309333e+02,	 7.0496753937616377e-04 
9.8499999999999999e-01,	 4.9999999999999998e-07,	 3.2522363467485493e-01,	 5.9848931459643907e-02,	 3.9044278285928063e-01,	 8.5255596004124152e+02,	 7.9769143953794701e+04,	 5.6031390592309265e+02,	 7.0496753937603388e-04 
9.9500000000000011e-01,	 4.9999999999999998e-07,	 3.2522363467485382e-01,	 5.9848931459645913e-02,	 3.9044278285925854e-01,	 8.5255596004124391e+02,	 7.9769143953794672e+04,	 5.6031390592309344e+02,	 7.0496753937599442e-04 
5.0000000000000001e-03,	 1.5617290000000002e-06,	 3.2645792165589022e-01,	 6.0280566873353791e+00,	 2.9073446679884696e-01,	 8.3748851969615976e+02,	 7.8656752427378917e+04,	 5.5534054836196981e+02,	 1.0867320467583420e-02 
1.5000000000000001e-02,	 1.5617290000000002e-06,	 3.2597324294791974e-01,	 5.0528659605212303e+00,	 2.6860560776695558e-01,	 8.5180461797335431e+02,	 7.9882542802771481e+04,	 5.6006695427328418e+02,	 9.0346346916692841e-03 
2.5000000000000001e-02,	 1.5617290000000002e-06,	 3.2608466737523983e-01,	 5.1247183506770400e+00,	 2.7035896878650340e-01,	 8.5219274122028708e+02,	 7.9946259094764318e+04,	 5.6019453649355683e+02,	 9.1608264135495734e-03 
3.5000000000000003e-02,	 1.5617290000000002e-06,	 3.2611095247090516e-01,	 5.1371618256608507e+00,	 2.7081022562262841e-01,	 8.5222614457950760e+02,	 7.9955837320608771e+04,	 5.6020551534556262e+02,	 9.1828708179555307e-03 
4.5000000000000005e-02,	 1.5617290000000002e-06,	 3.2611506541677410e-01,	 5.1390302330295441e+00,	 2.7087682561568616e-01,	 8.5223076746784318e+02,	 7.9957279456844321e+04,	 5.6020703475684024e+02,	 9.1861827545831904e-03 
5.4999999999999993e-02,	 1.5617290000000002e-06,	 3.2611560557157543e-01,	 5.1392705649444750e+00,	 2.7088481410151682e-01,	 8.5223136088168985e+02,	 7.9957467567508560e+04,	 5.6020722979471395e+02,	 9.1866087176432788e-03 
6.5000000000000002e-02,	 1.5617290000000002e-06,	 3.2611566642549944e-01,	 5.1392974095858541e+00,	 2.7088563576131275e-01,	 8.5223142711957701e+02,	 7.9957488702283270e+04,	 5.6020725156517688e+02,	 9.1866562905382580e-03 
7.5000000000000011e-02,	 1.5617290000000002e-06,	 3.2611567242367923e-01,	 5.1393000513396911e+00,	 2.7088570996548245e-01,	 8.5223143360972790e+02,	 7.9957490781839879e+04,	 5.6020725369830029e+02,	 9.1866609716652701e-03 
8.5000000000000006e-02,	 1.5617290000000002e-06,	 3.2611567294928268e-01,	 5.1393002835491224e+00,	 2.7088571594483790e-01,	 8.5223143417594406e+02,	 7.9957490963831209e+04,	 5.6020725388439905e+02,	 9.1866613831069980e-03 
9.5000000000000001e-02,	 1.5617290000000002e-06,	 3.2611567299074945e-01,	 5.1393003019891221e+00,	 2.7088571637981257e-01,	 8.5223143422046007e+02,	 7.9957490978174639e+04,	 5.6020725389903021e+02,	 9.1866614157786949e-03 
1.0500000000000001e-01,	 1.5617290000000002e-06,	 3.2611567299372424e-01,	 5.1393003033242888e+00,	 2.7088571640865922e-01,	 8.5223143422364546e+02,	 7.9957490979202863e+04,	 5.6020725390007715e+02,	 9.1866614181442784e-03 
1.1499999999999999e-01,	 1.5617290000000002e-06,	 3.2611567299391980e-01,	 5.1393003034130817e+00,	 2.7088571641035530e-01,	 8.5223143422385579e+02,	 7.9957490979270544e+04,	 5.6020725390014627e+02,	 9.1866614183015848e-03 
1.2500000000000000e-01,	 1.5617290000000002e-06,	 3.2611567299393079e-01,	 5.1393003034184490e+00,	 2.7088571641053633e-01,	 8.5223143422386909e+02,	 7.9957490979274487e+04,	 5.6020725390015059e+02,	 9.1866614183110980e-03 
1.3500000000000001e-01,	 1.5617290000000002e-06,	 3.2611567299393185e-01,	 5.1393003034187767e+00,	 2.7088571641048276e-01,	 8.5223143422386886e+02,	 7.9957490979274720e+04,	 5.6020725390015048e+02,	 9.1866614183116774e-03 
1.4500000000000002e-01,	 1.5617290000000002e-06,	 3.2611567299393240e-01,	 5.1393003034188531e+00,	 2.7088571641038572e-01,	 8.5223143422386772e+02,	 7.9957490979274764e+04,	 5.6020725390015014e+02,	 9.1866614183118110e-03 
1.5500000000000000e-01,	 1.5617290000000002e-06,	 3.2611567299393196e-01,	 5.1393003034187874e+00,	 2.7088571641042869e-01,	 8.5223143422386897e+02,	 7.9957490979274764e+04,	 5.6020725390015059e+02,	 9.1866614183116913e-03 
1.6500000000000001e-01,	 1.5617290000000002e-06,	 3.2611567299393229e-01,	 5.1393003034187998e+00,	 2.7088571641051484e-01,	 8.5223143422386829e+02,	 7.9957490979274779e+04,	 5.6020725390015036e+02,	 9.1866614183117243e-03 
1.7500000000000002e-01,	 1.5617290000000002e-06,	 3.2611567299393113e-01,	 5.1393003034188531e+00,	 2.7088571641043507e-01,	 8.5223143422387091e+02,	 7.9957490979274749e+04,	 5.6020725390015116e+02,	 9.1866614183117989e-03 
1.8500000000000000e-01,	 1.5617290000000002e-06,	 3.2611567299393235e-01,	 5.1393003034188718e+00,	 2.7088571641042108e-01,	 8.5223143422386750e+02,	 7.9957490979274720e+04,	 5.6020725390015014e+02,	 9.1866614183118474e-03 
1.9500000000000001e-01,	 1.5617290000000002e-06,	 3.2611567299393224e-01,	 5.1393003034188576e+00,	 2.7088571641053100e-01,	 8.5223143422386795e+02,	 7.9957490979274735e+04,	 5.6020725390015025e+02,	 9.1866614183118318e-03 
2.0500000000000002e-01,	 1.5617290000000002e-06,	 3.2611567299393224e-01,	 5.1393003034187794e+00,	 2.7088571641050541e-01,	 8.5223143422386727e+02,	 7.9957490979274662e+04,	 5.6020725390015002e+02,	 9.1866614183116931e-03 
2.1500000000000000e-01,	 1.5617290000000002e-06,	 3.2611567299393096e-01,	 5.1393003034188336e+00,	 2.7088571641049414e-01,	 8.5223143422387136e+02,	 7.9957490979274749e+04,	 5.6020725390015139e+02,	 9.1866614183117659e-03 
2.2500000000000001e-01,	 1.5617290000000002e-06,	 3.2611567299393257e-01,	 5.1393003034188265e+00,	 2.7088571641041082e-01,	 8.5223143422386738e+02,	 7.9957490979274764e+04,	 5.6020725390015002e+02,	 9.1866614183117676e-03 
2.3499999999999999e-01,	 1.5617290000000002e-06,	 3.2611567299393213e-01,	 5.1393003034187634e+00,	 2.7088571641048187e-01,	 8.5223143422386829e+02,	 7.9957490979274735e+04,	 5.6020725390015036e+02,	 9.1866614183116566e-03 
2.4500000000000000e-01,	 1.5617290000000002e-06,	 3.2611567299393118e-01,	 5.1393003034187386e+00,	 2.7088571641052367e-01,	 8.5223143422387022e+02,	 7.9957490979274691e+04,	 5.6020725390015093e+02,	 9.1866614183116081e-03 
2.5500000000000000e-01,	 1.5617290000000002e-06,	 3.2611567299393229e-01,	 5.1393003034188185e+00,	 2.7088571641028458e-01,	 8.5223143422386784e+02,	 7.9957490979274735e+04,	 5.6020725390015025e+02,	 9.1866614183117382e-03 
2.6500000000000001e-01,	 1.5617290000000002e-06,	 3.2611567299393224e-01,	 5.1393003034187670e+00,	 2.7088571641034687e-01,	 8.5223143422386829e+02,	 7.9957490979274764e+04,	 5.6020725390015036e+02,	 9.1866614183116497e-03 
2.7500000000000002e-01,	 1.5617290000000002e-06,	 3.2611567299393163e-01,	 5.1393003034188087e+00,	 2.7088571641037146e-01,	 8.5223143422386931e+02,	 7.9957490979274720e+04,	 5.6020725390015070e+02,	 9.1866614183117225e-03 
2.8500000000000003e-01,	 1.5617290000000002e-06,	 3.2611567299393190e-01,	 5.1393003034188451e+00,	 2.7088571641055820e-01,	 8.5223143422386897e+02,	 7.9957490979274749e+04,	 5.6020725390015059e+02,	 9.1866614183118058e-03 
2.9499999999999998e-01,	 1.5617290000000002e-06,	 3.2611567299393124e-01,	 5.1393003034188469e+00,	 2.7088571641044012e-01,	 8.5223143422387056e+02,	 7.9957490979274735e+04,	 5.6020725390015104e+02,	 9.1866614183117902e-03 
3.0499999999999999e-01,	 1.5617290000000002e-06,	 3.2611567299393207e-01,	 5.1393003034187812e+00,	 2.7088571641038134e-01,	 8.5223143422386806e+02,	 7.9957490979274706e+04,	 5.6020725390015025e+02,	 9.1866614183116809e-03 
3.1500000000000000e-01,	 1.5617290000000002e-06,	 3.2611567299393135e-01,	 5.1393003034188434e+00,	 2.7088571641051507e-01,	 8.5223143422387011e+02,	 7.9957490979274720e+04,	 5.6020725390015093e+02,	 9.1866614183117937e-03 
3.2500000000000001e-01,	 1.5617290000000002e-06,	 3.2611567299393224e-01,	 5.1393003034187599e+00,	 2.7088571641040837e-01,	 8.5223143422386772e+02,	 7.9957490979274706e+04,	 5.6020725390015014e+02,	 9.1866614183116480e-03 