TITLE = "Final State"
VARIABLES = "X", "Y", "rho", "u", "v", "T", "p", "c", "M"
ZONE I=80, J=27, DATAPACKING=POINT
9.5440280000000000e-01,	 2.5583319999999998e-01,	 2.7706596598800759e-02,	 1.5865506661777795e+03,	 4.2474852360368499e+02,	 4.5852639471751655e+02,	 3.6549165001070301e+03,	 4.1091512190518552e+02,	 3.9969892103048235e+00 
9.5517879999999999e-01,	 2.5604109999999997e-01,	 2.7707474268843062e-02,	 1.5865492224039210e+03,	 4.2476613856868653e+02,	 4.5853208553553804e+02,	 3.6550776409560581e+03,	 4.1091767185209409e+02,	 3.9969720991990947e+00 
9.5593890000000004e-01,	 2.5624479999999999e-01,	 2.7707748789664366e-02,	 1.5865529757169761e+03,	 4.2478058543616913e+02,	 4.5853561819953325e+02,	 3.6551420148834691e+03,	 4.1091925476342590e+02,	 3.9969746181481050e+00 
9.5669899999999997e-01,	 2.5644839999999997e-01,	 2.7707646570350825e-02,	 1.5865559120422549e+03,	 4.2478125963353477e+02,	 4.5853498443514025e+02,	 3.6551234784174708e+03,	 4.1091897078757785e+02,	 3.9969847073225222e+00 
9.5744370000000001e-01,	 2.5664799999999999e-01,	 2.7708744474977787e-02,	 1.5865528643387674e+03,	 4.2480375704041865e+02,	 4.5854336101254228e+02,	 3.6553350861738222e+03,	 4.1092272413133747e+02,	 3.9969551946211150e+00 
9.5818840000000005e-01,	 2.5684750000000001e-01,	 2.7706179540093835e-02,	 1.5865756972885524e+03,	 4.2477109175650367e+02,	 4.5852714690124287e+02,	 3.6548674793660266e+03,	 4.1091545894526041e+02,	 3.9970589786403998e+00 
9.5891830000000000e-01,	 2.5704299999999997e-01,	 2.7705442779373500e-02,	 1.5865864190365194e+03,	 4.2476314458506761e+02,	 4.5852249317531709e+02,	 3.6547331960636016e+03,	 4.1091337368946949e+02,	 3.9970994655490903e+00 
9.5964819999999995e-01,	 2.5723859999999998e-01,	 2.7706781486468414e-02,	 1.5865798087250550e+03,	 4.2479372990356944e+02,	 4.5853254733062209e+02,	 3.6549899324104326e+03,	 4.1091787877296071e+02,	 3.9970593538364341e+00 
9.6036370000000004e-01,	 2.5743030000000000e-01,	 2.7706097396388261e-02,	 1.5865894706120350e+03,	 4.2478767168513519e+02,	 4.5852869689240231e+02,	 3.6548689981246707e+03,	 4.1091615346770550e+02,	 3.9970950362223121e+00 
9.6107929999999997e-01,	 2.5762199999999996e-01,	 2.7705252011011820e-02,	 1.5866001480133061e+03,	 4.2478253246985599e+02,	 4.5852379969704850e+02,	 3.6547184448504736e+03,	 4.1091395912080390e+02,	 3.9971382472552768e+00 
9.6178100000000000e-01,	 2.5780999999999998e-01,	 2.7707523569898619e-02,	 1.5865873650343196e+03,	 4.2481728835357228e+02,	 4.5853923925173410e+02,	 3.6551411688072217e+03,	 4.1092087727329778e+02,	 3.9970627781755121e+00 
9.6248270000000002e-01,	 2.5799810000000001e-01,	 2.7708078556939339e-02,	 1.5865868754907478e+03,	 4.2484034226486392e+02,	 4.5854347567173880e+02,	 3.6552481523239035e+03,	 4.1092277550714010e+02,	 3.9970576742267716e+00 
9.6317120000000001e-01,	 2.5818249999999998e-01,	 2.7706835446612232e-02,	 1.5866031095559815e+03,	 4.2481929576997294e+02,	 4.5853593288506818e+02,	 3.6550240371662771e+03,	 4.1091939576700139e+02,	 3.9971154640769280e+00 
9.6385960000000004e-01,	 2.5836700000000001e-01,	 2.7707724126983468e-02,	 1.5865995390287462e+03,	 4.2483856478538951e+02,	 4.5854220531809449e+02,	 3.6551912695360152e+03,	 4.1092220629436679e+02,	 3.9970918607747095e+00 
9.6453520000000004e-01,	 2.5854800000000000e-01,	 2.7707022724590958e-02,	 1.5866089202810808e+03,	 4.2483331330094018e+02,	 4.5853883549225088e+02,	 3.6550718795144207e+03,	 4.1092069635831450e+02,	 3.9971252955881398e+00 
9.6521069999999998e-01,	 2.5872899999999999e-01,	 2.7706561346907972e-02,	 1.5866162698796188e+03,	 4.2482920333555660e+02,	 4.5853639583233871e+02,	 3.6549915686942618e+03,	 4.1091960320326871e+02,	 3.9971506191411588e+00 
9.6587400000000001e-01,	 2.5890669999999999e-01,	 2.7705788977802001e-02,	 1.5866257862181506e+03,	 4.2482536561688073e+02,	 4.5853191019663700e+02,	 3.6548539253933063e+03,	 4.1091759328631628e+02,	 3.9971901254938942e+00 
9.6653719999999999e-01,	 2.5908439999999999e-01,	 2.7705298705789139e-02,	 1.5866332762629918e+03,	 4.2482242974100865e+02,	 4.5852928535388662e+02,	 3.6547683287120649e+03,	 4.1091641714613354e+02,	 3.9972173259149293e+00 
9.6718859999999995e-01,	 2.5925890000000001e-01,	 2.7704325403979241e-02,	 1.5866444231117039e+03,	 4.2481620500487958e+02,	 4.5852342889300178e+02,	 3.6545932567095874e+03,	 4.1091379296957047e+02,	 3.9972651389200391e+00 
9.6783989999999998e-01,	 2.5943339999999998e-01,	 2.7704934217374966e-02,	 1.5866440184436096e+03,	 4.2483310013376831e+02,	 4.5852822943729342e+02,	 3.6547118306969705e+03,	 4.1091594400981819e+02,	 3.9972538971496978e+00 
9.6847989999999995e-01,	 2.5960489999999997e-01,	 2.7704720946629909e-02,	 1.5866497462856887e+03,	 4.2483350957659309e+02,	 4.5852728727243840e+02,	 3.6546761874748172e+03,	 4.1091552184305198e+02,	 3.9972717264746809e+00 
9.6911979999999998e-01,	 2.5977630000000002e-01,	 2.7702606192729747e-02,	 1.5866693174949510e+03,	 4.2480940581559776e+02,	 4.5851385127974379e+02,	 3.6542901361597565e+03,	 4.1090950137431582e+02,	 3.9973611297433513e+00 
9.6974879999999997e-01,	 2.5994479999999998e-01,	 2.7703941162204836e-02,	 1.5866636169528865e+03,	 4.2483541534256102e+02,	 4.5852327505604603e+02,	 3.6545413436548151e+03,	 4.1091372403772505e+02,	 3.9973230217147742e+00 
9.7037779999999996e-01,	 2.6011339999999999e-01,	 2.7707022033638683e-02,	 1.5866467675167514e+03,	 4.2488596515211742e+02,	 4.5854426710333917e+02,	 3.6551150844326353e+03,	 4.1092313012687276e+02,	 3.9972237329302014e+00 
9.7099619999999998e-01,	 2.6027909999999999e-01,	 2.7706297776342807e-02,	 1.5866558221092291e+03,	 4.2487765845453384e+02,	 4.5854004503291435e+02,	 3.6549858865019187e+03,	 4.1092123832436567e+02,	 3.9972581913020400e+00 
9.7161470000000005e-01,	 2.6044479999999998e-01,	 2.7704724204813333e-02,	 1.5866710332345747e+03,	 4.2485911361907245e+02,	 4.5853016692329913e+02,	 3.6546995694412067e+03,	 4.1091681216034732e+02,	 3.9973253317504964e+00 
9.7222310000000001e-01,	 2.6060780000000000e-01,	 2.7703953540449688e-02,	 1.5866800579752603e+03,	 4.2485223197234654e+02,	 4.5852563721249038e+02,	 3.6545618034865283e+03,	 4.1091478248045195e+02,	 3.9973619597005210e+00 
9.7283149999999996e-01,	 2.6077079999999997e-01,	 2.7703432407524348e-02,	 1.5866875518854217e+03,	 4.2484953324752746e+02,	 4.5852274895372125e+02,	 3.6544700386371769e+03,	 4.1091348829971639e+02,	 3.9973904673802836e+00 
9.7343020000000002e-01,	 2.6093119999999997e-01,	 2.7702382489202221e-02,	 1.5866983335098885e+03,	 4.2484232579800971e+02,	 4.5851681267947993e+02,	 3.6542842288534785e+03,	 4.1091082834112467e+02,	 3.9974371526402517e+00 
9.7402900000000003e-01,	 2.6109159999999998e-01,	 2.7703226888226448e-02,	 1.5866979754565209e+03,	 4.2485516261189895e+02,	 4.5852255779438252e+02,	 3.6544414042216908e+03,	 4.1091340264425105e+02,	 3.9974193476671491e+00 
9.7461850000000005e-01,	 2.6124959999999997e-01,	 2.7704127109464037e-02,	 1.5866944954792680e+03,	 4.2487606394181529e+02,	 4.5852833571203087e+02,	 3.6546062076483227e+03,	 4.1091599162954878e+02,	 3.9973991377605294e+00 
9.7520799999999996e-01,	 2.6140750000000001e-01,	 2.7702813148545127e-02,	 1.5867087762251444e+03,	 4.2486135131870708e+02,	 4.5852143214591206e+02,	 3.6543778548711257e+03,	 4.1091289825867699e+02,	 3.9974535402663256e+00 
9.7578869999999995e-01,	 2.6156309999999999e-01,	 2.7703218625793048e-02,	 1.5867097997784713e+03,	 4.2487219318418187e+02,	 4.5852389939723719e+02,	 3.6544510069118555e+03,	 4.1091400379481757e+02,	 3.9974520160630451e+00 
9.7636950000000000e-01,	 2.6171869999999997e-01,	 2.7704447163698354e-02,	 1.5867035224916926e+03,	 4.2489400154009854e+02,	 4.5853233407796813e+02,	 3.6546802963158420e+03,	 4.1091778321885130e+02,	 3.9974142209275669e+00 
9.7694179999999997e-01,	 2.6187210000000000e-01,	 2.7705420111265120e-02,	 1.5867018787314878e+03,	 4.2490979041568062e+02,	 4.5853901620448607e+02,	 3.6548619053918324e+03,	 4.1092077733116179e+02,	 3.9973911694389708e+00 
9.7751410000000005e-01,	 2.6202539999999996e-01,	 2.7702855565188006e-02,	 1.5867242590236722e+03,	 4.2488061044827475e+02,	 4.5852298340608149e+02,	 3.6543958136373099e+03,	 4.1091359335407316e+02,	 3.9974952978946572e+00 
9.7807849999999996e-01,	 2.6217659999999998e-01,	 2.7702243595757594e-02,	 1.5867322597353993e+03,	 4.2487547487669246e+02,	 4.5851909476473247e+02,	 3.6542840947601594e+03,	 4.1091185091254277e+02,	 3.9975278243073822e+00 
9.7864280000000003e-01,	 2.6232780000000000e-01,	 2.7703170696829420e-02,	 1.5867287414790867e+03,	 4.2489562137620351e+02,	 4.5852627268033592e+02,	 3.6544635995095728e+03,	 4.1091506722248147e+02,	 3.9975009460261632e+00 
9.7919959999999995e-01,	 2.6247700000000002e-01,	 2.7704002884923088e-02,	 1.5867266470201803e+03,	 4.2491390667320536e+02,	 4.5853249656481620e+02,	 3.6546229835714153e+03,	 4.1091785602585367e+02,	 3.9974804029642188e+00 
9.7975639999999997e-01,	 2.6262619999999998e-01,	 2.7702681686146122e-02,	 1.5867393667180049e+03,	 4.2489670570979143e+02,	 4.5852427900754117e+02,	 3.6543832023364394e+03,	 4.1091417389190281e+02,	 3.9975352967439810e+00 
9.8030600000000001e-01,	 2.6277339999999999e-01,	 2.7702025278123363e-02,	 1.5867496118903257e+03,	 4.2488962615560217e+02,	 4.5852039448604529e+02,	 3.6542656542182208e+03,	 4.1091243329887948e+02,	 3.9975718577272392e+00 
9.8085560000000005e-01,	 2.6292070000000001e-01,	 2.7703442160329262e-02,	 1.5867416776457680e+03,	 4.2491924403534767e+02,	 4.5853065009496225e+02,	 3.6545342980398868e+03,	 4.1091702866006921e+02,	 3.9975271449418508e+00 
9.8139829999999995e-01,	 2.6306609999999997e-01,	 2.7702039410968125e-02,	 1.5867558167917955e+03,	 4.2490322379933434e+02,	 4.5852157672786075e+02,	 3.6542769406346838e+03,	 4.1091296304363442e+02,	 3.9975898500103910e+00 
9.8194110000000001e-01,	 2.6321149999999999e-01,	 2.7700158904893215e-02,	 1.5867730951650276e+03,	 4.2488032952932224e+02,	 4.5850927844483289e+02,	 3.6539308693208991e+03,	 4.1090745233480175e+02,	 3.9976696686945856e+00 
9.8247750000000000e-01,	 2.6335520000000001e-01,	 2.7699617839078275e-02,	 1.5867804433998599e+03,	 4.2487777286317066e+02,	 4.5850598024203259e+02,	 3.6538332139011100e+03,	 4.1090597443826738e+02,	 3.9976997121616629e+00 
9.8301390000000000e-01,	 2.6349889999999998e-01,	 2.7700199254666616e-02,	 1.5867803155624274e+03,	 4.2489132760993800e+02,	 4.5850995713698046e+02,	 3.6539416004735976e+03,	 4.1090775645030294e+02,	 3.9976906068153237e+00 
9.8354419999999998e-01,	 2.6364100000000001e-01,	 2.7701183789790654e-02,	 1.5867776950198599e+03,	 4.2491178292990196e+02,	 4.5851727307229419e+02,	 3.6541297747668127e+03,	 4.1091103463709896e+02,	 3.9976654298330936e+00 
9.8407460000000002e-01,	 2.6378309999999999e-01,	 2.7701456253101133e-02,	 1.5867794408913794e+03,	 4.2492027184815731e+02,	 4.5851972799830230e+02,	 3.6541852806560905e+03,	 4.1091213465545701e+02,	 3.9976641760033531e+00 
9.8459929999999996e-01,	 2.6392369999999998e-01,	 2.7702642506873043e-02,	 1.5867749207569227e+03,	 4.2494170279580902e+02,	 4.5852821881538284e+02,	 3.6544094337742540e+03,	 4.1091593925033760e+02,	 3.9976300278598123e+00 
9.8512400000000000e-01,	 2.6406429999999997e-01,	 2.7703876346151964e-02,	 1.5867704387817039e+03,	 4.2496334229266438e+02,	 4.5853715228449005e+02,	 3.6546433981080290e+03,	 4.1091994215225122e+02,	 3.9975941728422417e+00 
9.8564339999999995e-01,	 2.6420349999999998e-01,	 2.7702738958574717e-02,	 1.5867817181046614e+03,	 4.2494415360021037e+02,	 4.5852965546225539e+02,	 3.6544336071798912e+03,	 4.1091658298458594e+02,	 3.9976412869669695e+00 
9.8616280000000001e-01,	 2.6434259999999998e-01,	 2.7700857267781619e-02,	 1.5867990431341780e+03,	 4.2493040206092667e+02,	 4.5851773709052543e+02,	 3.6540904003891069e+03,	 4.1091124255747019e+02,	 3.9977253128314838e+00 
9.8667729999999998e-01,	 2.6448050000000001e-01,	 2.7701133223473177e-02,	 1.5867993123434710e+03,	 4.2493793476663927e+02,	 4.5852037096129845e+02,	 3.6541477928639433e+03,	 4.1091242275778774e+02,	 3.9977192056394242e+00 
9.8719179999999995e-01,	 2.6461829999999997e-01,	 2.7701124669285176e-02,	 1.5868022300205075e+03,	 4.2493745736508208e+02,	 4.5852032738324317e+02,	 3.6541463171604837e+03,	 4.1091240323110384e+02,	 3.9977259538802858e+00 
9.8770179999999996e-01,	 2.6475499999999996e-01,	 2.7702664803748181e-02,	 1.5867964574302227e+03,	 4.2496011863194599e+02,	 4.5853070653128032e+02,	 3.6544322018624744e+03,	 4.1091705394806621e+02,	 3.9976814042092732e+00 
9.8821170000000003e-01,	 2.6489160000000000e-01,	 2.7700887461092446e-02,	 1.5868132283364148e+03,	 4.2494128441414671e+02,	 4.5851969599666882e+02,	 3.6541099944999269e+03,	 4.1091212031598701e+02,	 3.9977569701602116e+00 
9.8871750000000003e-01,	 2.6502710000000002e-01,	 2.7699372084858110e-02,	 1.5868275484083060e+03,	 4.2492399412521092e+02,	 4.5851013202944625e+02,	 3.6538338819611408e+03,	 4.1090783481791829e+02,	 3.9978214432701078e+00 
9.8922330000000003e-01,	 2.6516259999999997e-01,	 2.7699802212103178e-02,	 1.5868284319088148e+03,	 4.2493379862301089e+02,	 4.5851308131400140e+02,	 3.6539141231958174e+03,	 4.1090915636143211e+02,	 3.9978168346522649e+00 
9.8972519999999997e-01,	 2.6529710000000001e-01,	 2.7700943278665666e-02,	 1.5868231678554416e+03,	 4.2495823395287397e+02,	 4.5852143174602395e+02,	 3.6541311904140780e+03,	 4.1091289807949323e+02,	 3.9977834391997753e+00 
9.9022719999999997e-01,	 2.6543159999999999e-01,	 2.7699613015852505e-02,	 1.5868361266353509e+03,	 4.2494477652739090e+02,	 4.5851299443170831e+02,	 3.6538884737268413e+03,	 4.1090911743044751e+02,	 3.9978422129961277e+00 
9.9072559999999998e-01,	 2.6556510000000000e-01,	 2.7699463253567404e-02,	 1.5868425784032679e+03,	 4.2494540518112728e+02,	 4.5851236084952598e+02,	 3.6538636694210541e+03,	 4.1090883352924027e+02,	 3.9978605377018450e+00 
9.9122410000000005e-01,	 2.6569870000000001e-01,	 2.7699998540170127e-02,	 1.5868409245542261e+03,	 4.2495628148317871e+02,	 4.5851662070641612e+02,	 3.6539682268650645e+03,	 4.1091074232048516e+02,	 3.9978449257001931e+00 
9.9171949999999998e-01,	 2.6583140000000000e-01,	 2.7698515956959137e-02,	 1.5868555713182623e+03,	 4.2494225084061611e+02,	 4.5850732529982804e+02,	 3.6536985838970522e+03,	 4.1090657714783129e+02,	 3.9979110490207725e+00 
9.9221479999999995e-01,	 2.6596409999999998e-01,	 2.7699085637474523e-02,	 1.5868545991281867e+03,	 4.2495535313318106e+02,	 4.5851144097045233e+02,	 3.6538065273341285e+03,	 4.1090842134119583e+02,	 3.9978990688772029e+00 
9.9270740000000002e-01,	 2.6609610000000000e-01,	 2.7700583608807700e-02,	 1.5868483273950328e+03,	 4.2498007313386722e+02,	 4.5852137183239489e+02,	 3.6540832675995603e+03,	 4.1091287123311042e+02,	 3.9978565935533013e+00 
9.9319999999999997e-01,	 2.6622809999999997e-01,	 2.7699722751270663e-02,	 1.5868573478451656e+03,	 4.2497602052553270e+02,	 4.5851653825351696e+02,	 3.6539311898703550e+03,	 4.1091070537440515e+02,	 3.9978963194265282e+00 
9.9369019999999997e-01,	 2.6635939999999997e-01,	 2.7699788058887093e-02,	 1.5868629487016879e+03,	 4.2497982849055859e+02,	 4.5851688325960140e+02,	 3.6539425541109690e+03,	 4.1091085996715702e+02,	 3.9979103790494461e+00 
9.9418039999999996e-01,	 2.6649079999999997e-01,	 2.7699731059137402e-02,	 1.5868655119721698e+03,	 4.2497514597653367e+02,	 4.5851659918493272e+02,	 3.6539327713435919e+03,	 4.1091073267698653e+02,	 3.9979146952557647e+00 
9.9466849999999996e-01,	 2.6662150000000001e-01,	 2.7696929042559656e-02,	 1.5868899708369604e+03,	 4.2494510977206630e+02,	 4.5849863883344847e+02,	 3.6534200390303968e+03,	 4.1090268479663416e+02,	 3.9980315873744310e+00 
9.9515659999999995e-01,	 2.6675230000000000e-01,	 2.7698097354151078e-02,	 1.5868849125742568e+03,	 4.2496226157033186e+02,	 4.5850673315642439e+02,	 3.6536386476613661e+03,	 4.1090631181325062e+02,	 3.9979952037394195e+00 
9.9564299999999994e-01,	 2.6688259999999997e-01,	 2.7700148440128053e-02,	 1.5868735377580106e+03,	 4.2499388744852854e+02,	 4.5852057514699004e+02,	 3.6540195140333399e+03,	 4.1091251425037257e+02,	 3.9979280274145852e+00 
9.9612940000000005e-01,	 2.6701300000000000e-01,	 2.7701454453727764e-02,	 1.5868673459543879e+03,	 4.2502222348583985e+02,	 4.5852945698160534e+02,	 3.6542625786837102e+03,	 4.1091649404922663e+02,	 3.9978925916326045e+00 
9.9661440000000001e-01,	 2.6714290000000002e-01,	 2.7699260298804831e-02,	 1.5868880496680026e+03,	 4.2499500528952080e+02,	 4.5851583472033758e+02,	 3.6538645803690638e+03,	 4.1091039013013176e+02,	 3.9979835119102596e+00 
9.9709950000000003e-01,	 2.6727289999999998e-01,	 2.7697602828886836e-02,	 1.5869020520364916e+03,	 4.2497806103384272e+02,	 4.5850330083628990e+02,	 3.6535460649816018e+03,	 4.1090477381550176e+02,	 3.9980604063217964e+00 
9.9758349999999996e-01,	 2.6740249999999999e-01,	 2.7695321121485178e-02,	 1.5869226147432955e+03,	 4.2494492211272222e+02,	 4.5848732371495623e+02,	 3.6531177867454498e+03,	 4.1089761450758738e+02,	 3.9981575446490800e+00 
9.9806750000000000e-01,	 2.6753220000000000e-01,	 2.7697772100660045e-02,	 1.5869075921389347e+03,	 4.2498129010938169e+02,	 4.5850553951102108e+02,	 3.6535862321534564e+03,	 4.1090577695005885e+02,	 3.9980657025568740e+00 
9.9855079999999996e-01,	 2.6766170000000000e-01,	 2.7699229791843444e-02,	 1.5868988129422337e+03,	 4.2500597809764002e+02,	 4.5851613747358215e+02,	 3.6538629687412267e+03,	 4.1091052579004128e+02,	 3.9980144022902273e+00 
9.9903410000000004e-01,	 2.6779120000000001e-01,	 2.7702633414276735e-02,	 1.5868928387044332e+03,	 4.2499189788208957e+02,	 4.5853907284165035e+02,	 3.6544947394489172e+03,	 4.1092080270892251e+02,	 3.9978915058830302e+00 
9.9951699999999999e-01,	 2.6792060000000001e-01,	 2.7706809525778676e-02,	 1.5868909370180111e+03,	 4.2493016032246794e+02,	 4.5857720912538082e+02,	 3.6553496334224051e+03,	 4.1093789031108003e+02,	 3.9976819326283537e+00 
1.0000000000000000e+00,	 2.6805000000000001e-01,	 2.7707555881056362e-02,	 1.5868836694051067e+03,	 4.2494926112737329e+02,	 4.5857380908611037e+02,	 3.6554209971409191e+03,	 4.1093636689525516e+02,	 3.9976916923770802e+00 
9.5438000000000001e-01,	 2.5675739999999997e-01,	 2.7704683430361393e-02,	 1.5868099420611161e+03,	 4.2358658278750306e+02,	 4.5855684218029171e+02,	 3.6549068045769168e+03,	 4.1092876464781938e+02,	 3.9967357990639023e+00 
9.5515620000000001e-01,	 2.5696110000000000e-01,	 2.7704560319034122e-02,	 1.5868143366151280e+03,	 4.2359204259453549e+02,	 4.5855546745593773e+02,	 3.6548796061338862e+03,	 4.1092814867815986e+02,	 3.9967555492291225e+00 
9.5591640000000000e-01,	 2.5716069999999996e-01,	 2.7704757030395689e-02,	 1.5868165533272986e+03,	 4.2360718300334622e+02,	 4.5855783760740053e+02,	 3.6549244482006279e+03,	 4.1092921066603623e+02,	 3.9967599348713603e+00 
9.5667670000000005e-01,	 2.5736029999999999e-01,	 2.7704568992312564e-02,	 1.5868199727845233e+03,	 4.2361302178204403e+02,	 4.5855670525694211e+02,	 3.6548906161390096e+03,	 4.1092870329692249e+02,	 3.9967765741347128e+00 
9.5742159999999998e-01,	 2.5755580000000000e-01,	 2.7705172818652368e-02,	 1.5868190992845803e+03,	 4.2363266143496378e+02,	 4.5856159939683261e+02,	 3.6550092843859275e+03,	 4.1093089619604461e+02,	 3.9967655192129876e+00 
9.5816650000000003e-01,	 2.5775130000000002e-01,	 2.7705347087694815e-02,	 1.5868224757432611e+03,	 4.2364633867368843e+02,	 4.5856329483336810e+02,	 3.6550457885815772e+03,	 4.1093165586128032e+02,	 3.9967746543110620e+00 
9.5889659999999999e-01,	 2.5794299999999998e-01,	 2.7704417230176429e-02,	 1.5868336570912759e+03,	 4.2364254588629956e+02,	 4.5855743603647124e+02,	 3.6548764196985899e+03,	 4.1092903073534092e+02,	 3.9968240952030563e+00 
9.5962670000000005e-01,	 2.5813459999999999e-01,	 2.7704024710486160e-02,	 1.5868385585568160e+03,	 4.2364944463049943e+02,	 4.5855563723951354e+02,	 3.6548103000570018e+03,	 4.1092822475275602e+02,	 3.9968477889827922e+00 
9.6034240000000004e-01,	 2.5832250000000001e-01,	 2.7704107015830481e-02,	 1.5868413312225744e+03,	 4.2366016340555723e+02,	 4.5855669255968104e+02,	 3.6548295692685265e+03,	 4.1092869760769258e+02,	 3.9968564371184927e+00 
9.6105819999999997e-01,	 2.5851039999999997e-01,	 2.7703527547431765e-02,	 1.5868489463763331e+03,	 4.2366331120991322e+02,	 4.5855339489603637e+02,	 3.6547268408428354e+03,	 4.1092722002914564e+02,	 3.9968906891391729e+00 
9.6176010000000001e-01,	 2.5869460000000000e-01,	 2.7703220067246778e-02,	 1.5868528719327669e+03,	 4.2366659263358065e+02,	 4.5855164222122607e+02,	 3.6546723083184875e+03,	 4.1092643470895871e+02,	 3.9969096170768221e+00 
9.6246209999999999e-01,	 2.5887889999999997e-01,	 2.7704008931879576e-02,	 1.5868495950787442e+03,	 4.2369221138090813e+02,	 4.5855731459475436e+02,	 3.6548215874483590e+03,	 4.1092897632129547e+02,	 3.9968932736329617e+00 
9.6315070000000003e-01,	 2.5905970000000000e-01,	 2.7704257760318866e-02,	 1.5868529544634825e+03,	 4.2370257903526260e+02,	 4.5855958927731052e+02,	 3.6548725438496699e+03,	 4.1092999553065636e+02,	 3.9968977671779125e+00 
9.6383940000000001e-01,	 2.5924039999999998e-01,	 2.7704448316322024e-02,	 1.5868541852112426e+03,	 4.2371682645450898e+02,	 4.5856122655162193e+02,	 3.6549107325811142e+03,	 4.1093072913708465e+02,	 3.9969024697001396e+00 
9.6451520000000002e-01,	 2.5941779999999998e-01,	 2.7704574137204917e-02,	 1.5868568029147657e+03,	 4.2372896299273634e+02,	 4.5856283506763418e+02,	 3.6549401520617644e+03,	 4.1093144985663076e+02,	 3.9969092334889380e+00 
9.6519100000000002e-01,	 2.5959519999999997e-01,	 2.7704597186390127e-02,	 1.5868600696428448e+03,	 4.2373879289876504e+02,	 4.5856342249052085e+02,	 3.6549478748506190e+03,	 4.1093171305988528e+02,	 3.9969205252374325e+00 
9.6585449999999995e-01,	 2.5976929999999998e-01,	 2.7704242458454490e-02,	 1.5868658823971277e+03,	 4.2374540336315897e+02,	 4.5856159252689139e+02,	 3.6548864917147130e+03,	 4.1093089311786372e+02,	 3.9969463170757225e+00 
9.6651799999999999e-01,	 2.5994349999999999e-01,	 2.7704009919258858e-02,	 1.5868708835776845e+03,	 4.2375172001112111e+02,	 4.5856048998697509e+02,	 3.6548470264137263e+03,	 4.1093039910790708e+02,	 3.9969668462547165e+00 
9.6716959999999996e-01,	 2.6011449999999997e-01,	 2.7703312720218858e-02,	 1.5868791114498763e+03,	 4.2375293418410882e+02,	 4.5855634265478704e+02,	 3.6547219940529076e+03,	 4.1092854082665309e+02,	 3.9970050282375151e+00 
9.6782120000000005e-01,	 2.6028550000000000e-01,	 2.7702786858556084e-02,	 1.5868856901408017e+03,	 4.2375535356277226e+02,	 4.5855336781431708e+02,	 3.6546289112557924e+03,	 4.1092720789466370e+02,	 3.9970349797741833e+00 
9.6846140000000003e-01,	 2.6045360000000001e-01,	 2.7703006457025933e-02,	 1.5868872975450749e+03,	 4.2376693936879656e+02,	 4.5855517293979000e+02,	 3.6546722680994098e+03,	 4.1092801671484966e+02,	 3.9970381658004932e+00 
9.6910160000000001e-01,	 2.6062160000000001e-01,	 2.7702358448037923e-02,	 1.5868958129110622e+03,	 4.2376819049405594e+02,	 4.5855132483709849e+02,	 3.6545561120532593e+03,	 4.1092629249863978e+02,	 3.9970757434012425e+00 
9.6973080000000000e-01,	 2.6078669999999998e-01,	 2.7701207198102880e-02,	 1.5869066872520023e+03,	 4.2375993178129050e+02,	 4.5854411512184475e+02,	 3.6543467791247358e+03,	 4.1092306202797693e+02,	 3.9971275484691726e+00 
9.7036000000000000e-01,	 2.6095190000000001e-01,	 2.7701719273846303e-02,	 1.5869053304400913e+03,	 4.2377502111502406e+02,	 4.5854793852162726e+02,	 3.6544448031984957e+03,	 4.1092477518906560e+02,	 3.9971171680755679e+00 
9.7097880000000003e-01,	 2.6111429999999997e-01,	 2.7702701071564001e-02,	 1.5869009949385436e+03,	 4.2379730017623319e+02,	 4.5855488014443858e+02,	 3.6546296470936236e+03,	 4.1092788552253154e+02,	 3.9970907088186451e+00 
9.7159750000000000e-01,	 2.6127669999999997e-01,	 2.7702980449735598e-02,	 1.5869030449573443e+03,	 4.2381138680382134e+02,	 4.5855718727124474e+02,	 3.6546848912835108e+03,	 4.1092891927180415e+02,	 3.9970943183474854e+00 
9.7220620000000002e-01,	 2.6143640000000001e-01,	 2.7702770626947971e-02,	 1.5869085051183274e+03,	 4.2381770550859483e+02,	 4.5855622573533543e+02,	 3.6546495472957345e+03,	 4.1092848843882393e+02,	 3.9971153140690330e+00 
9.7281479999999998e-01,	 2.6159620000000000e-01,	 2.7702439718097268e-02,	 1.5869145076672983e+03,	 4.2382222310256384e+02,	 4.5855444564694619e+02,	 3.6545917056392468e+03,	 4.1092769083789744e+02,	 3.9971400217180624e+00 
9.7341390000000005e-01,	 2.6175339999999997e-01,	 2.7701836839928873e-02,	 1.5869219014042642e+03,	 4.2382429228551200e+02,	 4.5855110702020943e+02,	 3.6544855644418212e+03,	 4.1092619490138901e+02,	 3.9971732557664490e+00 
9.7401289999999996e-01,	 2.6191059999999999e-01,	 2.7701135548908646e-02,	 1.5869303608143682e+03,	 4.2382075947573435e+02,	 4.5854664864692052e+02,	 3.6543575179162599e+03,	 4.1092419723221298e+02,	 3.9972103585236187e+00 
9.7460270000000004e-01,	 2.6206540000000000e-01,	 2.7701242491002562e-02,	 1.5869313347518730e+03,	 4.2383261914898048e+02,	 4.5854732039728378e+02,	 3.6543769793000888e+03,	 4.1092449822490204e+02,	 3.9972171674859749e+00 
9.7519250000000002e-01,	 2.6222020000000001e-01,	 2.7701091984184207e-02,	 1.5869358007399126e+03,	 4.2383944342366931e+02,	 4.5854727509860822e+02,	 3.6543567632784047e+03,	 4.1092447792783003e+02,	 3.9972321502366310e+00 
9.7577349999999996e-01,	 2.6237270000000001e-01,	 2.7700840212747380e-02,	 1.5869405504852764e+03,	 4.2384482655981668e+02,	 4.5854562879820446e+02,	 3.6543104293860433e+03,	 4.1092374026589431e+02,	 3.9972538733661707e+00 
9.7635450000000001e-01,	 2.6252510000000001e-01,	 2.7700587983469853e-02,	 1.5869439982945096e+03,	 4.2384892837399940e+02,	 4.5854409728271071e+02,	 3.6542649500865377e+03,	 4.1092305403473108e+02,	 3.9972712306688694e+00 
9.7692710000000005e-01,	 2.6267540000000000e-01,	 2.7701480511002734e-02,	 1.5869408612443829e+03,	 4.2386881294592274e+02,	 4.5855033207229604e+02,	 3.6544323807941641e+03,	 4.1092584767015677e+02,	 3.9972491668488748e+00 
9.7749980000000003e-01,	 2.6282570000000000e-01,	 2.7701733136357341e-02,	 1.5869429649986530e+03,	 4.2388379148130537e+02,	 4.5855260126739506e+02,	 3.6544837922069487e+03,	 4.1092686442851544e+02,	 3.9972536288643292e+00 
9.7806439999999994e-01,	 2.6297389999999998e-01,	 2.7701195671669732e-02,	 1.5869507071534060e+03,	 4.2388436298098020e+02,	 4.5854929520372133e+02,	 3.6543865409694381e+03,	 4.1092538307956659e+02,	 3.9972866001271559e+00 
9.7862910000000003e-01,	 2.6312209999999997e-01,	 2.7700662502562853e-02,	 1.5869569890065422e+03,	 4.2388574510685783e+02,	 4.5854651171810127e+02,	 3.6542940220106925e+03,	 4.1092413587818339e+02,	 3.9973143696638997e+00 
9.7918609999999995e-01,	 2.6326820000000001e-01,	 2.7700808460156771e-02,	 1.5869583290469209e+03,	 4.2389654998960248e+02,	 4.5854801326845012e+02,	 3.6543252432216686e+03,	 4.1092480868100563e+02,	 3.9973177609777322e+00 
9.7974320000000004e-01,	 2.6341439999999999e-01,	 2.7701115547313162e-02,	 1.5869589479733440e+03,	 4.2390880387803236e+02,	 4.5855040571837168e+02,	 3.6543848210021797e+03,	 4.1092588066879699e+02,	 3.9973164839235906e+00 
9.8029310000000003e-01,	 2.6355869999999998e-01,	 2.7700550308200969e-02,	 1.5869670984879938e+03,	 4.2390872170404714e+02,	 4.5854695131191318e+02,	 3.6542827244789487e+03,	 4.1092433284802109e+02,	 3.9973506516406956e+00 
9.8084300000000002e-01,	 2.6370299999999997e-01,	 2.7700512817263198e-02,	 1.5869693802738593e+03,	 4.2391819936722021e+02,	 4.5854720520265619e+02,	 3.6542798019592565e+03,	 4.1092444660940305e+02,	 3.9973608619743835e+00 
9.8138610000000004e-01,	 2.6384560000000001e-01,	 2.7700817524683577e-02,	 1.5869705652425027e+03,	 4.2393084900968438e+02,	 4.5854943576837246e+02,	 3.6543377754152848e+03,	 4.1092544606252096e+02,	 3.9973618700852542e+00 
9.8192919999999995e-01,	 2.6398810000000000e-01,	 2.7700389921130782e-02,	 1.5869775017325651e+03,	 4.2393357954331009e+02,	 4.5854680892406611e+02,	 3.6542604313452803e+03,	 4.1092426904797247e+02,	 3.9973913430536405e+00 
9.8246590000000000e-01,	 2.6412890000000000e-01,	 2.7699568386423561e-02,	 1.5869868689634495e+03,	 4.2393013216444683e+02,	 4.5854158852902134e+02,	 3.6541104525023584e+03,	 4.1092192992677286e+02,	 3.9974339559606733e+00 
9.8300259999999995e-01,	 2.6426980000000000e-01,	 2.7698725607278995e-02,	 1.5869957394055209e+03,	 4.2392547175730766e+02,	 4.5853618070908573e+02,	 3.6539561800651295e+03,	 4.1091950681138690e+02,	 3.9974754566571118e+00 
9.8353330000000005e-01,	 2.6440900000000001e-01,	 2.7698516395263155e-02,	 1.5869997574038216e+03,	 4.2393032841029060e+02,	 4.5853529405379595e+02,	 3.6539215157937174e+03,	 4.1091910952089398e+02,	 3.9974918185980570e+00 
9.8406389999999999e-01,	 2.6454830000000001e-01,	 2.7698387919324583e-02,	 1.5870028750271092e+03,	 4.2393581940752188e+02,	 4.5853490658305293e+02,	 3.6539014799411393e+03,	 4.1091893590376088e+02,	 3.9975042861534651e+00 
9.8458889999999999e-01,	 2.6468599999999998e-01,	 2.7698518177364212e-02,	 1.5870043399085066e+03,	 4.2394487221415176e+02,	 4.5853620450802089e+02,	 3.6539290060040034e+03,	 4.1091951747515452e+02,	 3.9975077583549878e+00 
9.8511389999999999e-01,	 2.6482380000000000e-01,	 2.7699209303247097e-02,	 1.5870021516886370e+03,	 4.2396192358882359e+02,	 4.5854124255468889e+02,	 3.6540603254369498e+03,	 4.1092177490433789e+02,	 3.9974913625812043e+00 
9.8563369999999995e-01,	 2.6496019999999998e-01,	 2.7700178914162994e-02,	 1.5869981836880381e+03,	 4.2398160895944943e+02,	 4.5854776459808596e+02,	 3.6542402110342691e+03,	 4.1092469725882876e+02,	 3.9974659690607965e+00 
9.8615339999999996e-01,	 2.6509660000000002e-01,	 2.7699810687686243e-02,	 1.5870050082336522e+03,	 4.2398941173310112e+02,	 4.5854570473834190e+02,	 3.6541752190316301e+03,	 4.1092377429261057e+02,	 3.9974958938138863e+00 
9.8666820000000000e-01,	 2.6523170000000001e-01,	 2.7699703565905825e-02,	 1.5870089649633519e+03,	 4.2399467795128754e+02,	 4.5854551711277003e+02,	 3.6541595922713109e+03,	 4.1092369022267462e+02,	 3.9975093220931814e+00 