TITLE = "Final State"
VARIABLES = "X", "Y", "rho", "u", "v", "T", "p", "c", "M"
ZONE I=73, J=25, DATAPACKING=POINT
5.4120789999999996e-01,	 2.2890030000000000e-01,	 1.1586417955292441e-02,	 1.7360000345984859e+03,	 1.0074020736052364e-04,	 2.9999997704431257e+02,	 1.0000008050976472e+03,	 3.3237669439831291e+02,	 5.2229896495634094e+00 
5.4548839999999998e-01,	 2.2942060000000000e-01,	 1.1586411741488672e-02,	 1.7360000223429060e+03,	 1.0838212818214645e-04,	 2.9999997830590928e+02,	 1.0000002730018645e+03,	 3.3237669509718853e+02,	 5.2229896017086723e+00 
5.4976879999999995e-01,	 2.2994080000000000e-01,	 1.1586404623692774e-02,	 1.7360000002986224e+03,	 9.8206827024380173e-05,	 2.9999998456890171e+02,	 9.9999967955561931e+02,	 3.3237669856664331e+02,	 5.2229894808662340e+00 
5.5404920000000002e-01,	 2.3046100000000000e-01,	 1.1586405564395767e-02,	 1.7359999913892498e+03,	 8.0517313818437140e-05,	 2.9999999511285557e+02,	 9.9999979589234135e+02,	 3.3237670440758455e+02,	 5.2229893622762500e+00 
5.5832970000000004e-01,	 2.3098130000000000e-01,	 1.1586407049354710e-02,	 1.7359999906293765e+03,	 6.1212428365481808e-05,	 3.0000000551664505e+02,	 9.9999995873551291e+02,	 3.3237671017088002e+02,	 5.2229892694252653e+00 
5.6261010000000000e-01,	 2.3150150000000000e-01,	 1.1586407556151101e-02,	 1.7359999906530877e+03,	 4.4243829904689285e-05,	 3.0000001310121013e+02,	 1.0000000277579940e+03,	 3.3237671437243455e+02,	 5.2229892034731007e+00 
5.6689060000000002e-01,	 2.3202170000000000e-01,	 1.1586407727809767e-02,	 1.7359999894865621e+03,	 4.4966789470217975e-05,	 3.0000002097632409e+02,	 1.0000000688238954e+03,	 3.3237671873494185e+02,	 5.2229891314107304e+00 
5.7117099999999998e-01,	 2.3254190000000000e-01,	 1.1586408103713801e-02,	 1.7359999842361904e+03,	 5.0886668824584718e-05,	 3.0000002903809002e+02,	 1.0000001281399873e+03,	 3.3237672320084698e+02,	 5.2229890454367629e+00 
5.7545150000000000e-01,	 2.3306220000000000e-01,	 1.1586408122350213e-02,	 1.7359999673032080e+03,	 3.3555126343893064e-05,	 3.0000002518969245e+02,	 1.0000001169204672e+03,	 3.3237672106898424e+02,	 5.2229890279918383e+00 
5.7973189999999997e-01,	 2.3358240000000000e-01,	 1.1586406672554062e-02,	 1.7359999460150111e+03,	 5.9370924309345590e-05,	 3.0000004442617239e+02,	 1.0000000559130041e+03,	 3.3237673172524671e+02,	 5.2229887964902595e+00 
5.8401239999999999e-01,	 2.3410259999999999e-01,	 1.1586411240149953e-02,	 1.7359999403888930e+03,	 3.2730687584556098e-04,	 3.0000018164545452e+02,	 1.0000009075310005e+03,	 3.3237680773938763e+02,	 5.2229875850727199e+00 
5.8829279999999995e-01,	 2.3462290000000000e-01,	 1.1586419735246069e-02,	 1.7359999062761012e+03,	 1.1015732227654177e-03,	 3.0000055880536740e+02,	 1.0000028979274463e+03,	 3.3237701667120859e+02,	 5.2229841992766994e+00 
5.9257329999999997e-01,	 2.3514309999999999e-01,	 1.1586479727129345e-02,	 1.7359997599350495e+03,	 2.9668496125643149e-03,	 3.0000143243250426e+02,	 1.0000109878267623e+03,	 3.3237750062592386e+02,	 5.2229761541271573e+00 
5.9685370000000004e-01,	 2.3566329999999999e-01,	 1.1586634818232596e-02,	 1.7359988587806897e+03,	 7.3372955212467564e-03,	 3.0000337499315219e+02,	 1.0000308488269731e+03,	 3.3237857672479868e+02,	 5.2229565331870349e+00 
6.0113410000000000e-01,	 2.3618349999999999e-01,	 1.1586947050047210e-02,	 1.7359963764297331e+03,	 1.7079078871862816e-02,	 3.0000768408343140e+02,	 1.0000721615450818e+03,	 3.3238096377152948e+02,	 5.2229115555096230e+00 
6.0541460000000002e-01,	 2.3670379999999999e-01,	 1.1587495849176474e-02,	 1.7359909784335468e+03,	 3.7972810905200487e-02,	 3.0001723966643482e+02,	 1.0001513834633713e+03,	 3.3238625708361184e+02,	 5.2228121405517784e+00 
6.0969499999999999e-01,	 2.3722399999999999e-01,	 1.1588590532719031e-02,	 1.7359791469599263e+03,	 8.3053007244055038e-02,	 3.0003834360807531e+02,	 1.0003162285950913e+03,	 3.3239794730652483e+02,	 5.2225928680172924e+00 
6.1397550000000001e-01,	 2.3774419999999999e-01,	 1.1591002092613364e-02,	 1.7359530548725575e+03,	 1.8181117403274016e-01,	 3.0008484111563155e+02,	 1.0006794453262436e+03,	 3.3242370247689456e+02,	 5.2221097697268162e+00 
6.1825589999999997e-01,	 2.3826449999999999e-01,	 1.1596323692853502e-02,	 1.7358956566408492e+03,	 3.9852659594119078e-01,	 3.0018707081361458e+02,	 1.0014799293340824e+03,	 3.3248032093316658e+02,	 5.2210479631262725e+00 
6.2253639999999999e-01,	 2.3878469999999999e-01,	 1.1608011315105672e-02,	 1.7357697443803918e+03,	 8.7316631121661326e-01,	 3.0041099555291072e+02,	 1.0032371015117238e+03,	 3.3260430477105768e+02,	 5.2187236878823233e+00 
6.2681679999999995e-01,	 2.3930489999999999e-01,	 1.1633482043301110e-02,	 1.7354949497072193e+03,	 1.9055941803735750e+00,	 3.0089804817842662e+02,	 1.0070685463926519e+03,	 3.3287381919466605e+02,	 5.2136752601578502e+00 
6.3109729999999997e-01,	 2.3982509999999999e-01,	 1.1688201473696810e-02,	 1.7349018241134513e+03,	 4.1184654879936922e+00,	 3.0194246973268912e+02,	 1.0153174014290336e+03,	 3.3345102372025707e+02,	 5.2028831495006500e+00 
6.3537770000000005e-01,	 2.4034539999999999e-01,	 1.1802579387520534e-02,	 1.7336522135133591e+03,	 8.7213129630779456e+00,	 3.0411691359556823e+02,	 1.0326364294505786e+03,	 3.3464954642255481e+02,	 5.1805662629208324e+00 
6.3965819999999995e-01,	 2.4086559999999999e-01,	 1.2030297099357008e-02,	 1.7311465999030688e+03,	 1.7764517161435695e+01,	 3.0839035190335892e+02,	 1.0673505366687118e+03,	 3.3699258486849664e+02,	 5.1373170282187290e+00 
6.4393860000000003e-01,	 2.4138579999999998e-01,	 1.2450397365216288e-02,	 1.7265438154714234e+03,	 3.3908011220355391e+01,	 3.1599336133493421e+02,	 1.1318558209175617e+03,	 3.4112137446450163e+02,	 5.0623528059350642e+00 
6.4821910000000005e-01,	 2.4190609999999999e-01,	 1.3150528076996612e-02,	 1.7191025522952284e+03,	 5.9086771239142976e+01,	 3.2771348460733566e+02,	 1.2398451349353634e+03,	 3.4738983750950291e+02,	 4.9515486462744791e+00 
6.5249950000000001e-01,	 2.4242629999999998e-01,	 1.4186649971156488e-02,	 1.7087871221282940e+03,	 9.2551880271751855e+01,	 3.4294350457898850e+02,	 1.3996916525813367e+03,	 3.5537039448372224e+02,	 4.8155156581134895e+00 
6.5677989999999997e-01,	 2.4294649999999998e-01,	 1.5540192287839132e-02,	 1.6965262754789833e+03,	 1.3046338404987890e+02,	 3.5968921152903022e+02,	 1.6081025388260819e+03,	 3.6394324202438571e+02,	 4.6752763109390925e+00 
6.6106039999999999e-01,	 2.4346669999999998e-01,	 1.7105565290672545e-02,	 1.6837124721020075e+03,	 1.6798008811418893e+02,	 3.7581025632393516e+02,	 1.8494219032101053e+03,	 3.7200970313285558e+02,	 4.5484598959809048e+00 
6.6534079999999995e-01,	 2.4398699999999998e-01,	 1.8720579471483784e-02,	 1.6714616015531551e+03,	 2.0164446984344062e+02,	 3.9009614125239938e+02,	 2.1009749749826456e+03,	 3.7901446126272947e+02,	 4.4419962617106492e+00 
6.6962129999999997e-01,	 2.4450719999999998e-01,	 2.0229580314816243e-02,	 1.6604309513553676e+03,	 2.2988472250728205e+02,	 4.0219939987195744e+02,	 2.3407672290077007e+03,	 3.8484926607808097e+02,	 4.3556508958462166e+00 
6.7390170000000005e-01,	 2.4502739999999998e-01,	 2.1536240549931120e-02,	 1.6510121161170921e+03,	 2.5237397892147823e+02,	 4.1211814567964836e+02,	 2.5534159563271296e+03,	 3.8956579904878424e+02,	 4.2873109079999043e+00 
6.7818219999999996e-01,	 2.4554769999999998e-01,	 2.2608254652725014e-02,	 1.6433613633940099e+03,	 2.6961163406495382e+02,	 4.1998553545823870e+02,	 2.7316893348208105e+03,	 3.9326665136134778e+02,	 4.2346100119651098e+00 
6.8246260000000003e-01,	 2.4606789999999998e-01,	 2.3452589134872644e-02,	 1.6373664518496369e+03,	 2.8258505168705392e+02,	 4.2605411312764727e+02,	 2.8746534411061330e+03,	 3.9609771287240170e+02,	 4.1948550999729797e+00 
6.8674310000000005e-01,	 2.4658809999999998e-01,	 2.4098568603823506e-02,	 1.6327667957591743e+03,	 2.9231018142747894e+02,	 4.3064573012302935e+02,	 2.9856667409283245e+03,	 3.9822638035608503e+02,	 4.1652846103800476e+00 
6.9102350000000001e-01,	 2.4710829999999998e-01,	 2.4584723168356137e-02,	 1.6292712384034719e+03,	 2.9963613385032795e+02,	 4.3408380910414382e+02,	 3.0702154103574785e+03,	 3.9981284908388159e+02,	 4.1434258031834155e+00 
6.9530400000000003e-01,	 2.4762859999999998e-01,	 2.4948477134367486e-02,	 1.6266145346675485e+03,	 3.0523074535634419e+02,	 4.3665070621264528e+02,	 3.1340660549895379e+03,	 4.0099322681704047e+02,	 4.1272635498670578e+00 
6.9958440000000000e-01,	 2.4814880000000000e-01,	 2.5221565609845023e-02,	 1.6245764728147060e+03,	 3.0959788113109494e+02,	 4.3857558239154179e+02,	 3.1823389020100544e+03,	 4.0187609901188728e+02,	 4.1152326464239524e+00 
7.0386479999999996e-01,	 2.4866900000000000e-01,	 2.5429119835600315e-02,	 1.6229845664884019e+03,	 3.1310408512031700e+02,	 4.4003719700590193e+02,	 3.2192199875864840e+03,	 4.0254519623096024e+02,	 4.1061488260257990e+00 
7.0814529999999998e-01,	 2.4918930000000000e-01,	 2.5590118188957726e-02,	 1.6217091343117904e+03,	 3.1601135388540581e+02,	 4.4116976524597374e+02,	 3.2479397948785295e+03,	 4.0306289897188719e+02,	 4.0991412552673188e+00 
7.1242570000000005e-01,	 2.4970950000000000e-01,	 2.5718409214609377e-02,	 1.6206557088473053e+03,	 3.1850385324939117e+02,	 4.4207111197335234e+02,	 3.2708917823669544e+03,	 4.0347443448504123e+02,	 4.0935843542316119e+00 
7.1670619999999996e-01,	 2.5022970000000000e-01,	 2.5823838795389575e-02,	 1.6197571803102119e+03,	 3.2070892493652639e+02,	 4.4281078244924208e+02,	 3.2897956867271369e+03,	 4.0381183879289580e+02,	 4.0890377344557365e+00 
7.2098660000000003e-01,	 2.5074989999999997e-01,	 2.5913310060495950e-02,	 1.6189665146522980e+03,	 3.2271424342742648e+02,	 4.4343756813415479e+02,	 3.3058665098140123e+03,	 4.0409752964345176e+02,	 4.0851947043351400e+00 
7.2526710000000005e-01,	 2.5127020000000000e-01,	 2.5991578211204402e-02,	 1.6182513077512531e+03,	 3.2457929820868628e+02,	 4.4398508030883886e+02,	 3.3199455770044542e+03,	 4.0434692220901439e+02,	 4.0818449679336366e+00 
7.2954750000000002e-01,	 2.5179039999999997e-01,	 2.6061884978053843e-02,	 1.6175894664826569e+03,	 3.2634431437269217e+02,	 4.4447624707513603e+02,	 3.3326086584011850e+03,	 4.0457051854443552e+02,	 4.0788456140451492e+00 
7.3382800000000004e-01,	 2.5231060000000000e-01,	 2.6126411387383308e-02,	 1.6169661750892114e+03,	 3.2803599054210952e+02,	 4.4492648338457644e+02,	 3.3442439918607884e+03,	 4.0477537339720033e+02,	 4.0761007824207329e+00 
7.3810840000000000e-01,	 2.5283089999999997e-01,	 2.6186628540343988e-02,	 1.6163713947823881e+03,	 3.2967243600684014e+02,	 4.4534621210316266e+02,	 3.3551140524218990e+03,	 4.0496625414437074e+02,	 4.0735457634698919e+00 
7.4238890000000002e-01,	 2.5335110000000000e-01,	 2.6243522744511610e-02,	 1.6157984077657127e+03,	 3.3126571237441453e+02,	 4.4574241801987966e+02,	 3.3653949085491367e+03,	 4.0514635487392417e+02,	 4.0711372037575364e+00 
7.4666929999999998e-01,	 2.5387129999999997e-01,	 2.6297748265148684e-02,	 1.6152427775115016e+03,	 3.3282383681668182e+02,	 4.4611974480721744e+02,	 3.3752033727190460e+03,	 4.0531779944351786e+02,	 4.0688463172425751e+00 
7.5094970000000005e-01,	 2.5439149999999999e-01,	 2.6349753328529124e-02,	 1.6147014605027125e+03,	 3.3435233112217020e+02,	 4.4648137877768266e+02,	 3.3846194207452959e+03,	 4.0548204569614694e+02,	 4.0666533210967808e+00 
7.5523019999999996e-01,	 2.5491179999999997e-01,	 2.6399842623656869e-02,	 1.6141723679715910e+03,	 3.3585508509524391e+02,	 4.4682950049608235e+02,	 3.3936973842915836e+03,	 4.0564009215552232e+02,	 4.0645446580039009e+00 
7.5951060000000004e-01,	 2.5543199999999999e-01,	 2.6448226376344128e-02,	 1.6136540631874855e+03,	 3.3733472461121482e+02,	 4.4716563600382267e+02,	 3.4024747599690377e+03,	 4.0579263849018156e+02,	 4.0625107920947912e+00 
7.6379109999999995e-01,	 2.5595219999999996e-01,	 2.6495053893998415e-02,	 1.6131455817412170e+03,	 3.3879315724018295e+02,	 4.4749083468668312e+02,	 3.4109777731562444e+03,	 4.0594016687482230e+02,	 4.0605452024337136e+00 
7.6807150000000002e-01,	 2.5647249999999999e-01,	 2.6540440547614459e-02,	 1.6126460984359287e+03,	 3.4023201989696838e+02,	 4.4780597085065381e+02,	 3.4192270841238023e+03,	 4.0608307920130835e+02,	 4.0586424137474362e+00 
7.7235200000000004e-01,	 2.5699269999999996e-01,	 2.6584475170473736e-02,	 1.6121550168056251e+03,	 3.4165249417825805e+02,	 4.4811169842209063e+02,	 3.4272383604100501e+03,	 4.0622167673992584e+02,	 4.0567983118166255e+00 
7.7663240000000000e-01,	 2.5751289999999999e-01,	 2.6627223614131404e-02,	 1.6116719162471709e+03,	 3.4305551898363728e+02,	 4.4840850224140706e+02,	 3.4350230969061222e+03,	 4.0635618359145479e+02,	 4.0550098795388676e+00 
7.8091290000000002e-01,	 2.5803310000000002e-01,	 2.6668742779068361e-02,	 1.6111964359333940e+03,	 3.4444183928690109e+02,	 4.4869681361144671e+02,	 3.4425912891421444e+03,	 4.0648679918134172e+02,	 4.0532744117139545e+00 
7.8519329999999998e-01,	 2.5855339999999999e-01,	 2.6709082496864833e-02,	 1.6107282358587011e+03,	 3.4581226596955577e+02,	 4.4897701604695749e+02,	 3.4499517104726388e+03,	 4.0661370092363757e+02,	 4.0515895249466514e+00 
7.8947380000000000e-01,	 2.5907360000000001e-01,	 2.6748284871689440e-02,	 1.6102670385666609e+03,	 3.4716742244082968e+02,	 4.4924944378935834e+02,	 3.4571118072253053e+03,	 4.0673704360063175e+02,	 4.0499531318223507e+00 
7.9375419999999997e-01,	 2.5959379999999999e-01,	 2.6786383004796147e-02,	 1.6098126689118103e+03,	 3.4850781906503880e+02,	 4.4951434091522071e+02,	 3.4640772105726387e+03,	 4.0685694090649957e+02,	 4.0483637552052860e+00 
7.9803469999999999e-01,	 2.6011410000000001e-01,	 2.6823410986461377e-02,	 1.6093649140867099e+03,	 3.4983396116325309e+02,	 4.4977198735132475e+02,	 3.4708539917648800e+03,	 4.0697352253140019e+02,	 4.0468196773583420e+00 
8.0231509999999995e-01,	 2.6063429999999999e-01,	 2.6859396994505694e-02,	 1.6089235880575015e+03,	 3.5114640071067174e+02,	 4.5002261956233622e+02,	 3.4774471564809091e+03,	 4.0708689827601665e+02,	 4.0453194785597404e+00 
8.0659550000000002e-01,	 2.6115450000000001e-01,	 2.6894365184832632e-02,	 1.6084885830665398e+03,	 3.5244546863586061e+02,	 4.5026642803616232e+02,	 3.4838608644629353e+03,	 4.0719715695179173e+02,	 4.0438620301132149e+00 
8.1087600000000004e-01,	 2.6167469999999998e-01,	 2.6928341633852822e-02,	 1.6080597586392373e+03,	 3.5373168136234779e+02,	 4.5050361513343285e+02,	 3.4900996429839292e+03,	 4.0730439256817715e+02,	 4.0424461793024760e+00 
8.1515640000000000e-01,	 2.6219500000000001e-01,	 2.6961347102157529e-02,	 1.6076370191958426e+03,	 3.5500529724965241e+02,	 4.5073436921477958e+02,	 3.4961672479871927e+03,	 4.0740869263979221e+02,	 4.0410708183735924e+00 
8.1943690000000002e-01,	 2.6271519999999998e-01,	 2.6993401236506700e-02,	 1.6072202443211515e+03,	 3.5626680450162144e+02,	 4.5095885962158513e+02,	 3.5020671668434125e+03,	 4.0751013593354463e+02,	 4.0397349958973274e+00 
8.2371729999999999e-01,	 2.6323540000000001e-01,	 2.7024519556063338e-02,	 1.6068094225229488e+03,	 3.5751636335813043e+02,	 4.5117721169573184e+02,	 3.5078020308452406e+03,	 4.0760878120142502e+02,	 4.0384380531969013e+00 
8.2799780000000001e-01,	 2.6375569999999998e-01,	 2.7054720778079897e-02,	 1.6064044450344418e+03,	 3.5875444418391066e+02,	 4.5138958497208989e+02,	 3.5133751711620839e+03,	 4.0770470252205922e+02,	 4.0371791177083596e+00 
8.3227819999999997e-01,	 2.6427590000000001e-01,	 2.7084022022492438e-02,	 1.6060052420705345e+03,	 3.5998129467608447e+02,	 4.5159614964022433e+02,	 3.5187898141923365e+03,	 4.0779797865945972e+02,	 4.0359572520176545e+00 
8.3655869999999999e-01,	 2.6479609999999998e-01,	 2.7112436164971863e-02,	 1.6056117923422387e+03,	 3.6119723857513156e+02,	 4.5179699736726593e+02,	 3.5240480411673261e+03,	 4.0788865280751781e+02,	 4.0347720333372985e+00 
8.4083909999999995e-01,	 2.6531630000000000e-01,	 2.7139977178776531e-02,	 1.6052240675575176e+03,	 3.6240246924980602e+02,	 4.5199226074557839e+02,	 3.5291524104046803e+03,	 4.0797678654133057e+02,	 4.0336227753445737e+00 
8.4511959999999997e-01,	 2.6583659999999998e-01,	 2.7166660060867300e-02,	 1.6048419955690024e+03,	 3.6359738096292733e+02,	 4.5218206368211969e+02,	 3.5341055613842750e+03,	 4.0806243741559325e+02,	 4.0325088400949696e+00 
8.4940000000000004e-01,	 2.6635680000000000e-01,	 2.7185539448443086e-02,	 1.6045721194842163e+03,	 3.6449643630124086e+02,	 4.5231621190588140e+02,	 3.5376107640714649e+03,	 4.0812296258475465e+02,	 4.0317533091129247e+00 
5.4055520000000001e-01,	 2.3194779999999998e-01,	 1.1586378384506772e-02,	 1.7359999362127555e+03,	 7.9199349009560332e-05,	 3.0000000302400531e+02,	 9.9999747642020009e+02,	 3.3237670879005435e+02,	 5.2229891274039337e+00 
5.4484480000000002e-01,	 2.3244640000000000e-01,	 1.1586398312331093e-02,	 1.7359999766049855e+03,	 7.5257944213855189e-05,	 3.0000000311110244e+02,	 9.9999919664175411e+02,	 3.3237670883830282e+02,	 5.2229892481712064e+00 
5.4913429999999996e-01,	 2.3294489999999998e-01,	 1.1586402881978928e-02,	 1.7359999852608223e+03,	 5.6946249456705231e-05,	 3.0000000475616639e+02,	 9.9999959652259429e+02,	 3.3237670974960434e+02,	 5.2229892598932004e+00 
5.5342380000000002e-01,	 2.3344350000000000e-01,	 1.1586404268221433e-02,	 1.7359999888346181e+03,	 3.4438980405323174e-05,	 3.0000000710390714e+02,	 9.9999972399225283e+02,	 3.3237671105016159e+02,	 5.2229892502084034e+00 
5.5771329999999997e-01,	 2.3394199999999998e-01,	 1.1586404911040141e-02,	 1.7359999883830394e+03,	 2.4353780315704361e-05,	 3.0000000895588931e+02,	 9.9999978564594130e+02,	 3.3237671207608781e+02,	 5.2229892327282963e+00 
5.6200280000000002e-01,	 2.3444060000000000e-01,	 1.1586405435309612e-02,	 1.7359999853003028e+03,	 2.2515028417058607e-05,	 3.0000001052178368e+02,	 9.9999983611425364e+02,	 3.3237671294353248e+02,	 5.2229892098223871e+00 
5.6629229999999997e-01,	 2.3493909999999998e-01,	 1.1586405944506627e-02,	 1.7359999810044972e+03,	 2.1017206641379364e-05,	 3.0000001234697794e+02,	 9.9999988614602512e+02,	 3.3237671395461922e+02,	 5.2229891810095959e+00 
5.7058180000000003e-01,	 2.3543770000000000e-01,	 1.1586406696700116e-02,	 1.7359999743807828e+03,	 2.0871381089015322e-05,	 3.0000001583107257e+02,	 9.9999996268001200e+02,	 3.3237671588467236e+02,	 5.2229891307522820e+00 
5.7487129999999997e-01,	 2.3593619999999998e-01,	 1.1586407043155769e-02,	 1.7359999573394000e+03,	 1.8983498645371858e-05,	 3.0000001735176289e+02,	 9.9999999765088512e+02,	 3.3237671672707569e+02,	 5.2229890662434126e+00 
5.7916080000000003e-01,	 2.3643480000000000e-01,	 1.1586406567327481e-02,	 1.7359999181549260e+03,	 9.1540366388831768e-06,	 3.0000001550837897e+02,	 9.9999995043846923e+02,	 3.3237671570591260e+02,	 5.2229889643982803e+00 
5.8345040000000004e-01,	 2.3693339999999999e-01,	 1.1586407387937271e-02,	 1.7359998594872775e+03,	 4.4519857422156121e-05,	 3.0000003678715132e+02,	 1.0000000921929244e+03,	 3.3237672749352589e+02,	 5.2229886026574830e+00 
5.8773989999999998e-01,	 2.3743190000000000e-01,	 1.1586407099070476e-02,	 1.7359997325691436e+03,	 2.1397840024030713e-04,	 3.0000012304313123e+02,	 1.0000003547813151e+03,	 3.3237677527598385e+02,	 5.2229874699509216e+00 
5.9202940000000004e-01,	 2.3793049999999999e-01,	 1.1586416786629382e-02,	 1.7359994264158045e+03,	 7.0106969064537045e-04,	 3.0000035374263950e+02,	 1.0000019598947215e+03,	 3.3237690307450453e+02,	 5.2229845406159585e+00 
5.9631889999999999e-01,	 2.3842900000000000e-01,	 1.1586443226818992e-02,	 1.7359989921394103e+03,	 1.9733608988885638e-03,	 3.0000089510269953e+02,	 1.0000060464370895e+03,	 3.3237720296664929e+02,	 5.2229785215285114e+00 
6.0060840000000004e-01,	 2.3892759999999999e-01,	 1.1586505927888856e-02,	 1.7359981315507021e+03,	 4.9908385266085285e-03,	 3.0000212225740472e+02,	 1.0000155486092578e+03,	 3.3237788276100667e+02,	 5.2229652500859389e+00 
6.0489789999999999e-01,	 2.3942610000000000e-01,	 1.1586692209268553e-02,	 1.7359959744732887e+03,	 1.1686387347525513e-02,	 3.0000488145452471e+02,	 1.0000408238510146e+03,	 3.3237941124017425e+02,	 5.2229347420626171e+00 
6.0918740000000005e-01,	 2.3992469999999999e-01,	 1.1587122305293098e-02,	 1.7359912406243911e+03,	 2.5956083216740377e-02,	 3.0001101232490652e+02,	 1.0000983826895807e+03,	 3.3238280745937436e+02,	 5.2228671334952175e+00 
6.1347689999999999e-01,	 2.4042319999999998e-01,	 1.1588074565391966e-02,	 1.7359808573194825e+03,	 5.6891149614367989e-02,	 3.0002455419808592e+02,	 1.0002257194685400e+03,	 3.3239030890907031e+02,	 5.2227180267358344e+00 
6.1776640000000005e-01,	 2.4092179999999999e-01,	 1.1590192162213402e-02,	 1.7359580292127116e+03,	 1.2484849892921898e-01,	 3.0005439116027799e+02,	 1.0005079890582288e+03,	 3.3240683634054739e+02,	 5.2223896861246706e+00 
6.2205589999999999e-01,	 2.4142029999999998e-01,	 1.1594865794308386e-02,	 1.7359078822337920e+03,	 2.7488485200647489e-01,	 3.0012013193678251e+02,	 1.0011307300498077e+03,	 3.3244324888332517e+02,	 5.2216668854879975e+00 
6.2634550000000000e-01,	 2.4191889999999999e-01,	 1.1605145246771011e-02,	 1.7357980875684407e+03,	 6.0506519813398862e-01,	 3.0026480928340749e+02,	 1.0025013223154787e+03,	 3.3252336882024815e+02,	 5.2200788148627595e+00 
6.3063499999999995e-01,	 2.4241739999999998e-01,	 1.1627605981534046e-02,	 1.7355596241327985e+03,	 1.3275796273096216e+00,	 3.0058205334117537e+02,	 1.0055028154953443e+03,	 3.3269898582596261e+02,	 5.2166078221608636e+00 
6.3492450000000000e-01,	 2.4291599999999999e-01,	 1.1675955764724522e-02,	 1.7350501478357864e+03,	 2.8885327719346119e+00,	 3.0127091055767175e+02,	 1.0119978235552510e+03,	 3.3307999816238402e+02,	 5.2091166141433716e+00 
6.3921399999999995e-01,	 2.4341449999999998e-01,	 1.1777004716445317e-02,	 1.7339956820148602e+03,	 6.1707687904261732e+00,	 3.0273250885406031e+02,	 1.0257082449366960e+03,	 3.3388697970781999e+02,	 5.1933940744021418e+00 
6.4350350000000001e-01,	 2.4391309999999999e-01,	 1.1977256309532055e-02,	 1.7319323645932132e+03,	 1.2706878508374283e+01,	 3.0567890804777056e+02,	 1.0533016249437978e+03,	 3.3550785326915565e+02,	 5.1622606181615414e+00 
6.4779299999999995e-01,	 2.4441159999999998e-01,	 1.2343715184005791e-02,	 1.7282241871603537e+03,	 2.4605117775858695e+01,	 3.1110492801050350e+02,	 1.1047975955111701e+03,	 3.3847250752682271e+02,	 5.1064688982330795e+00 
6.5208250000000001e-01,	 2.4491019999999999e-01,	 1.2950117611098929e-02,	 1.7222447250265102e+03,	 4.3825962122505835e+01,	 3.1992913401506138e+02,	 1.1919483603826477e+03,	 3.4323917448367013e+02,	 5.0192471678457125e+00 
6.5637199999999996e-01,	 2.4540869999999998e-01,	 1.3848730209832820e-02,	 1.7136798251994412e+03,	 7.1034525016736609e+01,	 3.3242045740487737e+02,	 1.3244258082191645e+03,	 3.4987573589658319e+02,	 4.9021731421430541e+00 
6.6066150000000001e-01,	 2.4590730000000000e-01,	 1.5042187473172097e-02,	 1.7027883235855629e+03,	 1.0480203325140550e+02,	 3.4780783898515261e+02,	 1.5051517939006819e+03,	 3.5788181942105501e+02,	 4.7669658638496788e+00 
6.6495099999999996e-01,	 2.4640579999999998e-01,	 1.6469890256614855e-02,	 1.6904325130123186e+03,	 1.4177468971694898e+02,	 3.6442817901868602e+02,	 1.7267624413228293e+03,	 3.6633290426552458e+02,	 4.6306714950663102e+00 
6.6924059999999996e-01,	 2.4690440000000000e-01,	 1.8015965962151902e-02,	 1.6777934843827170e+03,	 1.7790726537838353e+02,	 3.8044518221844498e+02,	 1.9718758988433083e+03,	 3.7429669981347695e+02,	 4.5076524774510753e+00 
6.7353010000000002e-01,	 2.4740299999999998e-01,	 1.9542164716003049e-02,	 1.6659565171796446e+03,	 2.1002311688408233e+02,	 3.9457136236420911e+02,	 2.2183402967287534e+03,	 3.8118230705534518e+02,	 4.4050913525568962e+00 
6.7781959999999997e-01,	 2.4790150000000000e-01,	 2.0929236509220094e-02,	 1.6555999270508830e+03,	 2.3663405482510532e+02,	 4.0629674820340574e+02,	 2.4463955025324271e+03,	 3.8680459695804501e+02,	 4.3236958293950183e+00 
6.8210910000000002e-01,	 2.4840009999999998e-01,	 2.2106988446691254e-02,	 1.6469885080347990e+03,	 2.5764656795871707e+02,	 4.1565201447260677e+02,	 2.6435614579812018e+03,	 3.9123247620364640e+02,	 4.2609427062562366e+00 
6.8639859999999997e-01,	 2.4889860000000000e-01,	 2.3058357398189080e-02,	 1.6401264541339624e+03,	 2.7369180565702931e+02,	 4.2289374095203618e+02,	 2.8053662068831909e+03,	 3.9462589717615901e+02,	 4.2136247761781567e+00 
6.9068810000000003e-01,	 2.4939719999999999e-01,	 2.3799305800359098e-02,	 1.6348202478973596e+03,	 2.8573840200430629e+02,	 4.2837382333685741e+02,	 2.9330343642827202e+03,	 3.9717455334483270e+02,	 4.1785241675904494e+00 
6.9497759999999997e-01,	 2.4989570000000000e-01,	 2.4362130893751083e-02,	 1.6307840573330520e+03,	 2.9475745028568321e+02,	 4.3246146586450720e+02,	 3.0310466867273535e+03,	 3.9906502015698931e+02,	 4.1527269717263113e+00 
6.9926710000000003e-01,	 2.5039430000000001e-01,	 2.4784025436763626e-02,	 1.6277300638463889e+03,	 3.0155668204415508e+02,	 4.3549170627998262e+02,	 3.1051434772126745e+03,	 4.0046069598299528e+02,	 4.1338087234801772e+00 
7.0355659999999998e-01,	 2.5089279999999997e-01,	 2.5099478238264257e-02,	 1.6254083490627306e+03,	 3.0676511619262590e+02,	 4.3774166276165636e+02,	 3.1609127938310176e+03,	 4.0149384810655613e+02,	 4.1198716484728877e+00 
7.0784619999999998e-01,	 2.5139139999999999e-01,	 2.5337030811298750e-02,	 1.6236182016340776e+03,	 3.1085228993428490e+02,	 4.3942801525697519e+02,	 3.2031213962818929e+03,	 4.0226646057170984e+02,	 4.1094843972654269e+00 
7.1213570000000004e-01,	 2.5188990000000000e-01,	 2.5518876261666407e-02,	 1.6222061412674259e+03,	 3.1415855292411317e+02,	 4.4071441310559652e+02,	 3.2355546333948741e+03,	 4.0285483514748296e+02,	 4.1015923747618936e+00 
7.1642519999999998e-01,	 2.5238850000000002e-01,	 2.5661480135752635e-02,	 1.6210593764759205e+03,	 3.1692463191913350e+02,	 4.4172040647301441e+02,	 3.2610623557406880e+03,	 4.0331435981075242e+02,	 4.0954380853045143e+00 
7.2071470000000004e-01,	 2.5288699999999997e-01,	 2.5776704460979932e-02,	 1.6200970979543060e+03,	 3.1931853870009434e+02,	 4.4253132998750567e+02,	 3.2817187067445084e+03,	 4.0368439833018789e+02,	 4.0904871862393177e+00 
7.2500419999999999e-01,	 2.5338559999999999e-01,	 2.5872896598699513e-02,	 1.6192626675158892e+03,	 3.2145577273070387e+02,	 4.4320690045338085e+02,	 3.2989938337130689e+03,	 4.0399241409661357e+02,	 4.0863688517825025e+00 
7.2929370000000004e-01,	 2.5388410000000000e-01,	 2.5955837038252265e-02,	 1.6185169328342290e+03,	 3.2341516513328554e+02,	 4.4378833359211279e+02,	 3.3139111287870887e+03,	 4.0425732151274133e+02,	 4.0828286742414939e+00 
7.3358319999999999e-01,	 2.5438269999999996e-01,	 2.6029454295900895e-02,	 1.6178333127899732e+03,	 3.2524963170269905e+02,	 4.4430359947237321e+02,	 3.3271687811466472e+03,	 4.0449193738884196e+02,	 4.0796946895250255e+00 
7.3787270000000005e-01,	 2.5488119999999997e-01,	 2.6096406673147367e-02,	 1.6171938653233597e+03,	 3.2699465840755198e+02,	 4.4477157098225393e+02,	 3.3392402698475512e+03,	 4.0470490087326095e+02,	 4.0768512134673394e+00 
7.4216219999999999e-01,	 2.5537979999999999e-01,	 2.6158474333392162e-02,	 1.6165865898202703e+03,	 3.2867390333576554e+02,	 4.4520487028885356e+02,	 3.3504431610331262e+03,	 4.0490198593483831e+02,	 4.0742210354184225e+00 
7.4645170000000005e-01,	 2.5587830000000000e-01,	 2.6216840782270070e-02,	 1.6160034854216531e+03,	 3.3030312273481582e+02,	 4.4561190900746192e+02,	 3.3609889365662057e+03,	 4.0508703909038297e+02,	 4.0717527491467012e+00 
7.5074129999999994e-01,	 2.5637689999999996e-01,	 2.6272294193606504e-02,	 1.6154392356755595e+03,	 3.3189274155994860e+02,	 4.4599829521323812e+02,	 3.3710184911206579e+03,	 4.0526262475841634e+02,	 4.0694120771237738e+00 
7.5503080000000000e-01,	 2.5687539999999998e-01,	 2.6325364941116570e-02,	 1.6148902809930378e+03,	 3.3344978171776677e+02,	 4.4636779433873176e+02,	 3.3806264912840520e+03,	 4.0543046529167060e+02,	 4.0671759978350623e+00 
7.5932029999999995e-01,	 2.5737399999999999e-01,	 2.6376410554941613e-02,	 1.6143542409190961e+03,	 3.3497898338716118e+02,	 4.4672294085641829e+02,	 3.3898765853400832e+03,	 4.0559172086471369e+02,	 4.0650289981483727e+00 
7.6360980000000001e-01,	 2.5787260000000001e-01,	 2.6425669650194432e-02,	 1.6138294477895251e+03,	 3.3648371745217861e+02,	 4.4706549107451292e+02,	 3.3988115625687938e+03,	 4.0574719632361899e+02,	 4.0629602664067406e+00 
7.6789929999999995e-01,	 2.5837109999999996e-01,	 2.6473319315207064e-02,	 1.6133147617908396e+03,	 3.3796630769865692e+02,	 4.4739669280878877e+02,	 3.4074626563996208e+03,	 4.0589746434684434e+02,	 4.0609621355505467e+00 
7.7218880000000001e-01,	 2.5886969999999998e-01,	 2.6519486790551841e-02,	 1.6128093218586405e+03,	 3.3942855865015616e+02,	 4.4771747952484964e+02,	 3.4158524511536216e+03,	 4.0604295400439486e+02,	 4.0590288368650818e+00 
7.7647829999999995e-01,	 2.5936819999999999e-01,	 2.6564263657305968e-02,	 1.6123125073696845e+03,	 3.4087179357425453e+02,	 4.4802854271654780e+02,	 3.4239972104257349e+03,	 4.0618398388620693e+02,	 4.0571560804622289e+00 
7.8076780000000001e-01,	 2.5986680000000001e-01,	 2.6607722418264090e-02,	 1.6118238563200634e+03,	 3.4229703194140768e+02,	 4.4833041808506857e+02,	 3.4319096373449252e+03,	 4.0632080138854724e+02,	 4.0553405442619113e+00 
7.8505729999999996e-01,	 2.6036529999999997e-01,	 2.6649926522739939e-02,	 1.6113429559594463e+03,	 3.4370525254383915e+02,	 4.4862357559189775e+02,	 3.4396008362105440e+03,	 4.0645362365819767e+02,	 4.0535793294665670e+00 
7.8934689999999996e-01,	 2.6086389999999998e-01,	 2.6690926840651389e-02,	 1.6108694787495881e+03,	 3.4509723371514798e+02,	 4.4890840599790812e+02,	 3.4470797423371127e+03,	 4.0658263156948016e+02,	 4.0518700219247714e+00 
7.9363640000000002e-01,	 2.6136239999999999e-01,	 2.6730761343063895e-02,	 1.6104031755890448e+03,	 3.4647357719181156e+02,	 4.4918522804424606e+02,	 3.4543531232397077e+03,	 4.0670797305184476e+02,	 4.0502106504329962e+00 