TITLE = "Final State"
VARIABLES = "X", "Y", "rho", "u", "v", "T", "p", "c", "M"
ZONE I=48, J=48, DATAPACKING=POINT
2.6490109999999998e+00,	 4.6895189999999998e-01,	 1.7080606336243968e-02,	 7.5572132596603501e+02,	 5.5056104521331783e+01,	 5.2277390993400320e+02,	 2.5688995699137281e+03,	 4.3875987705876810e+02,	 1.7269677470544635e+00 
2.6564790000000000e+00,	 4.6894859999999999e-01,	 1.7031568513735905e-02,	 7.5636341188084248e+02,	 5.5228739511941008e+01,	 5.2230961351304904e+02,	 2.5592493569910926e+03,	 4.3856499367937380e+02,	 1.7292239692402445e+00 
2.6639469999999998e+00,	 4.6894540000000001e-01,	 1.6973212503789536e-02,	 7.5718281967378880e+02,	 5.5422162326067806e+01,	 5.2174432347959475e+02,	 2.5477201313205715e+03,	 4.3832760236091934e+02,	 1.7320570842290774e+00 
2.6714150000000001e+00,	 4.6894219999999998e-01,	 1.6914248351806972e-02,	 7.5797532717991680e+02,	 5.5613832968448847e+01,	 5.2117095582308446e+02,	 2.5360793952008721e+03,	 4.3808668746810162e+02,	 1.7348457447143293e+00 
2.6788829999999999e+00,	 4.6893889999999999e-01,	 1.6854566650411421e-02,	 7.5873000331281776e+02,	 5.5814546551674276e+01,	 5.2058797650614906e+02,	 2.5243040362253091e+03,	 4.3784159808238741e+02,	 1.7375694379909195e+00 
2.6863510000000002e+00,	 4.6893570000000001e-01,	 1.6794022972071630e-02,	 7.5947427274800475e+02,	 5.6035332294273118e+01,	 5.1999317639134961e+02,	 2.5123626307674535e+03,	 4.3759139765955183e+02,	 1.7402962289863564e+00 
2.6938190000000000e+00,	 4.6893249999999997e-01,	 1.6732961728203655e-02,	 7.6020761353130206e+02,	 5.6265086067186310e+01,	 5.1939133858580044e+02,	 2.5003307280826411e+03,	 4.3733809116897220e+02,	 1.7430151940095062e+00 
2.7012870000000002e+00,	 4.6892919999999999e-01,	 1.6671395836498241e-02,	 7.6091810823996025e+02,	 5.6500633438733288e+01,	 5.1878216756401048e+02,	 2.4882094784586429e+03,	 4.3708154871812087e+02,	 1.7456991824640828e+00 
2.7087539999999999e+00,	 4.6892600000000001e-01,	 1.6609243596756591e-02,	 7.6160825342739406e+02,	 5.6740282899527031e+01,	 5.1816429329935829e+02,	 2.4759808111046691e+03,	 4.3682118712830112e+02,	 1.7483559502691537e+00 
2.7162220000000001e+00,	 4.6892270000000003e-01,	 1.6546425040385677e-02,	 7.6227682434172652e+02,	 5.6981446847261680e+01,	 5.1753664720803158e+02,	 2.4636285120914367e+03,	 4.3655654887649280e+02,	 1.7509841231732886e+00 
2.7236899999999999e+00,	 4.6891939999999999e-01,	 1.6482991063460652e-02,	 7.6292312629595222e+02,	 5.7219751252597234e+01,	 5.1689961630984669e+02,	 2.4511628761183365e+03,	 4.3628778951200314e+02,	 1.7535807686269735e+00 
2.7311580000000002e+00,	 4.6891620000000001e-01,	 1.6419698790983345e-02,	 7.6356383192500721e+02,	 5.7444758269454219e+01,	 5.1626220211063855e+02,	 2.4387397272350208e+03,	 4.3601870262399319e+02,	 1.7561669547477743e+00 
2.7386260000000000e+00,	 4.6891290000000002e-01,	 1.6357190148858836e-02,	 7.6421425444175077e+02,	 5.7653271850097340e+01,	 5.1563218829680591e+02,	 2.4264908617434012e+03,	 4.3575257655301522e+02,	 1.7587638659177156e+00 
2.7460939999999998e+00,	 4.6890959999999998e-01,	 1.6294875014938592e-02,	 7.6485858437204161e+02,	 5.7855432416375677e+01,	 5.1500219180792669e+02,	 2.4142934076624556e+03,	 4.3548629517717876e+02,	 1.7613496040717838e+00 
2.7535620000000001e+00,	 4.6890630000000000e-01,	 1.6232840685352204e-02,	 7.6549973575337913e+02,	 5.8051319408552445e+01,	 5.1437318954420027e+02,	 2.4021647392588520e+03,	 4.3522027149790432e+02,	 1.7639291595101911e+00 
2.7610299999999999e+00,	 4.6890300000000001e-01,	 1.6171911450805692e-02,	 7.6616156841796249e+02,	 5.8238747845896228e+01,	 5.1375543757396213e+02,	 2.3902741988379762e+03,	 4.3495884753810822e+02,	 1.7665391907048187e+00 
2.7684980000000001e+00,	 4.6889969999999997e-01,	 1.6111546881868298e-02,	 7.6683056426830058e+02,	 5.8427385144122837e+01,	 5.1314218312977459e+02,	 2.3785095218784909e+03,	 4.3469917136308720e+02,	 1.7691619461252672e+00 
2.7759659999999999e+00,	 4.6889639999999999e-01,	 1.6051286584776836e-02,	 7.6749413891125346e+02,	 5.8620894596018580e+01,	 5.1252774794824495e+02,	 2.3667760676145426e+03,	 4.3443883955299793e+02,	 1.7717789788761382e+00 
2.7834340000000002e+00,	 4.6889310000000001e-01,	 1.5991358219523039e-02,	 7.6815886983107725e+02,	 5.8816889785367472e+01,	 5.1191520430808072e+02,	 2.3551215048533213e+03,	 4.3417915380185599e+02,	 1.7743996627696998e+00 
2.7909020000000000e+00,	 4.6888970000000002e-01,	 1.5931827347896700e-02,	 7.6882657695667569e+02,	 5.9013202757378906e+01,	 5.1130544679294189e+02,	 2.3435593046538720e+03,	 4.3392049486495489e+02,	 1.7770262357709066e+00 
2.7983690000000001e+00,	 4.6888639999999998e-01,	 1.5872901529335119e-02,	 7.6950261145852187e+02,	 5.9204975431650467e+01,	 5.1070111714077694e+02,	 2.3321316738365367e+03,	 4.3366398620248566e+02,	 1.7796655229558462e+00 
2.8058369999999999e+00,	 4.6888310000000000e-01,	 1.5815097851569197e-02,	 7.7020083651304094e+02,	 5.9385740307503823e+01,	 5.1010899898531187e+02,	 2.3209447698224831e+03,	 4.3341251348845265e+02,	 1.7823363784672193e+00 
2.8133050000000002e+00,	 4.6887970000000001e-01,	 1.5758838284705139e-02,	 7.7093240422625968e+02,	 5.9550913936152412e+01,	 5.0953462299955299e+02,	 2.3100843402409778e+03,	 4.3316843638343460e+02,	 1.7850538796957294e+00 
2.8207730000000000e+00,	 4.6887630000000002e-01,	 1.5704119715091440e-02,	 7.7169709453688415e+02,	 5.9698652585989834e+01,	 5.0897802000613365e+02,	 2.2995484414528532e+03,	 4.3293178050457834e+02,	 1.7878170075093651e+00 
2.8282409999999998e+00,	 4.6887289999999998e-01,	 1.5650796680898554e-02,	 7.7249140598295571e+02,	 5.9828013644320663e+01,	 5.0843736397620273e+02,	 2.2893059945097707e+03,	 4.3270178101511004e+02,	 1.7906206076810773e+00 
2.8357090000000000e+00,	 4.6886960000000000e-01,	 1.5598591360643892e-02,	 7.7330912461803246e+02,	 5.9940406059154569e+01,	 5.0790911945515325e+02,	 2.2792991524073318e+03,	 4.3247694334449909e+02,	 1.7934567271748012e+00 
2.8431769999999998e+00,	 4.6886620000000001e-01,	 1.5546937470128447e-02,	 7.7413615249842360e+02,	 6.0040652190511963e+01,	 5.0738604664436315e+02,	 2.2694118019016146e+03,	 4.3225419168050428e+02,	 1.7963064344480997e+00 
2.8506450000000001e+00,	 4.6886270000000002e-01,	 1.5495279364886266e-02,	 7.7495837641537514e+02,	 6.0134110465823198e+01,	 5.0686094173928296e+02,	 2.2595303241778124e+03,	 4.3203045912564636e+02,	 1.7991508672575773e+00 
2.8581129999999999e+00,	 4.6885929999999998e-01,	 1.5443365975921663e-02,	 7.7576971234147538e+02,	 6.0224294966759672e+01,	 5.0633052990542114e+02,	 2.2496036888592312e+03,	 4.3180434774971991e+02,	 1.8019824512256446e+00 
2.8655810000000002e+00,	 4.6885589999999999e-01,	 1.5391160060315144e-02,	 7.7656934095835277e+02,	 6.0313130863844975e+01,	 5.0579438414154231e+02,	 2.2396249404966256e+03,	 4.3157567164163140e+02,	 1.8048004425163178e+00 
2.8730490000000000e+00,	 4.6885240000000000e-01,	 1.5338626640779417e-02,	 7.7735602294639102e+02,	 6.0402555481578233e+01,	 5.0525203146992061e+02,	 2.2295873014227727e+03,	 4.3134422482688262e+02,	 1.8076032162434472e+00 
2.8805170000000002e+00,	 4.6884900000000002e-01,	 1.5285717484662514e-02,	 7.7812768406158034e+02,	 6.0494537774959838e+01,	 5.0470279097813119e+02,	 2.2194812086093239e+03,	 4.3110971203040896e+02,	 1.8103875993640335e+00 
2.8879850000000000e+00,	 4.6884550000000003e-01,	 1.5232519523816570e-02,	 7.7888560438174386e+02,	 6.0589684129145013e+01,	 5.0414781056816230e+02,	 2.2093247937152255e+03,	 4.3087261877656329e+02,	 1.8131546502989178e+00 
2.8954529999999998e+00,	 4.6884199999999998e-01,	 1.5179183884833261e-02,	 7.7963287695553254e+02,	 6.0688260465872645e+01,	 5.0358898375345086e+02,	 2.1991486225236258e+03,	 4.3063375040345892e+02,	 1.8159082043571944e+00 
2.9029210000000001e+00,	 4.6883849999999999e-01,	 1.5125742565542522e-02,	 7.8036915937677577e+02,	 6.0791483277832761e+01,	 5.0302668612748766e+02,	 2.1889592035651413e+03,	 4.3039326463580124e+02,	 1.8186470345296717e+00 
2.9103889999999999e+00,	 4.6883500000000000e-01,	 1.5072329035208627e-02,	 7.8109727941982328e+02,	 6.0898808786124050e+01,	 5.0246267486268141e+02,	 2.1787836612938145e+03,	 4.3015191090800937e+02,	 1.8213744316856153e+00 
2.9178560000000000e+00,	 4.6883150000000001e-01,	 1.5019349231676724e-02,	 7.8182866859803778e+02,	 6.1006758653981450e+01,	 5.0190236029891844e+02,	 2.1687040534482194e+03,	 4.2991200491843910e+02,	 1.8241064501480209e+00 
2.9253239999999998e+00,	 4.6882800000000002e-01,	 1.4967142019547384e-02,	 7.8257450945263190e+02,	 6.1111987083654931e+01,	 5.0135042960491182e+02,	 2.1587890597054643e+03,	 4.2967555763385099e+02,	 1.8268598604932633e+00 
2.9327920000000001e+00,	 4.6882449999999998e-01,	 1.4915689713919263e-02,	 7.8334152575192502e+02,	 6.1214475671456910e+01,	 5.0080696424653490e+02,	 2.1490357358263504e+03,	 4.2944260969578880e+02,	 1.8296500627939851e+00 
2.9402599999999999e+00,	 4.6882099999999999e-01,	 1.4864331452993658e-02,	 7.8413774940292149e+02,	 6.1326358801538646e+01,	 5.0026347168870331e+02,	 2.1393119200639753e+03,	 4.2920952366014069e+02,	 1.8325134372594907e+00 
2.9477270000000000e+00,	 4.6881760000000000e-01,	 1.4811086321050253e-02,	 7.8497369685264152e+02,	 6.1497707558458288e+01,	 4.9969203700135756e+02,	 2.1292138339203607e+03,	 4.2896431758025409e+02,	 1.8355349315251812e+00 
2.9551949999999998e+00,	 4.6881420000000001e-01,	 1.4754131645431448e-02,	 7.8579910787528411e+02,	 6.2033554323968445e+01,	 4.9907134904622393e+02,	 2.1183915236984949e+03,	 4.2869781771863052e+02,	 1.8386934530257608e+00 
2.9626630000000000e+00,	 4.6881099999999998e-01,	 1.4703740937526830e-02,	 7.8643202476085798e+02,	 6.2432479465632611e+01,	 4.9848053800844400e+02,	 2.1086572178424003e+03,	 4.2844399188108031e+02,	 1.8413288809554595e+00 
2.9701300000000002e+00,	 4.6880800000000000e-01,	 1.4675664511904106e-02,	 7.8631473852118290e+02,	 6.2078132363076548e+01,	 4.9807842803434175e+02,	 2.1029330442324904e+03,	 4.2827115026839959e+02,	 1.8417337004929191e+00 
2.9775980000000000e+00,	 4.6880529999999998e-01,	 1.4821398818951562e-02,	 7.8295264597293510e+02,	 5.7866871695991961e+01,	 4.9981777157677152e+02,	 2.1312324737863014e+03,	 4.2901828307289190e+02,	 1.8299643443206295e+00 
2.9850650000000001e+00,	 4.6880300000000003e-01,	 1.5444982378380431e-02,	 7.7222645579863138e+02,	 4.1715822311999375e+01,	 5.0771209978071386e+02,	 2.2559780419771510e+03,	 4.3239305557020180e+02,	 1.7885402492224054e+00 
2.9925329999999999e+00,	 4.6880159999999998e-01,	 1.6872498452906025e-02,	 7.4920877438414311e+02,	 9.3308278277701220e+00,	 5.2835702683771933e+02,	 2.5647014782454225e+03,	 4.4109658696473235e+02,	 1.6986458260394317e+00 
3.0000000000000000e+00,	 4.6880149999999998e-01,	 1.7566262810993070e-02,	 7.3947167564739652e+02,	 -1.8524199407919149e+01,	 5.3751647627355328e+02,	 2.7164461148262108e+03,	 4.4490352231079390e+02,	 1.6626158778186839e+00 
2.6490089999999999e+00,	 4.7471910000000000e-01,	 1.7084837367863530e-02,	 7.5654513004790897e+02,	 5.6299915715978479e+01,	 5.2198065011471431e+02,	 2.5656368842121778e+03,	 4.3842686243440085e+02,	 1.7303617588491169e+00 
2.6564770000000002e+00,	 4.7471600000000003e-01,	 1.7036021342889365e-02,	 7.5718849473561897e+02,	 5.6472317653733235e+01,	 5.2151747969502492e+02,	 2.5560360938278436e+03,	 4.3823230405309369e+02,	 1.7326232339002960e+00 
2.6639450000000000e+00,	 4.7471289999999999e-01,	 1.6978118600667412e-02,	 7.5800730811098606e+02,	 5.6663030188574929e+01,	 5.2095576114176799e+02,	 2.5446048209955552e+03,	 4.3799623379102582e+02,	 1.7354537641910435e+00 
2.6714129999999998e+00,	 4.7470980000000002e-01,	 1.6919596964994798e-02,	 7.5880046038906585e+02,	 5.6850815650268970e+01,	 5.2038560610291438e+02,	 2.5330585397497903e+03,	 4.3775648778643790e+02,	 1.7382430381378493e+00 
2.6788810000000001e+00,	 4.7470669999999998e-01,	 1.6860394183411974e-02,	 7.5956151028932391e+02,	 5.7046712488274245e+01,	 5.1980647345473631e+02,	 2.5213860464230265e+03,	 4.3751283226913677e+02,	 1.7409791953713758e+00 
2.6863489999999999e+00,	 4.7470370000000001e-01,	 1.6800338600905265e-02,	 7.6031168312088880e+02,	 5.7259574605108938e+01,	 5.1921790542559643e+02,	 2.5095602865459200e+03,	 4.3726506794501108e+02,	 1.7437129526332575e+00 
2.6938170000000001e+00,	 4.7470059999999997e-01,	 1.6739677091762648e-02,	 7.6104749934724873e+02,	 5.7480874469954408e+01,	 5.1862376015608652e+02,	 2.4976375973045606e+03,	 4.3701481334670177e+02,	 1.7464285303396851e+00 
2.7012849999999999e+00,	 4.7469739999999999e-01,	 1.6678604876652414e-02,	 7.6176062605390780e+02,	 5.7708792895357902e+01,	 5.1801724538350800e+02,	 2.4856150840801301e+03,	 4.3675920080099075e+02,	 1.7491181028948748e+00 
2.7087530000000002e+00,	 4.7469430000000001e-01,	 1.6617058265926330e-02,	 7.6245350252340529e+02,	 5.7942383302398191e+01,	 5.1739526632306536e+02,	 2.4734693385410342e+03,	 4.3649691545019135e+02,	 1.7517924211786566e+00 
2.7162210000000000e+00,	 4.7469119999999998e-01,	 1.6554553085543641e-02,	 7.6312309861998756e+02,	 5.8179260033088795e+01,	 5.1676970219507643e+02,	 2.4611860321093227e+03,	 4.3623295922967310e+02,	 1.7544241331320809e+00 
2.7236889999999998e+00,	 4.7468810000000000e-01,	 1.6491087941631101e-02,	 7.6376649950662227e+02,	 5.8417013420443986e+01,	 5.1613858003825658e+02,	 2.4487563082820443e+03,	 4.3596649585527865e+02,	 1.7570094821412969e+00 
2.7311570000000001e+00,	 4.7468500000000002e-01,	 1.6427700543678946e-02,	 7.6439929864150713e+02,	 5.8648134777459759e+01,	 5.1549904068747730e+02,	 2.4363213806554027e+03,	 4.3569631245517513e+02,	 1.7595876968768822e+00 
2.7386249999999999e+00,	 4.7468179999999999e-01,	 1.6365207341532285e-02,	 7.6504305272964939e+02,	 5.8866971756931569e+01,	 5.1486648340956663e+02,	 2.4240751010152740e+03,	 4.3542891382775105e+02,	 1.7621808607355944e+00 
2.7460930000000001e+00,	 4.7467870000000001e-01,	 1.6303051947222327e-02,	 7.6568496863012092e+02,	 5.9078533717480937e+01,	 5.1423874725055998e+02,	 2.4119241549962808e+03,	 4.3516339077728594e+02,	 1.7647641927690954e+00 
2.7535609999999999e+00,	 4.7467559999999998e-01,	 1.6241121927831989e-02,	 7.6632236900129556e+02,	 5.9283731818780801e+01,	 5.1361190188282171e+02,	 2.3998331231087363e+03,	 4.3489808275053110e+02,	 1.7673384028519878e+00 
2.7610280000000000e+00,	 4.7467239999999999e-01,	 1.6180392525441515e-02,	 7.6698175812370494e+02,	 5.9481049313512543e+01,	 5.1299684349834763e+02,	 2.3879964863442806e+03,	 4.3463760607603842e+02,	 1.7699451913663211e+00 
2.7684959999999998e+00,	 4.7466920000000001e-01,	 1.6120454323605368e-02,	 7.6765202779876051e+02,	 5.9677625331157714e+01,	 5.1238788416790976e+02,	 2.3763262573637321e+03,	 4.3437955846569201e+02,	 1.7725700984480131e+00 
2.7759640000000001e+00,	 4.7466609999999998e-01,	 1.6060611259838993e-02,	 7.6831634948063743e+02,	 5.9877477515495528e+01,	 5.1177765177009371e+02,	 2.3646851554073005e+03,	 4.3412081752226800e+02,	 1.7751879498370580e+00 
2.7834319999999999e+00,	 4.7466290000000000e-01,	 1.6001022571035094e-02,	 7.6898085886262811e+02,	 6.0079686875233442e+01,	 5.1116915255558177e+02,	 2.3531104523025956e+03,	 4.3386265780788364e+02,	 1.7778074616373984e+00 
2.7909000000000002e+00,	 4.7465970000000002e-01,	 1.5941760789708517e-02,	 7.6964741858023308e+02,	 6.0282643510857753e+01,	 5.1056252285493656e+02,	 2.3416132045475124e+03,	 4.3360513825138798e+02,	 1.7804323799320925e+00 
2.7983680000000000e+00,	 4.7465649999999998e-01,	 1.5882974742611307e-02,	 7.7031994521481067e+02,	 6.0482340306057594e+01,	 5.0995929756630062e+02,	 2.3302219935628082e+03,	 4.3334891215092472e+02,	 1.7830683016530948e+00 
2.8058360000000002e+00,	 4.7465330000000000e-01,	 1.5825151815550498e-02,	 7.7101162110715677e+02,	 6.0673142675117987e+01,	 5.0936610125080381e+02,	 2.3190379803964265e+03,	 4.3309679813167713e+02,	 1.7857329189839077e+00 
2.8133040000000000e+00,	 4.7465010000000002e-01,	 1.5768762461331021e-02,	 7.7173449251840441e+02,	 6.0850174614043993e+01,	 5.0878922505253445e+02,	 2.3081575734869116e+03,	 4.3285147947671817e+02,	 1.7884419651057168e+00 
2.8207719999999998e+00,	 4.7464689999999998e-01,	 1.5713856663458672e-02,	 7.7248929442659312e+02,	 6.1010182575110093e+01,	 5.0822945952483030e+02,	 2.2975901469987780e+03,	 4.3261330421239512e+02,	 1.7911950309964140e+00 
2.8282400000000001e+00,	 4.7464370000000000e-01,	 1.5660325989275511e-02,	 7.7327318839022064e+02,	 6.1150747394855699e+01,	 5.0768558282286961e+02,	 2.2873128310095594e+03,	 4.3238176383799293e+02,	 1.7939871598832096e+00 
2.8357079999999999e+00,	 4.7464040000000002e-01,	 1.5607973571005686e-02,	 7.7408165072873101e+02,	 6.1272004710143008e+01,	 5.0715518885672975e+02,	 2.2772847176754249e+03,	 4.3215584388348100e+02,	 1.7968120783469617e+00 
2.8431760000000001e+00,	 4.7463719999999998e-01,	 1.5556298552255737e-02,	 7.7490207841673782e+02,	 6.1377975591114641e+01,	 5.0663188089246927e+02,	 2.2674030271091056e+03,	 4.3193282638474136e+02,	 1.7996526891699631e+00 
2.8506440000000000e+00,	 4.7463390000000000e-01,	 1.5504740563647630e-02,	 7.7572032692456389e+02,	 6.1474368747618911e+01,	 5.0610842791572617e+02,	 2.2575532893497225e+03,	 4.3170963182940699e+02,	 1.8024901942775271e+00 
2.8581120000000002e+00,	 4.7463060000000001e-01,	 1.5453012162704656e-02,	 7.7652956032227053e+02,	 6.1566008820486566e+01,	 5.0558099582963274e+02,	 2.2476766031239081e+03,	 4.3148462385402024e+02,	 1.8053165266532865e+00 
2.8655800000000000e+00,	 4.7462739999999998e-01,	 1.5401055631153810e-02,	 7.7732843688066350e+02,	 6.1656153260843496e+01,	 5.0504876404850563e+02,	 2.2377612013868079e+03,	 4.3125744927421806e+02,	 1.8081306800299948e+00 
2.8730479999999998e+00,	 4.7462409999999999e-01,	 1.5348832627211796e-02,	 7.7811562095074783e+02,	 6.1747473009561389e+01,	 5.0451121045790410e+02,	 2.2277995335251885e+03,	 4.3102788163073461e+02,	 1.8109310300166261e+00 
2.8805160000000001e+00,	 4.7462080000000001e-01,	 1.5296280328091525e-02,	 7.7888871647312703e+02,	 6.1842436744006157e+01,	 5.0396739867564145e+02,	 2.2177787337832910e+03,	 4.3079551688438926e+02,	 1.8137142118763097e+00 
2.8879839999999999e+00,	 4.7461750000000003e-01,	 1.5243453147313426e-02,	 7.7964829457999008e+02,	 6.1942117233782234e+01,	 5.0341796890622726e+02,	 2.2077099288503327e+03,	 4.3056062428199101e+02,	 1.8164806371926976e+00 
2.8954520000000001e+00,	 4.7461409999999998e-01,	 1.5190499475629249e-02,	 7.8039743077504374e+02,	 6.2046624103932302e+01,	 5.0286481012074051e+02,	 2.1976232281600546e+03,	 4.3032400792350080e+02,	 1.8192340745424553e+00 
2.9029199999999999e+00,	 4.7461080000000000e-01,	 1.5137447262623645e-02,	 7.8113586006497155e+02,	 6.2156548080464383e+01,	 5.0230821384233303e+02,	 2.1875241711107205e+03,	 4.3008578976772390e+02,	 1.8219735159256334e+00 
2.9103880000000002e+00,	 4.7460740000000001e-01,	 1.5084367013773589e-02,	 7.8186520975843064e+02,	 6.2271069134415818e+01,	 5.0174907723225471e+02,	 2.1774270332651140e+03,	 4.2984635144887079e+02,	 1.8247009738590583e+00 
2.9178560000000000e+00,	 4.7460409999999997e-01,	 1.5031594708723901e-02,	 7.8259647471015001e+02,	 6.2387134269134144e+01,	 5.0119184514291931e+02,	 2.1673996105964566e+03,	 4.2960759593243836e+02,	 1.8274333066600912e+00 
2.9253239999999998e+00,	 4.7460069999999999e-01,	 1.4979356011850733e-02,	 7.8334308460537318e+02,	 6.2504170345578444e+01,	 5.0063965337819246e+02,	 2.1574876842899434e+03,	 4.2937086906211499e+02,	 1.8301958458409016e+00 
2.9327920000000001e+00,	 4.7459740000000000e-01,	 1.4927222829020296e-02,	 7.8411765641299598e+02,	 6.2633838978961514e+01,	 5.0008668401816283e+02,	 2.1476041966131534e+03,	 4.2913367796977940e+02,	 1.8330307213007273e+00 
2.9402590000000002e+00,	 4.7459410000000002e-01,	 1.4873566508681494e-02,	 7.8493800446816203e+02,	 6.2821281562192766e+01,	 4.9950946225470648e+02,	 2.1374146255234582e+03,	 4.2888594410122363e+02,	 1.8360310098397623e+00 
2.9477270000000000e+00,	 4.7459079999999998e-01,	 1.4816245844017164e-02,	 7.8578840367739599e+02,	 6.3175973623958484e+01,	 4.9887423781046459e+02,	 2.1264696582921497e+03,	 4.2861315096508150e+02,	 1.8392434494139038e+00 
2.9551949999999998e+00,	 4.7458760000000000e-01,	 1.4763104006417727e-02,	 7.8648562198589775e+02,	 6.3360898269398071e+01,	 4.9826925506080227e+02,	 2.1162730791690492e+03,	 4.2835318341740145e+02,	 1.8420167442329094e+00 
2.9626630000000000e+00,	 4.7458450000000002e-01,	 1.4745254699428468e-02,	 7.8646053002997974e+02,	 6.2817951349189201e+01,	 4.9810739669417461e+02,	 2.1130277811754368e+03,	 4.2828360439227151e+02,	 1.8421562297976695e+00 
2.9701300000000002e+00,	 4.7458159999999999e-01,	 1.4882476301142780e-02,	 7.8380795515337149e+02,	 5.8346312688328453e+01,	 5.0009844871599290e+02,	 2.1412168113803409e+03,	 4.2913872569302322e+02,	 1.8315210086726599e+00 
2.9775980000000000e+00,	 4.7457899999999997e-01,	 1.5445602722623263e-02,	 7.7464744675042641e+02,	 4.2475643891124065e+01,	 5.0810154443734331e+02,	 2.2577991884643757e+03,	 4.3255885906954092e+02,	 1.7935387833333192e+00 
2.9850650000000001e+00,	 4.7457690000000002e-01,	 1.6607902644700287e-02,	 7.5692836116999081e+02,	 1.2721949303598137e+01,	 5.2393478083338687e+02,	 2.5033522115230680e+03,	 4.3924676165176106e+02,	 1.7234851358092633e+00 
2.9925329999999999e+00,	 4.7457549999999998e-01,	 1.8126952639651098e-02,	 7.3440529918306856e+02,	 -1.9798556666683663e+01,	 5.4341549071334134e+02,	 2.8339145558643299e+03,	 4.4733817407477801e+02,	 1.6423193105730156e+00 
3.0000000000000000e+00,	 4.7457539999999998e-01,	 1.8863920867189146e-02,	 7.2482897831982336e+02,	 -4.0494034549038247e+01,	 5.5114454761971660e+02,	 2.9910757977555618e+03,	 4.5050821138234352e+02,	 1.6114228758787545e+00 
2.6490070000000001e+00,	 4.8048649999999998e-01,	 1.7093474190965317e-02,	 7.5778257183182859e+02,	 5.7684338426318021e+01,	 5.2089556366241902e+02,	 2.5615977713009988e+03,	 4.3797092738987044e+02,	 1.7352177787113707e+00 
2.6564749999999999e+00,	 4.8048360000000001e-01,	 1.7044810624605746e-02,	 7.5842677415468256e+02,	 5.7856152229379973e+01,	 5.2043227757612863e+02,	 2.5520333287291351e+03,	 4.3777611773189136e+02,	 1.7374870485554628e+00 
2.6639430000000002e+00,	 4.8048059999999998e-01,	 1.6987316307993865e-02,	 7.5924404194704516e+02,	 5.8044399939804720e+01,	 5.1987318905258996e+02,	 2.5406926519009294e+03,	 4.3754090809653241e+02,	 1.7403162764955344e+00 
2.6714110000000000e+00,	 4.8047770000000001e-01,	 1.6929353691016516e-02,	 7.6003666866691492e+02,	 5.8232008035789136e+01,	 5.1930731516769856e+02,	 2.5292674570907516e+03,	 4.3730271502306005e+02,	 1.7431041925801432e+00 
2.6788789999999998e+00,	 4.8047469999999998e-01,	 1.6870718835645407e-02,	 7.6080453660993771e+02,	 5.8425254314385228e+01,	 5.1873324461209381e+02,	 2.5177210275294187e+03,	 4.3706093908166594e+02,	 1.7458540132885101e+00 
2.6863470000000000e+00,	 4.8047180000000000e-01,	 1.6811144647138627e-02,	 7.6156089943224856e+02,	 5.8628246061874918e+01,	 5.1815145382848209e+02,	 2.5060165999426476e+03,	 4.3681577515016357e+02,	 1.7485959455634539e+00 
2.6938149999999998e+00,	 4.8046879999999997e-01,	 1.6750949451971885e-02,	 7.6229984590629988e+02,	 5.8838461525392496e+01,	 5.1756460662600045e+02,	 2.4942152787645364e+03,	 4.3656834099037962e+02,	 1.7513116249568956e+00 
2.7012830000000001e+00,	 4.8046580000000000e-01,	 1.6690585350146950e-02,	 7.6301782646248444e+02,	 5.9056781498035789e+01,	 5.1695940888371842e+02,	 2.4823210465709417e+03,	 4.3631302266627995e+02,	 1.7540156737092671e+00 
2.7087509999999999e+00,	 4.8046290000000003e-01,	 1.6629845171855007e-02,	 7.6371578935667389e+02,	 5.9283930138028623e+01,	 5.1633409188986479e+02,	 2.4702957112549111e+03,	 4.3604905948239389e+02,	 1.7567135932642344e+00 
2.7162190000000002e+00,	 4.8045990000000000e-01,	 1.6567797834290361e-02,	 7.6438773078775512e+02,	 5.9518402201006467e+01,	 5.1571348858519207e+02,	 2.4581207597282391e+03,	 4.3578692799053886e+02,	 1.7593492483137361e+00 
2.7236870000000000e+00,	 4.8045690000000002e-01,	 1.6504486489174918e-02,	 7.6502798755114532e+02,	 5.9756522128780269e+01,	 5.1509089373945983e+02,	 2.4457711963900424e+03,	 4.3552379677716442e+02,	 1.7619203417497753e+00 
2.7311550000000002e+00,	 4.8045389999999999e-01,	 1.6441160309634592e-02,	 7.6565113729023994e+02,	 5.9992802825212237e+01,	 5.1445160022003165e+02,	 2.4333631326714030e+03,	 4.3525344256502444e+02,	 1.7644844172038459e+00 
2.7386230000000000e+00,	 4.8045090000000001e-01,	 1.6378729402898973e-02,	 7.6628609897950628e+02,	 6.0223063614376230e+01,	 5.1381771499166507e+02,	 2.4211361866805996e+03,	 4.3498520958802084e+02,	 1.7670691543260972e+00 
2.7460909999999998e+00,	 4.8044789999999998e-01,	 1.6316698248282156e-02,	 7.6692349476412483e+02,	 6.0446052217753753e+01,	 5.1319291762477508e+02,	 2.4090336906158223e+03,	 4.3472066023942705e+02,	 1.7696464500626403e+00 
2.7535590000000001e+00,	 4.8044490000000001e-01,	 1.6254812150636292e-02,	 7.6755500797879870e+02,	 6.0661336576489589e+01,	 5.1256929456306796e+02,	 2.3969803767471303e+03,	 4.3445644747514064e+02,	 1.7722107051078899e+00 
2.7610269999999999e+00,	 4.8044189999999998e-01,	 1.6194243512602350e-02,	 7.6821050485336798e+02,	 6.0870310966566528e+01,	 5.1195691473582644e+02,	 2.3851956910384915e+03,	 4.3419684172086397e+02,	 1.7748132473347544e+00 
2.7684950000000002e+00,	 4.8043890000000000e-01,	 1.6134722040915199e-02,	 7.6888110082656272e+02,	 6.1076506375611238e+01,	 5.1135115367454364e+02,	 2.3736171194760736e+03,	 4.3393988905446895e+02,	 1.7774422887352954e+00 
2.7759630000000000e+00,	 4.8043590000000003e-01,	 1.6075313753432598e-02,	 7.6954545125159575e+02,	 6.1282753332045459e+01,	 5.1074460955819933e+02,	 2.3620723035687110e+03,	 4.3368245169328844e+02,	 1.7800621581115839e+00 
2.7834310000000002e+00,	 4.8043279999999999e-01,	 1.6016110623630474e-02,	 7.7020926148731382e+02,	 6.1490417611288215e+01,	 5.1014037976567482e+02,	 2.3505889944164487e+03,	 4.3342584457431144e+02,	 1.7826808125870979e+00 
2.7908990000000000e+00,	 4.8042980000000002e-01,	 1.5957192564427992e-02,	 7.7087412716500285e+02,	 6.1698790969388149e+01,	 5.0953722190827057e+02,	 2.3391729777462779e+03,	 4.3316954108146609e+02,	 1.7853039486365587e+00 
2.7983669999999998e+00,	 4.8042669999999998e-01,	 1.5898623861844922e-02,	 7.7154186255305058e+02,	 6.1904938185460935e+01,	 5.0893571468940667e+02,	 2.3278361101826208e+03,	 4.3291378788409651e+02,	 1.7879341857592457e+00 
2.8058350000000001e+00,	 4.8042370000000001e-01,	 1.5840814020200756e-02,	 7.7222416428498173e+02,	 6.2104588809435270e+01,	 5.0834228024169670e+02,	 2.3166672824026828e+03,	 4.3266131897601497e+02,	 1.7905863642153159e+00 
2.8133029999999999e+00,	 4.8042059999999998e-01,	 1.5784267328892002e-02,	 7.7293392076216537e+02,	 6.2293034284392888e+01,	 5.0776329836791189e+02,	 2.3057683395716153e+03,	 4.3241485666130296e+02,	 1.7932779968532677e+00 
2.8207710000000001e+00,	 4.8041750000000000e-01,	 1.5729093931641402e-02,	 7.7367301303088743e+02,	 6.2465598003183189e+01,	 5.0719981382427693e+02,	 2.2951587447452530e+03,	 4.3217485632457095e+02,	 1.7960105981723051e+00 
2.8282389999999999e+00,	 4.8041450000000002e-01,	 1.5675229898269902e-02,	 7.7443970054549209e+02,	 6.2618183806640019e+01,	 5.0665136686330129e+02,	 2.2848257002841601e+03,	 4.3194113276048046e+02,	 1.7987800858706318e+00 
2.8357070000000002e+00,	 4.8041139999999999e-01,	 1.5622581747359667e-02,	 7.7523220446974233e+02,	 6.2749487120112889e+01,	 5.0611720654412369e+02,	 2.2747509006688697e+03,	 4.3171337589074903e+02,	 1.8015833242991501e+00 
2.8431750000000000e+00,	 4.8040830000000001e-01,	 1.5570762553340861e-02,	 7.7604064141803133e+02,	 6.2862422442480337e+01,	 5.0559228026378787e+02,	 2.2648542214559866e+03,	 4.3148943913851303e+02,	 1.8044069280969521e+00 
2.8506429999999998e+00,	 4.8040519999999998e-01,	 1.5519246976887422e-02,	 7.7685164410109269e+02,	 6.2962794105029978e+01,	 5.0506965574513936e+02,	 2.2550275873762903e+03,	 4.3126636881552912e+02,	 1.8072334163253849e+00 
2.8581120000000002e+00,	 4.8040200000000000e-01,	 1.5467716280278578e-02,	 7.7765741892749350e+02,	 6.3056777062632698e+01,	 5.0454520299678512e+02,	 2.2452061142976540e+03,	 4.3104240210612909e+02,	 1.8100533110949013e+00 
2.8655800000000000e+00,	 4.8039890000000002e-01,	 1.5416068954377785e-02,	 7.7845550305362553e+02,	 6.3149225114630468e+01,	 5.0401757314414283e+02,	 2.2353691888567078e+03,	 4.3081696112680049e+02,	 1.8128642628754643e+00 
2.8730479999999998e+00,	 4.8039579999999998e-01,	 1.5364249718507203e-02,	 7.7924417670823902e+02,	 6.3243641693682470e+01,	 5.0348600100409783e+02,	 2.2255056161323737e+03,	 4.3058971636329846e+02,	 1.8156643529879404e+00 
2.8805160000000001e+00,	 4.8039260000000000e-01,	 1.5312176641681873e-02,	 7.8002040577369212e+02,	 6.3342835955316801e+01,	 5.0294923787663504e+02,	 2.2155982954728456e+03,	 4.3036013071907729e+02,	 1.8184493708916569e+00 
2.8879839999999999e+00,	 4.8038950000000002e-01,	 1.5259847616683329e-02,	 7.8078336172879017e+02,	 6.3448208898972197e+01,	 5.0240709036095780e+02,	 2.2056464241389144e+03,	 4.3012811765717123e+02,	 1.8212180500954951e+00 
2.8954520000000001e+00,	 4.8038629999999999e-01,	 1.5207390509296396e-02,	 7.8153582298824199e+02,	 6.3559674368275772e+01,	 5.0186120085207352e+02,	 2.1956760121401649e+03,	 4.2989437668583275e+02,	 1.8239738714243734e+00 
2.9029199999999999e+00,	 4.8038310000000001e-01,	 1.5154825400348381e-02,	 7.8227782404091579e+02,	 6.3677216183356748e+01,	 5.0131175098016342e+02,	 2.1856909772752088e+03,	 4.2965898281988098e+02,	 1.8267166082330675e+00 
2.9103880000000002e+00,	 4.8037990000000003e-01,	 1.5102115827940124e-02,	 7.8300976630473349e+02,	 6.3800412664364508e+01,	 5.0075824268983058e+02,	 2.1756841154624426e+03,	 4.2942171978923790e+02,	 1.8294480474686692e+00 
2.9178560000000000e+00,	 4.8037669999999999e-01,	 1.5049388468155291e-02,	 7.8374365140519865e+02,	 6.3929884125087625e+01,	 5.0020234636067960e+02,	 2.1656811416873074e+03,	 4.2918330110356294e+02,	 1.8321931525462869e+00 