TITLE = "Final State"
VARIABLES = "X", "Y", "rho", "u", "v", "T", "p", "c", "M"
ZONE I=76, J=26, DATAPACKING=POINT
-7.5809030000000013e-02,	 3.1194000000000005e-03,	 1.1586407740522199e-02,	 1.7360000000000000e+03,	 -1.0374041472728162e-14,	 3.0000000000000000e+02,	 1.0000000000000000e+03,	 3.4760788074254771e+02,	 4.9941330337264445e+00 
-7.0264049999999995e-02,	 3.1194000000000005e-03,	 1.1586407740522199e-02,	 1.7360000000000000e+03,	 -1.2863811426182874e-14,	 3.0000000000000000e+02,	 1.0000000000000000e+03,	 3.4760788074254771e+02,	 4.9941330337264445e+00 
-6.4719070000000004e-02,	 3.1194000000000005e-03,	 1.1586407740522199e-02,	 1.7360000000000000e+03,	 -5.8094632247277568e-15,	 3.0000000000000000e+02,	 1.0000000000000000e+03,	 3.4760788074254771e+02,	 4.9941330337264445e+00 
-5.9174090000000006e-02,	 3.1194000000000005e-03,	 1.1586407740522199e-02,	 1.7360000000000000e+03,	 -8.2992331781824968e-15,	 3.0000000000000000e+02,	 1.0000000000000000e+03,	 3.4760788074254771e+02,	 4.9941330337264445e+00 
-5.3629109999999994e-02,	 3.1194000000000005e-03,	 1.1586407740522199e-02,	 1.7360000000000000e+03,	 -1.2448849767273771e-15,	 2.9999999999999994e+02,	 9.9999999999999989e+02,	 3.4760788074254765e+02,	 4.9941330337264453e+00 
-4.8084130000000003e-02,	 3.1194000000000005e-03,	 1.1586407740522199e-02,	 1.7360000000000000e+03,	 0.0000000000000000e+00,	 3.0000000000000006e+02,	 1.0000000000000002e+03,	 3.4760788074254771e+02,	 4.9941330337264445e+00 
-4.2539150000000005e-02,	 3.1194000000000005e-03,	 1.1586407740522199e-02,	 1.7360000000000000e+03,	 -8.2992331781825252e-15,	 2.9999999999999994e+02,	 9.9999999999999989e+02,	 3.4760788074254765e+02,	 4.9941330337264453e+00 
-3.6994170000000000e-02,	 3.1194000000000005e-03,	 1.1586407740522199e-02,	 1.7360000000000000e+03,	 -5.8094632247277607e-15,	 3.0000000000000006e+02,	 1.0000000000000002e+03,	 3.4760788074254771e+02,	 4.9941330337264445e+00 
-3.1449190000000002e-02,	 3.1194000000000005e-03,	 1.1586407740522199e-02,	 1.7360000000000000e+03,	 -1.2863811426182874e-14,	 2.9999999999999994e+02,	 9.9999999999999989e+02,	 3.4760788074254765e+02,	 4.9941330337264453e+00 
-2.5904210000000000e-02,	 3.1194000000000005e-03,	 1.1586407740522199e-02,	 1.7360000000000000e+03,	 -5.8094632247277607e-15,	 3.0000000000000000e+02,	 1.0000000000000000e+03,	 3.4760788074254771e+02,	 4.9941330337264445e+00 
-2.0359229999999999e-02,	 3.1194000000000005e-03,	 1.1586407740522199e-02,	 1.7360000000000000e+03,	 -5.8094632247277568e-15,	 3.0000000000000000e+02,	 1.0000000000000000e+03,	 3.4760788074254771e+02,	 4.9941330337264445e+00 
-1.4814250000000001e-02,	 3.1194000000000005e-03,	 1.1586407740522199e-02,	 1.7360000000000000e+03,	 -5.8094632247277591e-15,	 3.0000000000000006e+02,	 1.0000000000000002e+03,	 3.4760788074254771e+02,	 4.9941330337264445e+00 
-9.2692699999999996e-03,	 3.1194000000000005e-03,	 1.1586407740522199e-02,	 1.7360000000000000e+03,	 -8.2992331781825094e-15,	 2.9999999999999994e+02,	 9.9999999999999989e+02,	 3.4760788074254765e+02,	 4.9941330337264453e+00 
-3.7242899999999999e-03,	 3.1194000000000005e-03,	 1.1586407740522199e-02,	 1.7360000000000000e+03,	 -5.8094632247277552e-15,	 3.0000000000000006e+02,	 1.0000000000000002e+03,	 3.4760788074254771e+02,	 4.9941330337264445e+00 
1.0728472500000001e-03,	 3.6558857500000007e-03,	 1.1868918443407393e-02,	 1.7254808728086814e+03,	 5.0610452449006118e+01,	 3.1680873589807038e+02,	 1.0817782159758283e+03,	 3.5721325099887565e+02,	 4.8324717559355603e+00 
5.1221415000000008e-03,	 4.7288572499999994e-03,	 1.2477841301830609e-02,	 1.7090803179379695e+03,	 1.0577186011934643e+02,	 3.4049587571129621e+02,	 1.2223096799290058e+03,	 3.7032660563766632e+02,	 4.6238919307170292e+00 
9.1714367499999994e-03,	 5.8018287499999998e-03,	 1.3211910959931822e-02,	 1.6939012108302006e+03,	 1.5302177101497861e+02,	 3.6007338505702626e+02,	 1.3686317073573161e+03,	 3.8082416396942580e+02,	 4.4661003248268232e+00 
1.3220732499999999e-02,	 6.8747992499999999e-03,	 1.3984052073856812e-02,	 1.6814011889995811e+03,	 1.9053083817342275e+02,	 3.7462509342040477e+02,	 1.5071616477648956e+03,	 3.8844310654389841e+02,	 4.3562670827844165e+00 
1.7270025000000001e-02,	 7.9477714999999990e-03,	 1.4753809469727607e-02,	 1.6713407318201005e+03,	 2.1989859922899723e+02,	 3.8538889412488612e+02,	 1.6358116749109936e+03,	 3.9398399916438859e+02,	 4.2787136434316260e+00 
2.1319317500000001e-02,	 9.0207437500000008e-03,	 1.5500309084910242e-02,	 1.6631824669093664e+03,	 2.4313664281869646e+02,	 3.9355427783069536e+02,	 1.7549911599518998e+03,	 3.9813586838057682e+02,	 4.2218258455435098e+00 
2.5368612499999998e-02,	 1.0093713500000000e-02,	 1.6211727067710319e-02,	 1.6564563224523924e+03,	 2.6187779622402161e+02,	 3.9994193905183516e+02,	 1.8653321213508307e+03,	 4.0135387513365350e+02,	 4.1784307565363452e+00 
2.9417907500000000e-02,	 1.1166685749999999e-02,	 1.6880785834336796e-02,	 1.6508182090374455e+03,	 2.7729349054070303e+02,	 4.0507393435455265e+02,	 1.9672379584906096e+03,	 4.0392072355496043e+02,	 4.1442418635124305e+00 
3.3467202500000001e-02,	 1.2239657999999997e-02,	 1.7503707566344121e-02,	 1.6460204844766779e+03,	 2.9019989211900253e+02,	 4.0929123440246474e+02,	 2.0610685200823832e+03,	 4.0601792597592174e+02,	 4.1165828172613095e+00 
3.7516497500000003e-02,	 1.3312628999999999e-02,	 1.8081247214693591e-02,	 1.6418676647014529e+03,	 3.0118440322541187e+02,	 4.1284558324705051e+02,	 2.1475632538165351e+03,	 4.0777707650951078e+02,	 4.0935693740021897e+00 
4.1565789999999998e-02,	 1.4385599999999998e-02,	 1.8615753493117802e-02,	 1.6382221578017716e+03,	 3.1066378266930724e+02,	 4.1590322745901369e+02,	 2.2274237574346330e+03,	 4.0928434360394863e+02,	 4.0739850843367833e+00 
4.5615082500000001e-02,	 1.5458569999999998e-02,	 1.9110250872477291e-02,	 1.6349776468537502e+03,	 3.1896612145944687e+02,	 4.1858094485083211e+02,	 2.3013134716931286e+03,	 4.1059978115468249e+02,	 4.0569931412977880e+00 
4.9664377499999995e-02,	 1.6531539999999997e-02,	 1.9568666255134308e-02,	 1.6320645622805996e+03,	 3.2630216032010082e+02,	 4.2095621987965586e+02,	 2.3698894887089637e+03,	 4.1176312571427496e+02,	 4.0420425954305141e+00 
5.3713672500000004e-02,	 1.7604512499999999e-02,	 1.9994982462949732e-02,	 1.6294299881582047e+03,	 3.3283185735920182e+02,	 4.2308582001130611e+02,	 2.4337694480468026e+03,	 4.1280335807482481e+02,	 4.0287346764357359e+00 
5.7762967499999998e-02,	 1.8677485000000001e-02,	 2.0392908679108045e-02,	 1.6270325225988743e+03,	 3.3868048730191447e+02,	 4.2501238943933140e+02,	 2.4935076339531497e+03,	 4.1374216408245570e+02,	 4.0167729462978139e+00 
6.1812262500000006e-02,	 1.9750455000000000e-02,	 2.0765664685868816e-02,	 1.6248394493131002e+03,	 3.4394793454908898e+02,	 4.2676816934457361e+02,	 2.5495750140103619e+03,	 4.1459589386461801e+02,	 4.0059349666803046e+00 
6.5861555000000002e-02,	 2.0823427499999998e-02,	 2.1115914780294280e-02,	 1.6228242794621065e+03,	 3.4871632643978342e+02,	 4.2837786866773376e+02,	 2.6023569372918446e+03,	 4.1537705170948766e+02,	 3.9960512391577829e+00 
6.9910847500000012e-02,	 2.1896400000000000e-02,	 2.1445758656897743e-02,	 1.6209654997044540e+03,	 3.5305418197584129e+02,	 4.2986025603315466e+02,	 2.6521534294125177e+03,	 4.1609513025964583e+02,	 3.9869932523657816e+00 
7.3960145000000005e-02,	 2.2969370000000003e-02,	 2.1756805574932727e-02,	 1.6192457214892186e+03,	 3.5701870616646073e+02,	 4.3122944345054282e+02,	 2.6991901112216665e+03,	 4.1675727483939352e+02,	 3.9786641457032874e+00 
7.8009439999999999e-02,	 2.4042342500000001e-02,	 2.2050283905279928e-02,	 1.6176504330369528e+03,	 3.6065843353800506e+02,	 4.3249648363989786e+02,	 2.7436373337531641e+03,	 4.1736908476430716e+02,	 3.9709879838055224e+00 
8.2058732500000009e-02,	 2.5115314999999999e-02,	 2.2327081965652747e-02,	 1.6161674342672470e+03,	 3.6401369569375208e+02,	 4.3367049276494163e+02,	 2.7856193955566409e+03,	 4.1793517380883583e+02,	 3.9639023135446769e+00 
8.6108027500000003e-02,	 2.6188285000000002e-02,	 2.2587957320153514e-02,	 1.6147862854654015e+03,	 3.6711759777049838e+02,	 4.3475948329815890e+02,	 2.8252439908316819e+03,	 4.1845958358048915e+02,	 3.9573527250063729e+00 
9.0157319999999999e-02,	 2.7261257499999997e-02,	 2.2833638479285667e-02,	 1.6134981666830206e+03,	 3.6999661897082308e+02,	 4.3577060247641987e+02,	 2.8626152930464200e+03,	 4.1894590625339862e+02,	 3.9512911402436610e+00 
9.4206614999999994e-02,	 2.8334230000000002e-02,	 2.3064879048353630e-02,	 1.6122955561251720e+03,	 3.7267174206535583e+02,	 4.3671041456002678e+02,	 2.8978417690110323e+03,	 4.1939742634802036e+02,	 3.9456739106204348e+00 
9.8255900000000007e-02,	 2.9407200000000001e-02,	 2.3282431870639872e-02,	 1.6111709949899116e+03,	 3.7516322254636668e+02,	 4.3758523915258155e+02,	 2.9310345784270553e+03,	 4.1981728766775871e+02,	 3.9404596409320938e+00 
1.0230519249999999e-01,	 3.0480172500000000e-02,	 2.3486678351197207e-02,	 1.6101197962989711e+03,	 3.7748683341016772e+02,	 4.3839828261708504e+02,	 2.9622409534043272e+03,	 4.2020712177207389e+02,	 3.9356261081740049e+00 
1.0635449999999999e-01,	 3.1553145000000005e-02,	 2.3678346936099399e-02,	 1.6091355049475972e+03,	 3.7965839549954364e+02,	 4.3915528749000538e+02,	 2.9915718167024565e+03,	 4.2056976192196373e+02,	 3.9311364992064224e+00 
1.1040377499999998e-01,	 3.2626115000000004e-02,	 2.3858267122235668e-02,	 1.6082123348981956e+03,	 3.8169022491458344e+02,	 4.3986200637671271e+02,	 3.0191541330379482e+03,	 4.2090803077577056e+02,	 3.9269544616761456e+00 
1.1445307499999999e-01,	 3.3699087500000002e-02,	 2.4027041407535882e-02,	 1.6073477699012258e+03,	 3.8358736633430885e+02,	 4.4052154818560945e+02,	 3.0450707749419066e+03,	 4.2122347340906970e+02,	 3.9230596978296628e+00 
1.1850240000000001e-01,	 3.4772060000000000e-02,	 2.4185572355323291e-02,	 1.6065363089870750e+03,	 3.8536065048713300e+02,	 4.4113945692819306e+02,	 3.0694616465724275e+03,	 4.2151878979093323e+02,	 3.9194178580013799e+00 
1.2255167500000000e-01,	 3.5845030000000000e-02,	 2.4334709567430866e-02,	 1.6057730123391209e+03,	 3.8701991622447525e+02,	 4.4172061144023581e+02,	 3.0924577113900345e+03,	 4.2179635158704122e+02,	 3.9159988604246943e+00 
1.2660097500000000e-01,	 3.6918000000000006e-02,	 2.4474919635813514e-02,	 1.6050565409352241e+03,	 3.8856870708499133e+02,	 4.4226645190222678e+02,	 3.1141190350903148e+03,	 4.2205688101181443e+02,	 3.9127930919131781e+00 
1.3065027500000001e-01,	 3.7990969999999999e-02,	 2.4607104602832539e-02,	 1.6043805167932965e+03,	 3.9002108733510335e+02,	 4.4278230285437172e+02,	 3.1345897384324626e+03,	 4.2230294873225210e+02,	 3.9097683115109558e+00 
1.3469955000000000e-01,	 3.9063940000000005e-02,	 2.4731567393645456e-02,	 1.6037443533842375e+03,	 3.9138008034426690e+02,	 4.4326842197719117e+02,	 3.1539032911419840e+03,	 4.2253470282798065e+02,	 3.9069221759068138e+00 
1.3874885000000001e-01,	 4.0136912500000003e-02,	 2.4848915237347047e-02,	 1.6031440799351960e+03,	 3.9265536018971045e+02,	 4.4372781247653990e+02,	 3.1721522458654122e+03,	 4.2275359746660644e+02,	 3.9042363617467624e+00 
1.4279815000000001e-01,	 4.1209885000000002e-02,	 2.4959696794986903e-02,	 1.6025761520162737e+03,	 3.9385548009156042e+02,	 4.4416315223631381e+02,	 3.1894204127224307e+03,	 4.2296092764280939e+02,	 3.9016945856131389e+00 
1.4684744999999999e-01,	 4.2282855000000008e-02,	 2.5064116765532954e-02,	 1.6020404074277653e+03,	 3.9498283830618658e+02,	 4.4457408204068133e+02,	 3.2057266159744336e+03,	 4.2315653939979290e+02,	 3.8992983808078305e+00 
1.5089675000000000e-01,	 4.3355827500000006e-02,	 2.5162628998154888e-02,	 1.6015336442470887e+03,	 3.9604572162604950e+02,	 4.4496273103020360e+02,	 3.2211399108516021e+03,	 4.2334146182440458e+02,	 3.8970348197154130e+00 
1.5494602499999999e-01,	 4.4428799999999997e-02,	 2.5255653349243134e-02,	 1.6010530512619364e+03,	 3.9705124372557185e+02,	 4.4533101203872189e+02,	 3.2357241109862393e+03,	 4.2351661848683142e+02,	 3.8948923203060315e+00 
1.5899532499999999e-01,	 4.5501769999999997e-02,	 2.5343298548146286e-02,	 1.6005990232780712e+03,	 3.9799977314560442e+02,	 4.4567836113340655e+02,	 3.2494856661941872e+03,	 4.2368175344924100e+02,	 3.8928737604513874e+00 
1.6304462500000000e-01,	 4.6574742500000002e-02,	 2.5426129581135562e-02,	 1.6001678961395903e+03,	 3.9889887460412228e+02,	 4.4600780147678512e+02,	 3.2625159895719385e+03,	 4.2383831487385658e+02,	 3.8909612139424401e+00 
1.6709390000000002e-01,	 4.7647715000000000e-02,	 2.5504254814033123e-02,	 1.5997601856917806e+03,	 3.9974773588414666e+02,	 4.4631899778674631e+02,	 3.2748238864079053e+03,	 4.2398615300565933e+02,	 3.8891563133007687e+00 
1.7114320000000002e-01,	 4.8720685000000000e-02,	 2.5578133269606403e-02,	 1.5993732419762705e+03,	 4.0055130761762507e+02,	 4.4661434535978935e+02,	 3.2864834673989167e+03,	 4.2412641431250728e+02,	 3.8874448862842317e+00 
1.7519250000000000e-01,	 4.9793657500000005e-02,	 2.5648189326897025e-02,	 1.5990046661270896e+03,	 4.0131396990933990e+02,	 4.4689604028361595e+02,	 3.2975634057101311e+03,	 4.2426014873688115e+02,	 3.8858139779133949e+00 
1.7924179999999998e-01,	 5.0866630000000003e-02,	 2.5714506608613238e-02,	 1.5986551968447682e+03,	 4.0203436878625109e+02,	 4.4716356348143211e+02,	 3.3080688641914048e+03,	 4.2438711613046485e+02,	 3.8842663880798232e+00 
1.8329107500000000e-01,	 5.1939600000000002e-02,	 2.5777588948378283e-02,	 1.5983213818453305e+03,	 4.0271910568289348e+02,	 4.4741986525081211e+02,	 3.3180849008784107e+03,	 4.2450872217795836e+02,	 3.8827848711840698e+00 
1.8734037500000000e-01,	 5.3012572500000008e-02,	 2.5837458171666380e-02,	 1.5980041302808941e+03,	 4.0336667041566670e+02,	 4.4766419604840496e+02,	 3.3276074285736067e+03,	 4.2462461600213385e+02,	 3.8813736046456593e+00 
1.9138970000000000e-01,	 5.4085544999999999e-02,	 2.5894465924952682e-02,	 1.5977011452282920e+03,	 4.0398191107765933e+02,	 4.4789834274430706e+02,	 3.3366937748019423e+03,	 4.2473564951156760e+02,	 3.8800221258489325e+00 
1.9543897500000001e-01,	 5.5158515000000005e-02,	 2.5948903005288404e-02,	 1.5974104736456527e+03,	 4.0456909830375326e+02,	 4.4812375994500661e+02,	 3.3453912094224397e+03,	 4.2484251603545607e+02,	 3.8787219231984968e+00 
1.9948825000000001e-01,	 5.6231487500000003e-02,	 2.6000695857211074e-02,	 1.5971334004102841e+03,	 4.0512656988247005e+02,	 4.4833913816446227e+02,	 3.3536795393821035e+03,	 4.2494459813979893e+02,	 3.8774804399221106e+00 
2.0353757500000003e-01,	 5.7304459999999995e-02,	 2.6050107328669921e-02,	 1.5968678911971149e+03,	 4.0565889050491967e+02,	 4.4854592522705343e+02,	 3.3616025937980289e+03,	 4.2504258525230864e+02,	 3.8762892260375361e+00 
2.0758687500000000e-01,	 5.8377430000000008e-02,	 2.6097392046736573e-02,	 1.5966123355450532e+03,	 4.0616959536306007e+02,	 4.4874529776057614e+02,	 3.3692012879968720e+03,	 4.2513703756784491e+02,	 3.8751414174162586e+00 
2.1163615000000002e-01,	 5.9450400000000000e-02,	 2.6142391191654218e-02,	 1.5963686487609896e+03,	 4.0665550602443398e+02,	 4.4893554337371359e+02,	 3.3764415619712800e+03,	 4.2522714646289114e+02,	 3.8740467873129605e+00 
2.1568542499999999e-01,	 6.0523370000000007e-02,	 2.6185561179389999e-02,	 1.5961331734911269e+03,	 4.0712374775944215e+02,	 4.4911962316413178e+02,	 3.3834039656939467e+03,	 4.2531431677367658e+02,	 3.8729882225884813e+00 
2.1973472500000002e-01,	 6.1596339999999999e-02,	 2.6226730101212258e-02,	 1.5959080030222312e+03,	 4.0757047344163976e+02,	 4.4929580702868356e+02,	 3.3900527038350037e+03,	 4.2539773126804562e+02,	 3.8719756056485783e+00 
2.2378405000000001e-01,	 6.2669312500000005e-02,	 2.6266165396528315e-02,	 1.5956914242178555e+03,	 4.0799889595431523e+02,	 4.4946554352051936e+02,	 3.3964327197120756e+03,	 4.2547807777828166e+02,	 3.8710005455660936e+00 
2.2783332500000000e-01,	 6.3742285000000010e-02,	 2.6304088492829062e-02,	 1.5954818855879107e+03,	 4.0841188149848216e+02,	 4.4963015735920169e+02,	 3.4025822075571837e+03,	 4.2555598493819247e+02,	 3.8700553816176320e+00 
2.3188259999999999e-01,	 6.4815255000000016e-02,	 2.6340361452778835e-02,	 1.5952811150770290e+03,	 4.0880621095755305e+02,	 4.4978824128817183e+02,	 3.4084722714370764e+03,	 4.2563078825032989e+02,	 3.8691481445835003e+00 
2.3593192500000001e-01,	 6.5888227500000007e-02,	 2.6375218324804699e-02,	 1.5950874030983296e+03,	 4.0918511661564463e+02,	 4.4994121715401400e+02,	 3.4141435670525389e+03,	 4.2570316197771882e+02,	 3.8682706270807157e+00 
2.3998122500000002e-01,	 6.6961199999999999e-02,	 2.6408866772700795e-02,	 1.5948993271579968e+03,	 4.0955136758572741e+02,	 4.5009023328202505e+02,	 3.4196313682475625e+03,	 4.2577365050258931e+02,	 3.8674162061596813e+00 
2.4403050000000001e-01,	 6.8034170000000005e-02,	 2.6441124092128690e-02,	 1.5947187329086039e+03,	 4.0990174400493112e+02,	 4.5023369434496561e+02,	 3.4248996034084080e+03,	 4.2584150031296247e+02,	 3.8665939927260253e+00 
2.4807979999999999e-01,	 6.9107142499999996e-02,	 2.6472311899264838e-02,	 1.5945429942868409e+03,	 4.1024131156121331e+02,	 4.5037371566235521e+02,	 3.4300057271841824e+03,	 4.2590771287479106e+02,	 3.8657918300324399e+00 
-7.7427090000000004e-02,	 9.1582000000000018e-03,	 1.1586407740522199e-02,	 1.7360000000000000e+03,	 -1.9366950675587598e-14,	 3.0000000000000000e+02,	 1.0000000000000000e+03,	 3.4760788074254771e+02,	 4.9941330337264445e+00 
-7.1903259999999997e-02,	 9.1582000000000018e-03,	 1.1586407740522199e-02,	 1.7360000000000000e+03,	 -1.0215534422287942e-14,	 3.0000000000000000e+02,	 1.0000000000000000e+03,	 3.4760788074254771e+02,	 4.9941330337264445e+00 
-6.6379432500000002e-02,	 9.1582000000000018e-03,	 1.1586407740522199e-02,	 1.7360000000000000e+03,	 -1.1918134280595708e-14,	 3.0000000000000000e+02,	 1.0000000000000000e+03,	 3.4760788074254771e+02,	 4.9941330337264445e+00 
-6.0855602500000008e-02,	 9.1582000000000018e-03,	 1.1586407740522199e-02,	 1.7360000000000000e+03,	 -3.9727042349207961e-15,	 3.0000000000000000e+02,	 1.0000000000000000e+03,	 3.4760788074254771e+02,	 4.9941330337264445e+00 
-5.5331772500000001e-02,	 9.1582000000000018e-03,	 1.1586407740522199e-02,	 1.7360000000000000e+03,	 -1.7025906115136687e-15,	 3.0000000000000000e+02,	 1.0000000000000000e+03,	 3.4760788074254771e+02,	 4.9941330337264445e+00 
-4.9807947499999998e-02,	 9.1582000000000018e-03,	 1.1586407740522199e-02,	 1.7360000000000000e+03,	 -1.7025906115136661e-15,	 3.0000000000000000e+02,	 1.0000000000000000e+03,	 3.4760788074254771e+02,	 4.9941330337264445e+00 
-4.4284117500000005e-02,	 9.1582000000000018e-03,	 1.1586407740522199e-02,	 1.7360000000000000e+03,	 1.4188229410431482e-15,	 3.0000000000000000e+02,	 1.0000000000000000e+03,	 3.4760788074254771e+02,	 4.9941330337264445e+00 
-3.8760287499999997e-02,	 9.1582000000000018e-03,	 1.1586407740522199e-02,	 1.7360000000000000e+03,	 1.7025906115136687e-15,	 3.0000000000000000e+02,	 1.0000000000000000e+03,	 3.4760788074254771e+02,	 4.9941330337264445e+00 
-3.3236459999999995e-02,	 9.1582000000000018e-03,	 1.1586407740522199e-02,	 1.7360000000000000e+03,	 -1.4188242253177781e-15,	 3.0000000000000000e+02,	 1.0000000000000000e+03,	 3.4760788074254771e+02,	 4.9941330337264445e+00 
-2.7712629999999999e-02,	 9.1582000000000018e-03,	 1.1586407740522199e-02,	 1.7360000000000000e+03,	 1.7025890703813311e-15,	 3.0000000000000000e+02,	 1.0000000000000000e+03,	 3.4760788074254771e+02,	 4.9941330337264445e+00 
-2.2188800000000002e-02,	 9.1582000000000018e-03,	 1.1586407740522199e-02,	 1.7360000000000000e+03,	 0.0000000000000000e+00,	 3.0000000000000000e+02,	 1.0000000000000000e+03,	 3.4760788074254771e+02,	 4.9941330337264445e+00 
-1.6664972500000000e-02,	 9.1582000000000018e-03,	 1.1586407740522199e-02,	 1.7360000000000000e+03,	 -5.6753020383789038e-16,	 3.0000000000000000e+02,	 1.0000000000000000e+03,	 3.4760788074254771e+02,	 4.9941330337264445e+00 
-1.1141144250000000e-02,	 9.1582000000000018e-03,	 1.1586407740522199e-02,	 1.7360000000000000e+03,	 4.8240010561194844e-15,	 3.0000000000000000e+02,	 1.0000000000000000e+03,	 3.4760788074254771e+02,	 4.9941330337264445e+00 
-5.6173142499999999e-03,	 9.1582000000000018e-03,	 1.1586407740522199e-02,	 1.7360000000000000e+03,	 1.1066831962684795e-14,	 3.0000000000000000e+02,	 1.0000000000000000e+03,	 3.4760788074254771e+02,	 4.9941330337264445e+00 
-8.2622040000000004e-04,	 9.6838482500000017e-03,	 1.1586407740522199e-02,	 1.7360000000000000e+03,	 -1.5224124294160570e-14,	 2.9999999999999955e+02,	 9.9999999999999852e+02,	 3.4760788074254742e+02,	 4.9941330337264489e+00 
3.2321386000000001e-03,	 1.0735142499999999e-02,	 1.1588669148889777e-02,	 1.7359394886169744e+03,	 1.8053561076688784e-01,	 3.0010430709937265e+02,	 1.0005429358886283e+03,	 3.4766830544033223e+02,	 4.9930910319998771e+00 
7.2904975000000006e-03,	 1.1786436750000000e-02,	 1.1610561118926855e-02,	 1.7353483442017907e+03,	 1.8706724742500820e+00,	 3.0112154351005108e+02,	 1.0058309021646392e+03,	 3.4825703686565532e+02,	 4.9829556011113318e+00 
1.1348858500000000e-02,	 1.2837732499999997e-02,	 1.1667227780738062e-02,	 1.7338832832219537e+03,	 5.9597087942103935e+00,	 3.0362947964942390e+02,	 1.0191580742284320e+03,	 3.4970428530579505e+02,	 4.9581706556439320e+00 
1.5407217500000001e-02,	 1.3889030000000000e-02,	 1.1768412356886514e-02,	 1.7314227149737603e+03,	 1.2734390424110407e+01,	 3.0780057419027543e+02,	 1.0421188234465799e+03,	 3.5209811449227033e+02,	 4.9175768712525425e+00 
1.9465574999999999e-02,	 1.4940325000000001e-02,	 1.1920387953808190e-02,	 1.7279834538782477e+03,	 2.2142139431636643e+01,	 3.1354562399540055e+02,	 1.0752787700172296e+03,	 3.5536885135195394e+02,	 4.8629059767820664e+00 
2.3523934999999999e-02,	 1.5991617499999999e-02,	 1.2127356412471698e-02,	 1.7236551121095022e+03,	 3.3959592890463092e+01,	 3.2063496210644865e+02,	 1.1186827849914789e+03,	 3.5936388085647638e+02,	 4.7973369301053159e+00 
2.7582292500000001e-02,	 1.7042914999999999e-02,	 1.2392304021924793e-02,	 1.7185593235138460e+03,	 4.7886211942148506e+01,	 3.2877902909891856e+02,	 1.1721578640166824e+03,	 3.6389914977672350e+02,	 4.7244582727323836e+00 
3.1640649999999999e-02,	 1.8094209999999999e-02,	 1.2716847522719382e-02,	 1.7128401617529732e+03,	 6.3559901512542702e+01,	 3.3765651332598253e+02,	 1.2353343938812159e+03,	 3.6877931421852105e+02,	 4.6478177522834629e+00 
3.5699010000000003e-02,	 1.9145502500000001e-02,	 1.3098706163784168e-02,	 1.7067007325249658e+03,	 8.0471820144232879e+01,	 3.4687176763288767e+02,	 1.3071556092532371e+03,	 3.7377776539892562e+02,	 4.5711569316418830e+00 
3.9757370000000000e-02,	 2.0196800000000001e-02,	 1.3531014028225808e-02,	 1.7003893107431311e+03,	 9.8010987816068635e+01,	 3.5599514132622062e+02,	 1.3858121110936092e+03,	 3.7866138750854225e+02,	 4.4979808268951995e+00 
4.3815729999999997e-02,	 2.1248097500000000e-02,	 1.4005642301023117e-02,	 1.6941209522613535e+03,	 1.1561378025491942e+02,	 3.6469369391594660e+02,	 1.4694716834915944e+03,	 3.8325966307345971e+02,	 4.4305767426802047e+00 
4.7874090000000001e-02,	 2.2299389999999999e-02,	 1.4513334134875183e-02,	 1.6880471106478872e+03,	 1.3285877448821049e+02,	 3.7276669499654497e+02,	 1.5564466341357240e+03,	 3.8747843605714911e+02,	 4.3699655168212903e+00 
5.1932447500000006e-02,	 2.3350684999999999e-02,	 1.5044669002617313e-02,	 1.6822659535472326e+03,	 1.4944769960180392e+02,	 3.8011635812869326e+02,	 1.6452395250818815e+03,	 3.9127965456721932e+02,	 4.3163275708067594e+00 
5.5990805000000005e-02,	 2.4401982499999999e-02,	 1.5590570603512606e-02,	 1.6768304877666228e+03,	 1.6519532368367013e+02,	 3.8672228579127369e+02,	 1.7345672721592241e+03,	 3.9466497541612767e+02,	 4.2693123771806398e+00 
6.0049165000000002e-02,	 2.5453274999999997e-02,	 1.6142533217621626e-02,	 1.6717611073003388e+03,	 1.8000346058335217e+02,	 3.9261324615328203e+02,	 1.8233354431739135e+03,	 3.9765959011889339e+02,	 4.2282997210262430e+00 
6.4107522500000014e-02,	 2.6504569999999998e-02,	 1.6692810843953874e-02,	 1.6670563311045394e+03,	 1.9383767070671612e+02,	 3.9784529979368074e+02,	 1.9106170158864436e+03,	 4.0030047217332611e+02,	 4.1925700593764699e+00 
6.8165882499999997e-02,	 2.7555867500000001e-02,	 1.7234490574054274e-02,	 1.6627022946898389e+03,	 2.0670521156259608e+02,	 4.0248510412064292e+02,	 1.9956216193176024e+03,	 4.0262792464449882e+02,	 4.1614145541826799e+00 
7.2224244999999992e-02,	 2.8607162499999998e-02,	 1.7761377865480960e-02,	 1.6586805729409314e+03,	 2.1863387942219435e+02,	 4.0659858456984250e+02,	 2.0776503128625450e+03,	 4.0468016444812866e+02,	 4.1341976849750033e+00 
7.6282602500000019e-02,	 2.9658457499999999e-02,	 1.8268463881983138e-02,	 1.6549679797025531e+03,	 2.2966892011151324e+02,	 4.1025087994614347e+02,	 2.1561625054376400e+03,	 4.0649363268463173e+02,	 4.1103428234231574e+00 
8.0340960000000003e-02,	 3.0709752500000000e-02,	 1.8753068833416337e-02,	 1.6515301382039697e+03,	 2.3988269776905938e+02,	 4.1351393709363384e+02,	 2.2309633550966355e+03,	 4.0810701726059511e+02,	 4.0892718592179964e+00 
8.4399320000000000e-02,	 3.1761047500000000e-02,	 1.9213809632786249e-02,	 1.6483388611804569e+03,	 2.4934191663411764e+02,	 4.1644518905002354e+02,	 2.3019785378668212e+03,	 4.0955092506383750e+02,	 4.0705340779223480e+00 
8.8457677500000012e-02,	 3.2812342500000001e-02,	 1.9650352485146665e-02,	 1.6453718709345487e+03,	 2.5810602583019329e+02,	 4.1908941176470279e+02,	 2.3692286250112638e+03,	 4.1084909140441709e+02,	 4.0537831268956523e+00 
9.2516034999999996e-02,	 3.3863637500000002e-02,	 2.0063148638765828e-02,	 1.6426109938634859e+03,	 2.6622867194851057e+02,	 4.2148220257949737e+02,	 2.4328104299235670e+03,	 4.1202029339415685e+02,	 4.0387473002749967e+00 
9.6574397500000006e-02,	 3.4914932500000009e-02,	 2.0452931609358942e-02,	 1.6400348776810863e+03,	 2.7377518405069554e+02,	 4.2365779801065548e+02,	 2.4928761823156210e+03,	 4.1308230229804980e+02,	 4.0251757279437133e+00 
1.0063276500000000e-01,	 3.5966230000000002e-02,	 2.0820654721290553e-02,	 1.6376187576629425e+03,	 2.8082025328895071e+02,	 4.2565001857231653e+02,	 2.5496289178598308e+03,	 4.1405240819609037e+02,	 4.0128300743126895e+00 
1.0469112500000000e-01,	 3.7017525000000003e-02,	 2.1167953388242681e-02,	 1.6353510020982399e+03,	 2.8739923345805892e+02,	 4.2747934219199067e+02,	 2.6032983338771141e+03,	 4.1494119446391568e+02,	 4.0015621217983117e+00 
1.0874947500000000e-01,	 3.8068817500000005e-02,	 2.1496352268070944e-02,	 1.6332210697861472e+03,	 2.9354543003320686e+02,	 4.2916329604573241e+02,	 2.6540999876549290e+03,	 4.1575767256538217e+02,	 3.9912467258736104e+00 
1.1280784999999999e-01,	 3.9120115000000004e-02,	 2.1807155325972112e-02,	 1.6312197095118872e+03,	 2.9928989168723484e+02,	 4.3071643860365037e+02,	 2.7022181186867174e+03,	 4.1650930693215150e+02,	 3.9817807174077422e+00 
1.1686620000000000e-01,	 4.0171410000000005e-02,	 2.2101418791616041e-02,	 1.6293385376428846e+03,	 3.0466174358237271e+02,	 4.3215116611869695e+02,	 2.7478041850338232e+03,	 4.1720243180518628e+02,	 3.9730770413403937e+00 
1.2092452500000000e-01,	 4.1222702500000000e-02,	 2.2380039549408398e-02,	 1.6275694698735206e+03,	 3.0969019356731019e+02,	 4.3347820026433402e+02,	 2.7909885108430608e+03,	 4.1784250585970369e+02,	 3.9650611219689136e+00 
1.2498290000000001e-01,	 4.2274000000000006e-02,	 2.2643673418113876e-02,	 1.6259050296459066e+03,	 3.1440259582111463e+02,	 4.3470680849250272e+02,	 2.8318696713646423e+03,	 4.1843423284545105e+02,	 3.9576690242620636e+00 
1.2904127500000001e-01,	 4.3325297499999998e-02,	 2.2892852844647829e-02,	 1.6243377615619720e+03,	 3.1882466730840775e+02,	 4.3584583127672028e+02,	 2.8705343657335811e+03,	 4.1898206683609880e+02,	 3.9508409025251878e+00 
1.3309962500000000e-01,	 4.4376590000000000e-02,	 2.3128078255875081e-02,	 1.6228609393771944e+03,	 3.2297959663204074e+02,	 4.3690295048476565e+02,	 2.9070631310209574e+03,	 4.1948986766664524e+02,	 3.9445251272596207e+00 
1.3715797500000002e-01,	 4.5427885000000001e-02,	 2.3349890820250897e-02,	 1.6214684824909141e+03,	 3.2688744905218846e+02,	 4.3788514897481758e+02,	 2.9415416895816547e+03,	 4.1996112908517881e+02,	 3.9386752824124396e+00 
1.4121634999999999e-01,	 4.6479182500000008e-02,	 2.3558930411293054e-02,	 1.6201547320221584e+03,	 3.3056615798042139e+02,	 4.3879887141074340e+02,	 2.9740687846285300e+03,	 4.2039906119685855e+02,	 3.9332490235498665e+00 
1.4527472499999999e-01,	 4.7530475000000003e-02,	 2.3755601333653262e-02,	 1.6189147242916617e+03,	 3.3403297847787638e+02,	 4.3964919386422667e+02,	 3.0047078179872769e+03,	 4.2080619732427499e+02,	 3.9282128417551201e+00 
1.4933307500000001e-01,	 4.8581770000000003e-02,	 2.3940386423395684e-02,	 1.6177433275830836e+03,	 3.3730493078987422e+02,	 4.4044112067761205e+02,	 3.0335345984467172e+03,	 4.2118501955719779e+02,	 3.9235342251985097e+00 
1.5339142500000000e-01,	 4.9633067500000003e-02,	 2.4113892517532386e-02,	 1.6166359107363994e+03,	 3.4039549074015770e+02,	 4.4117967088599158e+02,	 3.0606435295896795e+03,	 4.2153800202899811e+02,	 3.9191810808323888e+00 
1.5744979999999997e-01,	 5.0684362500000010e-02,	 2.4276754359395764e-02,	 1.6155886555256927e+03,	 3.4331509441958849e+02,	 4.4186929391398422e+02,	 3.0861311942821872e+03,	 4.2186733361380232e+02,	 3.9151251107274976e+00 
1.6150814999999999e-01,	 5.1735657500000004e-02,	 2.4429637576980006e-02,	 1.6145978650487280e+03,	 3.4607288473793807e+02,	 4.4251445019755533e+02,	 3.1101004680091405e+03,	 4.2217519737687013e+02,	 3.9113383232019086e+00 
1.6556647499999999e-01,	 5.2786952500000005e-02,	 2.4573202179632707e-02,	 1.6136602966248181e+03,	 3.4867747800060278e+02,	 4.4311884893507215e+02,	 3.1326502882640921e+03,	 4.2246340840446561e+02,	 3.9077974533864612e+00 
1.6962482499999998e-01,	 5.3838247500000005e-02,	 2.4708066239176450e-02,	 1.6127727209443028e+03,	 3.5113771255851594e+02,	 4.4368591783729499e+02,	 3.1538740027170265e+03,	 4.2273363981799116e+02,	 3.9044811436428266e+00 