TITLE = "Final State"
VARIABLES = "X", "Y", "rho", "u", "v", "T", "p", "c", "M"
ZONE I=48, J=46, DATAPACKING=POINT
2.6489710000000000e+00,	 7.4012639999999996e-01,	 2.4924551661726423e-02,	 7.3621173387291981e+02,	 -1.6845777831764739e+01,	 5.4289595172204031e+02,	 3.8929058078727307e+03,	 4.4712428138696885e+02,	 1.6469793060803908e+00 
2.6564399999999999e+00,	 7.4012739999999999e-01,	 2.4881214716009292e-02,	 7.3657341241889549e+02,	 -1.6689833127132772e+01,	 5.4261826286304699e+02,	 3.8841493726898520e+03,	 4.4700991572242566e+02,	 1.6482016340648911e+00 
2.6639089999999999e+00,	 7.4012840000000002e-01,	 2.4829131815897569e-02,	 7.3706387627227616e+02,	 -1.6502325570547168e+01,	 5.4225933024796075e+02,	 3.8734549110330022e+03,	 4.4686204659331673e+02,	 1.6498348792365429e+00 
2.6713770000000001e+00,	 7.4012940000000005e-01,	 2.4774809942984061e-02,	 7.3754410632619727e+02,	 -1.6342666288219000e+01,	 5.4188678725454383e+02,	 3.8623251386457455e+03,	 4.4670851864276881e+02,	 1.6514687218521122e+00 
2.6788460000000001e+00,	 7.4013039999999997e-01,	 2.4715838826739299e-02,	 7.3799990429370041e+02,	 -1.6264003357126732e+01,	 5.4149664881920376e+02,	 3.8503575905951147e+03,	 4.4654768288669351e+02,	 1.6530801154220240e+00 
2.6863150000000000e+00,	 7.4013139999999999e-01,	 2.4655322558744447e-02,	 7.3837986102953766e+02,	 -1.6243805677936329e+01,	 5.4111502464529531e+02,	 3.8382231354741457e+03,	 4.4639030109439142e+02,	 1.6545129081087324e+00 
2.6937840000000000e+00,	 7.4013240000000002e-01,	 2.4599969148495118e-02,	 7.3863179600351134e+02,	 -1.6202626103796550e+01,	 5.4079000270771132e+02,	 3.8273057190098812e+03,	 4.4625621829575346e+02,	 1.6555724149784596e+00 
2.7012520000000002e+00,	 7.4013340000000005e-01,	 2.4550261688479836e-02,	 7.3878931123551092e+02,	 -1.6140950959847743e+01,	 5.4051319098729959e+02,	 3.8176170394337773e+03,	 4.4614199210581842e+02,	 1.6563462434277325e+00 
2.7087210000000002e+00,	 7.4013439999999997e-01,	 2.4500087739942639e-02,	 7.3894272190190213e+02,	 -1.6145708796929036e+01,	 5.4021891149440376e+02,	 3.8077406523219420e+03,	 4.4602052576943186e+02,	 1.6571414272373732e+00 
2.7161900000000001e+00,	 7.4013540000000000e-01,	 2.4446277369057016e-02,	 7.3915246816638796e+02,	 -1.6272619498985428e+01,	 5.3987152795684563e+02,	 3.7969344228328364e+03,	 4.4587709770624463e+02,	 1.6581510310546652e+00 
2.7236590000000001e+00,	 7.4013649999999997e-01,	 2.4391577871766386e-02,	 7.3940542919650454e+02,	 -1.6490625111189708e+01,	 5.3949375276658293e+02,	 3.7857876736937365e+03,	 4.4572106912007405e+02,	 1.6593097097129008e+00 
2.7311269999999999e+00,	 7.4013750000000000e-01,	 2.4339868021173314e-02,	 7.3964711374337594e+02,	 -1.6737752916293854e+01,	 5.3912212917518968e+02,	 3.7751595850612493e+03,	 4.4556752795459164e+02,	 1.6604362426405863e+00 
2.7385959999999998e+00,	 7.4013850000000003e-01,	 2.4291758029183208e-02,	 7.3984093793301236e+02,	 -1.6991095469329384e+01,	 5.3876568279338267e+02,	 3.7652065805441412e+03,	 4.4542020772340760e+02,	 1.6614334219234741e+00 
2.7460650000000002e+00,	 7.4013949999999995e-01,	 2.4245472436707383e-02,	 7.3999387796111114e+02,	 -1.7270373918136993e+01,	 5.3841183358587011e+02,	 3.7555641527408538e+03,	 4.4527391270129726e+02,	 1.6623371862470033e+00 
2.7535340000000001e+00,	 7.4014060000000004e-01,	 2.4199448316135339e-02,	 7.4013738441103214e+02,	 -1.7598387639441555e+01,	 5.3804757500056337e+02,	 3.7458991531115280e+03,	 4.4512326381357519e+02,	 1.6632394555475336e+00 
2.7610020000000000e+00,	 7.4014159999999996e-01,	 2.4153075228169982e-02,	 7.4029702064639810e+02,	 -1.7981513483525482e+01,	 5.3766628490160724e+02,	 3.7360714720522756e+03,	 4.4496551645044406e+02,	 1.6642084451319061e+00 
2.7684709999999999e+00,	 7.4014270000000004e-01,	 2.4106708896735208e-02,	 7.4049102908000020e+02,	 -1.8414915488376103e+01,	 5.3726971815767934e+02,	 3.7261490603800694e+03,	 4.4480138948114455e+02,	 1.6652824992160171e+00 
2.7759399999999999e+00,	 7.4014369999999996e-01,	 2.4061600640265517e-02,	 7.4074264242289269e+02,	 -1.8892033055792965e+01,	 5.3686846623806173e+02,	 3.7163991118642448e+03,	 4.4463526179788227e+02,	 1.6664974189428778e+00 
2.7834089999999998e+00,	 7.4014480000000005e-01,	 2.4018798713049412e-02,	 7.4107039420285651e+02,	 -1.9407516372284448e+01,	 5.3647187466416847e+02,	 3.7070477353982110e+03,	 4.4447100259166848e+02,	 1.6678804086658614e+00 
2.7908770000000001e+00,	 7.4014579999999996e-01,	 2.3978194904594539e-02,	 7.4147355438949080e+02,	 -1.9954232005288386e+01,	 5.3607920415998888e+02,	 3.6980721806443185e+03,	 4.4430830757489377e+02,	 1.6694308731088869e+00 
2.7983460000000000e+00,	 7.4014690000000005e-01,	 2.3938866710276945e-02,	 7.4193557326260122e+02,	 -2.0522731542872400e+01,	 5.3568266338772787e+02,	 3.6892757344152783e+03,	 4.4414394851040856e+02,	 1.6711234315621890e+00 
2.8058149999999999e+00,	 7.4014800000000003e-01,	 2.3899930582212011e-02,	 7.4243915076610074e+02,	 -2.1107161835354944e+01,	 5.3527530320389110e+02,	 3.6804742463312455e+03,	 4.4397504163475793e+02,	 1.6729299022970971e+00 
2.8132839999999999e+00,	 7.4014899999999995e-01,	 2.3860922687725182e-02,	 7.4297518816111119e+02,	 -2.1706045420058906e+01,	 5.3485422969869205e+02,	 3.6715767043162678e+03,	 4.4380038113242165e+02,	 1.6748345056955645e+00 
2.8207520000000001e+00,	 7.4015010000000003e-01,	 2.3821843645456531e-02,	 7.4354363450053791e+02,	 -2.2318085943860098e+01,	 5.3442064190494807e+02,	 3.6625919086894969e+03,	 4.4362045786398141e+02,	 1.6768354433188353e+00 
2.8282210000000001e+00,	 7.4015120000000001e-01,	 2.3783132936274244e-02,	 7.4415121408657205e+02,	 -2.2939202802288641e+01,	 5.3397926964151668e+02,	 3.6536201842448554e+03,	 4.4343722934080893e+02,	 1.6789404289187755e+00 
2.8356900000000000e+00,	 7.4015229999999999e-01,	 2.3745326454665948e-02,	 7.4480450150863919e+02,	 -2.3561216021946038e+01,	 5.3353562966565187e+02,	 3.6447815938953736e+03,	 4.4325298308734631e+02,	 1.6811552445709628e+00 
2.8431590000000000e+00,	 7.4015339999999996e-01,	 2.3708650388625570e-02,	 7.4550281347936561e+02,	 -2.4172683180306301e+01,	 5.3309302003868197e+02,	 3.6361330505429059e+03,	 4.4306908839333562e+02,	 1.6834724554530496e+00 
2.8506279999999999e+00,	 7.4015450000000005e-01,	 2.3672768829878128e-02,	 7.4623567233157860e+02,	 -2.4762291833911853e+01,	 5.3265044665895562e+02,	 3.6276158447249923e+03,	 4.4288513241192851e+02,	 1.6858691959828784e+00 
2.8580960000000002e+00,	 7.4015560000000002e-01,	 2.3636783644377945e-02,	 7.4698542473733710e+02,	 -2.5322203316770413e+01,	 5.3220238439959917e+02,	 3.6190545844161215e+03,	 4.4269881710559673e+02,	 1.6883137558912076e+00 
2.8655650000000001e+00,	 7.4015670000000000e-01,	 2.3599761362879522e-02,	 7.4773662586377054e+02,	 -2.5847498049349671e+01,	 5.3174314967845771e+02,	 3.6102680887792135e+03,	 4.4250777460942919e+02,	 1.6907798665957330e+00 
2.8730340000000001e+00,	 7.4015779999999998e-01,	 2.3561402663402724e-02,	 7.4848663488209581e+02,	 -2.6334312399369196e+01,	 5.3127269919290359e+02,	 3.6012110828731770e+03,	 4.4231198077231392e+02,	 1.6932612943392784e+00 
2.8805030000000000e+00,	 7.4015889999999995e-01,	 2.3522151699692247e-02,	 7.4924625800396609e+02,	 -2.6778670302064718e+01,	 5.3079764694884466e+02,	 3.5919970632783579e+03,	 4.4211418377293791e+02,	 1.6957715416440748e+00 
2.8879709999999998e+00,	 7.4016000000000004e-01,	 2.3482846796539079e-02,	 7.5003193320352420e+02,	 -2.7175251566518849e+01,	 5.3032842647409302e+02,	 3.5828249415579094e+03,	 4.4191872803339851e+02,	 1.6983305587620285e+00 
2.8954399999999998e+00,	 7.4016119999999996e-01,	 2.3444264960295350e-02,	 7.5085685836717016e+02,	 -2.7518905307374688e+01,	 5.2987537710304582e+02,	 3.5738827238902663e+03,	 4.4172992636902563e+02,	 1.7009510296977204e+00 
2.9029090000000002e+00,	 7.4016230000000005e-01,	 2.3406660640360479e-02,	 7.5172252262890402e+02,	 -2.7806996337963753e+01,	 5.2944429877303082e+02,	 3.5652474022103379e+03,	 4.4155020586124505e+02,	 1.7036265449685797e+00 
2.9103780000000001e+00,	 7.4016349999999997e-01,	 2.3369641320954964e-02,	 7.5261679640731859e+02,	 -2.8038718545280851e+01,	 5.2903453787951446e+02,	 3.5568537644910584e+03,	 4.4137930494840288e+02,	 1.7063303551311078e+00 
2.9178470000000001e+00,	 7.4016459999999995e-01,	 2.3332550017547096e-02,	 7.5352196582914212e+02,	 -2.8213262078242558e+01,	 5.2864176075847513e+02,	 3.5485719130248649e+03,	 4.4121542539960859e+02,	 1.7090290046700538e+00 
2.9253149999999999e+00,	 7.4016579999999998e-01,	 2.3294874236583156e-02,	 7.5442394590711990e+02,	 -2.8331382051136323e+01,	 5.2826164217339510e+02,	 3.5402944536473187e+03,	 4.4105676942959815e+02,	 1.7116974149023949e+00 
2.9327839999999998e+00,	 7.4016689999999996e-01,	 2.3256428799589751e-02,	 7.5530792887980010e+02,	 -2.8381246872909095e+01,	 5.2789188527365104e+02,	 3.5319776755340708e+03,	 4.4090238349819458e+02,	 1.7143045538392421e+00 
2.9402529999999998e+00,	 7.4016810000000000e-01,	 2.3217194335045703e-02,	 7.5616759881232076e+02,	 -2.8373207859303577e+01,	 5.2753161045553134e+02,	 3.5236126652641842e+03,	 4.4075190463883558e+02,	 1.7168382456335829e+00 
2.9477220000000002e+00,	 7.4016919999999997e-01,	 2.3176769820152654e-02,	 7.5699070754258537e+02,	 -2.8310483464836619e+01,	 5.2717654540065655e+02,	 3.5151100384065476e+03,	 4.4060355149937857e+02,	 1.7192778131412023e+00 
2.9551900000000000e+00,	 7.4017040000000001e-01,	 2.3134601944582833e-02,	 7.5775846914344947e+02,	 -2.8205376669444199e+01,	 5.2682131446792766e+02,	 3.5063503371316424e+03,	 4.4045507904989665e+02,	 1.7215903629514362e+00 
2.9626589999999999e+00,	 7.4017140000000003e-01,	 2.3090312359403609e-02,	 7.5845757585784997e+02,	 -2.8072025305934154e+01,	 5.2646231345452702e+02,	 3.4972528544817706e+03,	 4.4030497999084014e+02,	 1.7237527017322511e+00 
2.9701270000000002e+00,	 7.4017250000000001e-01,	 2.3043989984317809e-02,	 7.5908354307705440e+02,	 -2.7922716501410349e+01,	 5.2609982135475593e+02,	 3.4878337000719607e+03,	 4.4015336936628506e+02,	 1.7257551293219249e+00 
2.9775960000000001e+00,	 7.4017339999999998e-01,	 2.2996140087371060e-02,	 7.5964095509300023e+02,	 -2.7766483048862156e+01,	 5.2573726314626526e+02,	 3.4781927304294018e+03,	 4.4000167883756563e+02,	 1.7276030617576248e+00 
2.9850639999999999e+00,	 7.4017420000000000e-01,	 2.2947340260561066e-02,	 7.6013746538008365e+02,	 -2.7610639313467971e+01,	 5.2537785955651987e+02,	 3.4684389900659471e+03,	 4.3985125653565325e+02,	 1.7293090389740573e+00 
2.9925320000000002e+00,	 7.4017469999999996e-01,	 2.2897826178027807e-02,	 7.6057773831423822e+02,	 -2.7462765260349062e+01,	 5.2502093849560731e+02,	 3.4586038108119787e+03,	 4.3970182232662700e+02,	 1.7308852221228346e+00 
3.0000000000000000e+00,	 7.4017460000000002e-01,	 2.2854440559613515e-02,	 7.6086487542102202e+02,	 -2.7334319928799609e+01,	 5.2471663980534697e+02,	 3.4500498410536557e+03,	 4.3957437971248737e+02,	 1.7320293207187556e+00 
2.6489710000000000e+00,	 7.4589660000000002e-01,	 2.4934006687162898e-02,	 7.3674255161447263e+02,	 -1.6118441125733725e+01,	 5.4272991585918794e+02,	 3.8931915322434652e+03,	 4.4705590332790808e+02,	 1.6483818791493960e+00 
2.6564399999999999e+00,	 7.4589760000000005e-01,	 2.4891115609536413e-02,	 7.3710924928544227e+02,	 -1.5958756674874056e+01,	 5.4245129319987154e+02,	 3.8844993069934294e+03,	 4.4694113547420875e+02,	 1.6496176515511294e+00 
2.6639080000000002e+00,	 7.4589870000000003e-01,	 2.4839100481700550e-02,	 7.3759456598486838e+02,	 -1.5766097768157362e+01,	 5.4209780712441818e+02,	 3.8738558155460619e+03,	 4.4679548809879191e+02,	 1.6512320887587328e+00 
2.6713770000000001e+00,	 7.4589980000000000e-01,	 2.4785868008590659e-02,	 7.3805591812871387e+02,	 -1.5574799926992128e+01,	 5.4173949672389904e+02,	 3.8629987716491087e+03,	 4.4664780447892804e+02,	 1.6528016611255394e+00 
2.6788460000000001e+00,	 7.4590089999999998e-01,	 2.4729320850930343e-02,	 7.3848473494367306e+02,	 -1.5439167033798501e+01,	 5.4136728230574295e+02,	 3.8515375148051203e+03,	 4.4649433835754542e+02,	 1.6543235685311537e+00 
2.6863150000000000e+00,	 7.4590199999999995e-01,	 2.4669826743004813e-02,	 7.3885839842778171e+02,	 -1.5386039253858403e+01,	 5.4098267676658770e+02,	 3.8395417589533790e+03,	 4.4633570787520154e+02,	 1.6557460404951450e+00 
2.6937829999999998e+00,	 7.4590299999999998e-01,	 2.4612775614281816e-02,	 7.3913443844276799e+02,	 -1.5367355565434188e+01,	 5.4062367979770829e+02,	 3.8281204495882935e+03,	 4.4618758875357099e+02,	 1.6569133505299811e+00 
2.7012520000000002e+00,	 7.4590409999999996e-01,	 2.4561735194745981e-02,	 7.3931356864963800e+02,	 -1.5339945125749665e+01,	 5.4031198701547851e+02,	 3.8179794361420395e+03,	 4.4605894705013804e+02,	 1.6577914195594294e+00 
2.7087210000000002e+00,	 7.4590520000000005e-01,	 2.4513814440077164e-02,	 7.3945205496829556e+02,	 -1.5339605946843980e+01,	 5.4001531068349504e+02,	 3.8084381335317971e+03,	 4.4593646845796883e+02,	 1.6585572090208360e+00 
2.7161900000000001e+00,	 7.4590630000000002e-01,	 2.4464718771145009e-02,	 7.3961845062336624e+02,	 -1.5429035998571925e+01,	 5.3969263065766313e+02,	 3.7985395553106046e+03,	 4.4580321640898609e+02,	 1.6594302978134259e+00 
2.7236579999999999e+00,	 7.4590740000000000e-01,	 2.4413769172363257e-02,	 7.3983306636316024e+02,	 -1.5618192585721912e+01,	 5.3933779409459567e+02,	 3.7881365550157984e+03,	 4.4565663918902607e+02,	 1.6604664584626414e+00 
2.7311269999999999e+00,	 7.4590849999999997e-01,	 2.4363484444317914e-02,	 7.4005371951594032e+02,	 -1.5864704917035482e+01,	 5.3897352321066671e+02,	 3.7777809259255573e+03,	 4.4550611463822474e+02,	 1.6615344287305516e+00 
2.7385959999999998e+00,	 7.4590959999999995e-01,	 2.4315436344521102e-02,	 7.4023559275121943e+02,	 -1.6135628701571402e+01,	 5.3861392216462468e+02,	 3.7678150789459764e+03,	 4.4535746986365848e+02,	 1.6625104189187099e+00 
2.7460650000000002e+00,	 7.4591070000000004e-01,	 2.4269169597583649e-02,	 7.4037587666575587e+02,	 -1.6436788809351526e+01,	 5.3825510445206953e+02,	 3.7581404893442345e+03,	 4.4520909942108835e+02,	 1.6633943655714598e+00 
2.7535330000000000e+00,	 7.4591189999999996e-01,	 2.4223707491783760e-02,	 7.4050480324286787e+02,	 -1.6784955725285361e+01,	 5.3788818606481050e+02,	 3.7485435159079721e+03,	 4.4505732821448839e+02,	 1.6642687658382005e+00 
2.7610020000000000e+00,	 7.4591300000000005e-01,	 2.4178452705472701e-02,	 7.4065116875766239e+02,	 -1.7186390341947995e+01,	 5.3750739544372004e+02,	 3.7388917055874485e+03,	 4.4489976418390836e+02,	 1.6652077654007629e+00 
2.7684709999999999e+00,	 7.4591410000000002e-01,	 2.4133503253582201e-02,	 7.4083398004504716e+02,	 -1.7636971636023731e+01,	 5.3711332991342420e+02,	 3.7292048249701297e+03,	 4.4473664846864455e+02,	 1.6662532620167607e+00 
2.7759399999999999e+00,	 7.4591520000000000e-01,	 2.4089780027120547e-02,	 7.4107435365356082e+02,	 -1.8131545390150261e+01,	 5.3671399848050510e+02,	 3.7196809832187487e+03,	 4.4457129198299054e+02,	 1.6674403907154702e+00 
2.7834080000000001e+00,	 7.4591640000000003e-01,	 2.4048209887655832e-02,	 7.4139029768929629e+02,	 -1.8668210734047722e+01,	 5.3631718338210771e+02,	 3.7105168058896693e+03,	 4.4440691652340240e+02,	 1.6687978194840372e+00 
2.7908770000000001e+00,	 7.4591750000000001e-01,	 2.4008876281083863e-02,	 7.4178430788590731e+02,	 -1.9243240435072956e+01,	 5.3592310181414109e+02,	 3.7017258313318871e+03,	 4.4424361319914357e+02,	 1.6703309766740657e+00 
2.7983460000000000e+00,	 7.4591870000000005e-01,	 2.3970933970380682e-02,	 7.4224153727100816e+02,	 -1.9847806717879834e+01,	 5.3552419610880042e+02,	 3.6931248614613564e+03,	 4.4407824964265649e+02,	 1.6720180716052735e+00 
2.8058149999999999e+00,	 7.4591980000000002e-01,	 2.3933298555594278e-02,	 7.4274255588978974e+02,	 -2.0474304565162470e+01,	 5.3511176616299645e+02,	 3.6844867270348441e+03,	 4.4390721493827323e+02,	 1.6738288379937321e+00 
2.8132830000000002e+00,	 7.4592099999999995e-01,	 2.3895352035268450e-02,	 7.4327665281853979e+02,	 -2.1118930743220528e+01,	 5.3468211047507111e+02,	 3.6756912475635836e+03,	 4.4372896660561941e+02,	 1.6757450546146528e+00 
2.8207520000000001e+00,	 7.4592210000000003e-01,	 2.3857116643180409e-02,	 7.4384413599742197e+02,	 -2.1777592425350878e+01,	 5.3423749260850980e+02,	 3.6667580558628542e+03,	 4.4354443559736143e+02,	 1.6777639403558460e+00 
2.8282210000000001e+00,	 7.4592329999999996e-01,	 2.3819164764649747e-02,	 7.4445307236436895e+02,	 -2.2442885730134407e+01,	 5.3378480457159321e+02,	 3.6578228828394722e+03,	 4.4335647629546446e+02,	 1.6798926508807523e+00 
2.8356900000000000e+00,	 7.4592449999999999e-01,	 2.3782151282408848e-02,	 7.4511106943627146e+02,	 -2.3103844824171865e+01,	 5.3333149399492106e+02,	 3.6490373196805526e+03,	 4.4316817862761565e+02,	 1.6821360663354339e+00 
2.8431590000000000e+00,	 7.4592559999999997e-01,	 2.3746266499762254e-02,	 7.4581684849646501e+02,	 -2.3748334766671256e+01,	 5.3288131547910882e+02,	 3.6404558437484238e+03,	 4.4298110275377746e+02,	 1.6844846108702916e+00 
2.8506269999999998e+00,	 7.4592680000000000e-01,	 2.3711002918230521e-02,	 7.4655834711870887e+02,	 -2.4366873785919289e+01,	 5.3243255746058981e+02,	 3.6319885065429262e+03,	 4.4279453851700185e+02,	 1.6869130731566020e+00 
2.8580960000000002e+00,	 7.4592800000000004e-01,	 2.3675334921951823e-02,	 7.4731684349964735e+02,	 -2.4953286692070733e+01,	 5.3197929486591579e+02,	 3.6234376980207662e+03,	 4.4260602174476463e+02,	 1.6893880610052863e+00 
2.8655650000000001e+00,	 7.4592919999999996e-01,	 2.3638315840570061e-02,	 7.4807686871414433e+02,	 -2.5502314652511057e+01,	 5.3151613565852176e+02,	 3.6146222857074408e+03,	 4.4241330588629211e+02,	 1.6918827392035332e+00 
2.8730340000000001e+00,	 7.4593039999999999e-01,	 2.3599707208561273e-02,	 7.4883633948479860e+02,	 -2.6008374793406201e+01,	 5.3104350407286699e+02,	 3.6055095740322013e+03,	 4.4221656208845468e+02,	 1.6943912223197923e+00 
2.8805030000000000e+00,	 7.4593160000000003e-01,	 2.3560067776051505e-02,	 7.4960714178032288e+02,	 -2.6465331516606511e+01,	 5.3056852337925818e+02,	 3.5962340961920686e+03,	 4.4201875219508037e+02,	 1.6969284216862042e+00 
2.8879709999999998e+00,	 7.4593279999999995e-01,	 2.3520335212031410e-02,	 7.5040677724877264e+02,	 -2.6866647021332909e+01,	 5.3010165219631938e+02,	 3.5870101229342658e+03,	 4.4182423327221147e+02,	 1.6995164976723027e+00 
2.8954399999999998e+00,	 7.4593399999999999e-01,	 2.3481276507793920e-02,	 7.5124817145900784e+02,	 -2.7207157561896334e+01,	 5.2965217044824271e+02,	 3.5780169735012432e+03,	 4.4163687859875091e+02,	 1.7021691639015619e+00 
2.9029090000000002e+00,	 7.4593529999999997e-01,	 2.3443102007763936e-02,	 7.5213192019461883e+02,	 -2.7484338540353267e+01,	 5.2922458296688433e+02,	 3.5693162083700417e+03,	 4.4145857617805723e+02,	 1.7048800463402285e+00 
2.9103780000000001e+00,	 7.4593650000000000e-01,	 2.3405493674268509e-02,	 7.5304575841235646e+02,	 -2.7697614795769063e+01,	 5.2881810137135244e+02,	 3.5608530856944826e+03,	 4.4128900803821000e+02,	 1.7076223122485130e+00 
2.9178459999999999e+00,	 7.4593770000000004e-01,	 2.3367897122974945e-02,	 7.5397238159685344e+02,	 -2.7847295654341686e+01,	 5.2842894822523942e+02,	 3.5525170456823321e+03,	 4.4112660757336283e+02,	 1.7103626280206139e+00 
2.9253149999999999e+00,	 7.4593900000000002e-01,	 2.3329771320602048e-02,	 7.5489596929391405e+02,	 -2.7932022749595237e+01,	 5.2805280601249603e+02,	 3.5441963506912152e+03,	 4.4096957995740360e+02,	 1.7130717977586081e+00 
2.9327839999999998e+00,	 7.4594020000000005e-01,	 2.3290935182221226e-02,	 7.5580191311580268e+02,	 -2.7944643218675338e+01,	 5.2768785478764153e+02,	 3.5358510585698878e+03,	 4.4081717076436070e+02,	 1.7157188796088370e+00 
2.9402529999999998e+00,	 7.4594150000000004e-01,	 2.3251154769840549e-02,	 7.5668305694563367e+02,	 -2.7897566320354258e+01,	 5.2733151391958222e+02,	 3.5274282647234390e+03,	 4.4066830652620808e+02,	 1.7182927341593810e+00 
2.9477210000000000e+00,	 7.4594269999999996e-01,	 2.3209928269576265e-02,	 7.5752313807863493e+02,	 -2.7796261393145361e+01,	 5.2697843720467279e+02,	 3.5188161856116990e+03,	 4.4052075629778261e+02,	 1.7207655447250605e+00 
2.9551900000000000e+00,	 7.4594389999999999e-01,	 2.3166685385056784e-02,	 7.5830295858038949e+02,	 -2.7653306498388851e+01,	 5.2662243897384974e+02,	 3.5098875146464179e+03,	 4.4037193511903723e+02,	 1.7231048395090205e+00 
2.9626589999999999e+00,	 7.4594510000000003e-01,	 2.3121168675440975e-02,	 7.5900939964073541e+02,	 -2.7481682531122100e+01,	 5.2625994959098625e+02,	 3.5005802586729551e+03,	 4.4022034868999350e+02,	 1.7252877058927529e+00 
2.9701270000000002e+00,	 7.4594620000000000e-01,	 2.3073675751360101e-02,	 7.5963930508897124e+02,	 -2.7291787534230696e+01,	 5.2589222032831742e+02,	 3.4909487173147277e+03,	 4.4006651768557731e+02,	 1.7273057061338746e+00 
2.9775960000000001e+00,	 7.4594720000000003e-01,	 2.3024836937509320e-02,	 7.6019836520116883e+02,	 -2.7092479219579200e+01,	 5.2552338254804272e+02,	 3.4811163969019399e+03,	 4.3991216892255960e+02,	 1.7291655836599999e+00 
2.9850639999999999e+00,	 7.4594800000000006e-01,	 2.2975228912643399e-02,	 7.6069443043002047e+02,	 -2.6892661977580715e+01,	 5.2515686389284451e+02,	 3.4711935551821630e+03,	 4.3975873698722444e+02,	 1.7308801011511854e+00 
2.9925320000000002e+00,	 7.4594850000000001e-01,	 2.2925030564802752e-02,	 7.6113173156019604e+02,	 -2.6701594764492256e+01,	 5.2479211911001050e+02,	 3.4612037484485440e+03,	 4.3960599446693277e+02,	 1.7324603446827458e+00 
3.0000000000000000e+00,	 7.4594850000000001e-01,	 2.2881230436465928e-02,	 7.6141476562491130e+02,	 -2.6542357924352416e+01,	 5.2448128382371260e+02,	 3.4525446780806928e+03,	 4.3947578548518328e+02,	 1.7336046122581197e+00 
2.6489710000000000e+00,	 7.5166670000000002e-01,	 2.4960104570712870e-02,	 7.3767077588389157e+02,	 -1.5365671373422805e+01,	 5.4225045581576637e+02,	 3.8938235168272104e+03,	 4.4685838998204537e+02,	 1.6511512560211887e+00 
2.6564390000000002e+00,	 7.5166780000000000e-01,	 2.4917625295219299e-02,	 7.3804401570980508e+02,	 -1.5182459436575295e+01,	 5.4197664512427446e+02,	 3.8852338200663785e+03,	 4.4674555461864219e+02,	 1.6523950878786215e+00 
2.6639080000000002e+00,	 7.5166900000000003e-01,	 2.4865395819459162e-02,	 7.3852109321943499e+02,	 -1.4972541948943583e+01,	 5.4163054264311393e+02,	 3.8746141548909127e+03,	 4.4660288755083775e+02,	 1.6539813612861520e+00 
2.6713770000000001e+00,	 7.5167010000000001e-01,	 2.4812475460697696e-02,	 7.3896450675156325e+02,	 -1.4759725809664904e+01,	 5.4127414302597867e+02,	 3.8638237988613391e+03,	 4.4645592825106644e+02,	 1.6555091939813891e+00 
2.6788460000000001e+00,	 7.5167130000000004e-01,	 2.4758391601558929e-02,	 7.3936404933542178e+02,	 -1.4577058338617672e+01,	 5.4090362776213362e+02,	 3.8527626896246829e+03,	 4.4630309714306054e+02,	 1.6569630333083714e+00 
2.6863139999999999e+00,	 7.5167240000000002e-01,	 2.4702276789467782e-02,	 7.3971853714552458e+02,	 -1.4465677219377415e+01,	 5.4051455515044643e+02,	 3.8412654002515437e+03,	 4.4614255509862784e+02,	 1.6583487901667080e+00 
2.6937829999999998e+00,	 7.5167360000000005e-01,	 2.4646327393071561e-02,	 7.4001143767458564e+02,	 -1.4425507279726382e+01,	 5.4012639928196961e+02,	 3.8298128774306765e+03,	 4.4598233374075409e+02,	 1.6595994304170063e+00 
2.7012520000000002e+00,	 7.5167479999999998e-01,	 2.4594353708194874e-02,	 7.4022336793220325e+02,	 -1.4418304738920131e+01,	 5.3977078931970198e+02,	 3.8192204783343741e+03,	 4.4583549600623132e+02,	 1.6606209765625675e+00 
2.7087210000000002e+00,	 7.5167589999999995e-01,	 2.4546993459183285e-02,	 7.4036457968368177e+02,	 -1.4429851767283258e+01,	 5.3945185427916658e+02,	 3.8096136539434970e+03,	 4.4570376085550930e+02,	 1.6614290739658271e+00 
2.7161890000000000e+00,	 7.5167709999999999e-01,	 2.4501412481562151e-02,	 7.4048312652875995e+02,	 -1.4493517096942490e+01,	 5.3914366176542558e+02,	 3.8003672175097468e+03,	 4.4557642587093198e+02,	 1.6621726625318696e+00 
2.7236579999999999e+00,	 7.5167830000000002e-01,	 2.4454776206317842e-02,	 7.4063035445222135e+02,	 -1.4641262699596435e+01,	 5.3881868016938040e+02,	 3.7908471530946586e+03,	 4.4544211476248421e+02,	 1.6630108262535013e+00 
2.7311269999999999e+00,	 7.5167949999999994e-01,	 2.4407169056431952e-02,	 7.4079874171924939e+02,	 -1.4866548986543604e+01,	 5.3847293275927984e+02,	 3.7810395872178306e+03,	 4.4529917690847168e+02,	 1.6639327851553383e+00 
2.7385959999999998e+00,	 7.5168069999999998e-01,	 2.4359919811328370e-02,	 7.4094851464310784e+02,	 -1.5148244031663147e+01,	 5.3811353815066548e+02,	 3.7712012593558775e+03,	 4.4515054842014843e+02,	 1.6648375463931395e+00 
2.7460640000000001e+00,	 7.5168190000000001e-01,	 2.4313757977842233e-02,	 7.4106469910574287e+02,	 -1.5481273263939755e+01,	 5.3774483152726395e+02,	 3.7614757971568301e+03,	 4.4499801733850541e+02,	 1.6656846974475052e+00 
2.7535330000000000e+00,	 7.5168310000000005e-01,	 2.4268821264838068e-02,	 7.4117052961021216e+02,	 -1.5863366526314799e+01,	 5.3736859598912963e+02,	 3.7518969645172051e+03,	 4.4484231768906182e+02,	 1.6665237175354357e+00 
2.7610020000000000e+00,	 7.5168429999999997e-01,	 2.4224912212591862e-02,	 7.4129516007753023e+02,	 -1.6291092424401917e+01,	 5.3698474001709565e+02,	 3.7424335128250082e+03,	 4.4468340824947950e+02,	 1.6674203163916683e+00 
2.7684709999999999e+00,	 7.5168550000000001e-01,	 2.4181812589897524e-02,	 7.4145672738383746e+02,	 -1.6762992898097963e+01,	 5.3659233392296505e+02,	 3.7330452333152098e+03,	 4.4452090049395724e+02,	 1.6684169243732700e+00 
2.7759390000000002e+00,	 7.5168670000000004e-01,	 2.4139836156282131e-02,	 7.4167262318155611e+02,	 -1.7280355982871367e+01,	 5.3619368767632272e+02,	 3.7237966124939708e+03,	 4.4435574763746774e+02,	 1.6695494742277612e+00 
2.7834080000000001e+00,	 7.5168789999999996e-01,	 2.4099611673246420e-02,	 7.4196126736150995e+02,	 -1.7844760353076570e+01,	 5.3579328411468862e+02,	 3.7148154899749870e+03,	 4.4418980494147524e+02,	 1.6708529066691755e+00 
2.7908770000000001e+00,	 7.5168910000000000e-01,	 2.4061478594985725e-02,	 7.4233200489411456e+02,	 -1.8455072892136222e+01,	 5.3539378691653701e+02,	 3.7061720458090253e+03,	 4.4402417607108072e+02,	 1.6723444684402369e+00 
2.7983460000000000e+00,	 7.5169039999999998e-01,	 2.4024804953462264e-02,	 7.4277452039164791e+02,	 -1.9104663947935784e+01,	 5.3499035062827693e+02,	 3.6977347692436310e+03,	 4.4385685135732632e+02,	 1.6740085681881753e+00 
2.8058149999999999e+00,	 7.5169160000000002e-01,	 2.3988293665740085e-02,	 7.4326597954848239e+02,	 -1.9784131103282661e+01,	 5.3457311570704167e+02,	 3.6892357471998234e+03,	 4.4368373730035563e+02,	 1.6758090860346464e+00 
2.8132830000000002e+00,	 7.5169280000000005e-01,	 2.3951168616990724e-02,	 7.4379227034011137e+02,	 -2.0485344688893747e+01,	 5.3413731143844973e+02,	 3.6805232180651155e+03,	 4.4350284652465007e+02,	 1.6777216287772339e+00 
2.8207520000000001e+00,	 7.5169410000000003e-01,	 2.3913568414346591e-02,	 7.4435422511341608e+02,	 -2.1198901597434173e+01,	 5.3368644424504691e+02,	 3.6716434124295429e+03,	 4.4331562584736668e+02,	 1.6797423517285122e+00 
2.8282210000000001e+00,	 7.5169529999999996e-01,	 2.3876247007358565e-02,	 7.4496198380821420e+02,	 -2.1912600622519676e+01,	 5.3322926216902715e+02,	 3.6627727535636923e+03,	 4.4312570217168138e+02,	 1.6818798443488425e+00 
2.8356900000000000e+00,	 7.5169660000000005e-01,	 2.3839923605013337e-02,	 7.4562426390762403e+02,	 -2.2613769760672447e+01,	 5.3277422185101477e+02,	 3.6540795709634885e+03,	 4.4293658736557575e+02,	 1.6841397364860964e+00 
2.8431579999999999e+00,	 7.5169790000000003e-01,	 2.3804625506375042e-02,	 7.4633814556613481e+02,	 -2.3291944661239864e+01,	 5.3232453940759501e+02,	 3.6455896116197114e+03,	 4.4274961993586987e+02,	 1.6865096535097837e+00 
2.8506269999999998e+00,	 7.5169909999999995e-01,	 2.3769599275854335e-02,	 7.4708904913756226e+02,	 -2.3940342865970756e+01,	 5.3187743791866126e+02,	 3.6371680352599296e+03,	 4.4256364729822536e+02,	 1.6889605312326244e+00 
2.8580960000000002e+00,	 7.5170040000000005e-01,	 2.3733706640401087e-02,	 7.4785722263829871e+02,	 -2.4553760569517305e+01,	 5.3142696596856592e+02,	 3.6285999922088886e+03,	 4.4237619364323450e+02,	 1.6914567311734385e+00 
2.8655650000000001e+00,	 7.5170170000000003e-01,	 2.3696050389149712e-02,	 7.4862757546061766e+02,	 -2.5126536066789363e+01,	 5.3096834551025472e+02,	 3.6197162951696673e+03,	 4.4218526753632909e+02,	 1.6939712346499733e+00 
2.8730340000000001e+00,	 7.5170300000000001e-01,	 2.3656525501339738e-02,	 7.4939924508516401e+02,	 -2.5651888123126245e+01,	 5.3050269609892030e+02,	 3.6105094980968834e+03,	 4.4199133085966645e+02,	 1.6964996719350811e+00 
2.8805019999999999e+00,	 7.5170429999999999e-01,	 2.3615845949284411e-02,	 7.5018588756550412e+02,	 -2.6121502115398783e+01,	 5.3003826967464829e+02,	 3.6011455273532451e+03,	 4.4179781874298021e+02,	 1.6990589220286370e+00 
2.8879709999999998e+00,	 7.5170559999999997e-01,	 2.3574983796414942e-02,	 7.5100544170393107e+02,	 -2.6527172468159915e+01,	 5.2958646634638330e+02,	 3.5918502215464455e+03,	 4.4160948490904076e+02,	 1.7016704136370360e+00 
2.8954399999999998e+00,	 7.5170689999999996e-01,	 2.3534568114155732e-02,	 7.5187005363262745e+02,	 -2.6864075110071454e+01,	 5.2915656832082675e+02,	 3.5827818190345974e+03,	 4.4143020767955778e+02,	 1.7043460321779142e+00 
2.9029090000000002e+00,	 7.5170820000000005e-01,	 2.3494853727572377e-02,	 7.5277969825820821e+02,	 -2.7129219517345284e+01,	 5.2874998139962383e+02,	 3.5739876556657059e+03,	 4.4126058468923259e+02,	 1.7070828825229074e+00 
2.9103780000000001e+00,	 7.5170950000000003e-01,	 2.3455771340078306e-02,	 7.5372149114972251e+02,	 -2.7320825055007099e+01,	 5.2836280570921031e+02,	 3.5654298360810430e+03,	 4.4109899919111695e+02,	 1.7098576313402305e+00 