TITLE = "Final State"
VARIABLES = "X", "Y", "rho", "u", "v", "T", "p", "c", "M"
ZONE I=100, J=70, DATAPACKING=POINT
1.5332332499999999e+00,	 2.0326972500000001e-01,	 4.0233691361108853e-03,	 1.1931258317186680e+03,	 8.7321410337971384e-01,	 1.0896196712815126e+03,	 1.2612313363819017e+03,	 6.6247036324157136e+02,	 1.8010257023732767e+00 
1.5406977500000001e+00,	 2.0326805000000001e-01,	 4.0133027134574648e-03,	 1.1940228651230213e+03,	 8.6938875041348662e-01,	 1.0885564260678575e+03,	 1.2568481265079304e+03,	 6.6214706678541916e+02,	 1.8032597915569049e+00 
1.5481622500000001e+00,	 2.0326634999999998e-01,	 4.0033221467731615e-03,	 1.1949129186495863e+03,	 8.6525945980756902e-01,	 1.0875006651517751e+03,	 1.2525065562257489e+03,	 6.6182588978381534e+02,	 1.8054797347311129e+00 
1.5556267499999998e+00,	 2.0326464999999999e-01,	 3.9934271067373255e-03,	 1.1957960054748262e+03,	 8.6123027129920704e-01,	 1.0864523910460396e+03,	 1.2482063827855850e+03,	 6.6150683608886857e+02,	 1.8076854997907201e+00 
1.5630910000000000e+00,	 2.0326295000000000e-01,	 3.9836173864445943e-03,	 1.1966721228038180e+03,	 8.5703042315421285e-01,	 1.0854116256303287e+03,	 1.2439474253346657e+03,	 6.6118991543846801e+02,	 1.8098770137826974e+00 
1.5705555000000000e+00,	 2.0326127500000002e-01,	 3.9738928617719911e-03,	 1.1975412977937797e+03,	 8.5271922295515823e-01,	 1.0843783547594376e+03,	 1.2397294887662824e+03,	 6.6087512659089646e+02,	 1.8120542795491830e+00 
1.5780200000000000e+00,	 2.0325960000000001e-01,	 3.9642512420669145e-03,	 1.1984036523464752e+03,	 8.4857558395126631e-01,	 1.0833524510769766e+03,	 1.2355515750172108e+03,	 6.6056243376677526e+02,	 1.8142175387508819e+00 
1.5854845000000002e+00,	 2.0325789999999999e-01,	 3.9546931543136795e-03,	 1.1992591801543674e+03,	 8.4427834663090595e-01,	 1.0823339399068484e+03,	 1.2314137734169003e+03,	 6.6025184766823111e+02,	 1.8163667115444131e+00 
1.5929489999999999e+00,	 2.0325620000000000e-01,	 3.9452196342336203e-03,	 1.2001077590806815e+03,	 8.3996129186523505e-01,	 1.0813229840895192e+03,	 1.2273164565804095e+03,	 6.5994342096137336e+02,	 1.8185014274085731e+00 
1.6004135000000002e+00,	 2.0325450000000000e-01,	 3.9358288524382595e-03,	 1.2009495504730096e+03,	 8.3555391910114174e-01,	 1.0803194088317762e+03,	 1.2232587224478009e+03,	 6.5963710331131779e+02,	 1.8206220285522063e+00 
1.6078779999999999e+00,	 2.0325282499999997e-01,	 3.9265233191776820e-03,	 1.2017843262188849e+03,	 8.3108010211891248e-01,	 1.0793235033758265e+03,	 1.2192415457409434e+03,	 6.5933298600317596e+02,	 1.8227278766468320e+00 
1.6153424999999999e+00,	 2.0325114999999999e-01,	 3.9172979008665013e-03,	 1.2026124868591503e+03,	 8.2667110567457669e-01,	 1.0783348066982453e+03,	 1.2152626794287548e+03,	 6.5903093120443350e+02,	 1.8248199197365138e+00 
1.6228069999999999e+00,	 2.0324945000000000e-01,	 3.9081562978129959e-03,	 1.2034337267632657e+03,	 8.2217746240310852e-01,	 1.0773537005030164e+03,	 1.2113235738192755e+03,	 6.5873105844579641e+02,	 1.8268973235534616e+00 
1.6302715000000001e+00,	 2.0324774999999998e-01,	 3.8990965599206796e-03,	 1.2042482121819551e+03,	 8.1758039698071028e-01,	 1.0763800029257245e+03,	 1.2074232901646383e+03,	 6.5843331508437393e+02,	 1.8289604461475351e+00 
1.6377359999999999e+00,	 2.0324607500000000e-01,	 3.8901212795483019e-03,	 1.2050557074281028e+03,	 8.1290301119176100e-01,	 1.0754140123829832e+03,	 1.2035628377620903e+03,	 6.5813779532353033e+02,	 1.8310086279402502e+00 
1.6452002500000000e+00,	 2.0324439999999999e-01,	 3.8812258230712837e-03,	 1.2058565664763107e+03,	 8.0826789713659242e-01,	 1.0744553217003947e+03,	 1.1997401995256628e+03,	 6.5784437751197595e+02,	 1.8330427052093512e+00 
1.6526647500000000e+00,	 2.0324270000000000e-01,	 3.8724121507215520e-03,	 1.2066506407835845e+03,	 8.0367736060503248e-01,	 1.0735041247133665e+03,	 1.1959560747060868e+03,	 6.5755312382852060e+02,	 1.8350622401404446e+00 
1.6601290000000000e+00,	 2.0324099999999998e-01,	 3.8636815516244062e-03,	 1.2074378071490178e+03,	 7.9882651836891472e-01,	 1.0725605854463843e+03,	 1.1922109192640055e+03,	 6.5726408740716215e+02,	 1.8370668571886770e+00 
1.6675935000000000e+00,	 2.0323932499999997e-01,	 3.8550324399724179e-03,	 1.2082182006952089e+03,	 7.9391672440001682e-01,	 1.0716245578174280e+03,	 1.1885039569279224e+03,	 6.5697722639534436e+02,	 1.8390568394045437e+00 
1.6750579999999999e+00,	 2.0323764999999999e-01,	 3.8464639657417197e-03,	 1.2089918348770614e+03,	 7.8911085827361216e-01,	 1.0706960412741239e+03,	 1.1848348033473721e+03,	 6.5669254347450533e+02,	 1.8410321609672962e+00 
1.6825225000000001e+00,	 2.0323595000000000e-01,	 3.8379757686140357e-03,	 1.2097587740999345e+03,	 7.8419643072993950e-01,	 1.0697749742021128e+03,	 1.1812031594279017e+03,	 6.5641002257536570e+02,	 1.8429929261615638e+00 
1.6899869999999999e+00,	 2.0323424999999998e-01,	 3.8295699481431071e-03,	 1.2105188135864980e+03,	 7.7920906731698736e-01,	 1.0688616180349165e+03,	 1.1776098404323459e+03,	 6.5612974673233498e+02,	 1.8449385512590188e+00 
1.6974515000000001e+00,	 2.0323257500000000e-01,	 3.8212452087617822e-03,	 1.2112720746545733e+03,	 7.7410950476875440e-01,	 1.0679558425060527e+03,	 1.1740541842181822e+03,	 6.5585167882412111e+02,	 1.8468692863427729e+00 
1.7049159999999999e+00,	 2.0323089999999999e-01,	 3.8130007816577676e-03,	 1.2120185636331776e+03,	 7.6908542160108562e-01,	 1.0670576550483288e+03,	 1.1705358450728365e+03,	 6.5557582394353904e+02,	 1.8487850884336614e+00 
1.7123805000000001e+00,	 2.0322922500000001e-01,	 3.8048368320598223e-03,	 1.2127583054145377e+03,	 7.6392857801690228e-01,	 1.0661670409198900e+03,	 1.1670547412875699e+03,	 6.5530218035494556e+02,	 1.8506859619492559e+00 
1.7198449999999998e+00,	 2.0322755000000001e-01,	 3.7967528755666023e-03,	 1.2134912842149047e+03,	 7.5882082610388069e-01,	 1.0652840338572901e+03,	 1.1636106460323151e+03,	 6.5503076120179503e+02,	 1.8525718078362183e+00 
1.7273094999999998e+00,	 2.0322587500000000e-01,	 3.7887493616149646e-03,	 1.2142174998796995e+03,	 7.5355531966422840e-01,	 1.0644086489896963e+03,	 1.1602035993873981e+03,	 6.5476157390366859e+02,	 1.8544425667384057e+00 
1.7347740000000003e+00,	 2.0322419999999999e-01,	 3.7808254479258755e-03,	 1.2149369637338073e+03,	 7.4834938804483886e-01,	 1.0635408871053207e+03,	 1.1568332310667292e+03,	 6.5449462145691689e+02,	 1.8562982099149676e+00 
1.7422385000000000e+00,	 2.0322252499999999e-01,	 3.7729822377674267e-03,	 1.2156496243231334e+03,	 7.4295250908194654e-01,	 1.0626808250006720e+03,	 1.1534998499781964e+03,	 6.5422993023681295e+02,	 1.8581385460510986e+00 
1.7497030000000000e+00,	 2.0322089999999998e-01,	 3.7652202459649386e-03,	 1.2163553946675170e+03,	 7.3754547262035997e-01,	 1.0618285820398576e+03,	 1.1502036306611469e+03,	 6.5396753974649403e+02,	 1.8599632922864906e+00 
1.7571669999999999e+00,	 2.0321927500000000e-01,	 3.7575348623400517e-03,	 1.2170546292799452e+03,	 7.3229328126718574e-01,	 1.0609837441081395e+03,	 1.1469426061249969e+03,	 6.5370732518150794e+02,	 1.8617733084907353e+00 
1.7646315000000001e+00,	 2.0321762500000001e-01,	 3.7499277493586634e-03,	 1.2177472196625790e+03,	 7.2690843465523969e-01,	 1.0601464562542799e+03,	 1.1437173349217901e+03,	 6.5344933384364936e+02,	 1.8635682577805399e+00 
1.7720959999999999e+00,	 2.0321595000000001e-01,	 3.7423987306518585e-03,	 1.2184331401814140e+03,	 7.2155372775232163e-01,	 1.0593167630711660e+03,	 1.1405277051807179e+03,	 6.5319358211562121e+02,	 1.8653480180965347e+00 
1.7795604999999999e+00,	 2.0321424999999999e-01,	 3.7349483032626009e-03,	 1.2191123759081172e+03,	 7.1602739741139665e-01,	 1.0584946964258993e+03,	 1.1373737972301540e+03,	 6.5294008245786449e+02,	 1.8671124945997710e+00 
1.7870249999999999e+00,	 2.0321257500000001e-01,	 3.7275788388718640e-03,	 1.2197847048964409e+03,	 7.1038557778194378e-01,	 1.0576805386509345e+03,	 1.1342565307143034e+03,	 6.5268892460736197e+02,	 1.8688610542756323e+00 
1.7944895000000001e+00,	 2.0321090000000000e-01,	 3.7202847742298221e-03,	 1.2204505611751088e+03,	 7.0486454935039167e-01,	 1.0568737773675339e+03,	 1.1311735584999030e+03,	 6.5243995311518154e+02,	 1.8705947710485584e+00 
1.8019539999999998e+00,	 2.0320920000000001e-01,	 3.7130697059536122e-03,	 1.2211096476247917e+03,	 6.9925931141818753e-01,	 1.0560747858619154e+03,	 1.1281262730210676e+03,	 6.5219328574920701e+02,	 1.8723128166442777e+00 
1.8094185000000000e+00,	 2.0320750000000001e-01,	 3.7059320120068238e-03,	 1.2217621018420589e+03,	 6.9356669236537594e-01,	 1.0552834104940430e+03,	 1.1251139151645725e+03,	 6.5194887766573720e+02,	 1.8740154950148000e+00 
1.8168829999999998e+00,	 2.0320579999999999e-01,	 3.6988723612675898e-03,	 1.2224078387112079e+03,	 6.8787989197441191e-01,	 1.0544997674041063e+03,	 1.1221367116725680e+03,	 6.5170676729539946e+02,	 1.8757025300319476e+00 
1.8243475000000000e+00,	 2.0320410000000000e-01,	 3.6918889586392317e-03,	 1.2230470142571760e+03,	 6.8215573569979271e-01,	 1.0537236800512051e+03,	 1.1191938309553541e+03,	 6.5146690262656057e+02,	 1.8773742757500913e+00 
1.8318120000000000e+00,	 2.0320239999999998e-01,	 3.6849830648699807e-03,	 1.2236795003542913e+03,	 6.7641894249994949e-01,	 1.0529553166014875e+03,	 1.1162857365966229e+03,	 6.5122933814417604e+02,	 1.8790303440490423e+00 
1.8392765000000000e+00,	 2.0320067500000000e-01,	 3.6781516134374043e-03,	 1.2243055503575158e+03,	 6.7070637218588547e-01,	 1.0521943816055066e+03,	 1.1134110902544039e+03,	 6.5099398496897186e+02,	 1.8806713461892266e+00 
1.8467410000000002e+00,	 2.0319895000000002e-01,	 3.6713982864634894e-03,	 1.2249248574181797e+03,	 6.6487207178081376e-01,	 1.0514412604275039e+03,	 1.1105713200907853e+03,	 6.5076096475552981e+02,	 1.8822964255699637e+00 
1.8542049999999999e+00,	 2.0319725000000000e-01,	 3.6647206942361948e-03,	 1.2255376007009904e+03,	 6.5904309049610021e-01,	 1.0506957473719956e+03,	 1.1077653905542527e+03,	 6.5053021633346600e+02,	 1.8839060002644443e+00 
1.8616695000000001e+00,	 2.0319555000000000e-01,	 3.6581171957758033e-03,	 1.2261439162742527e+03,	 6.5323032994458152e-01,	 1.0499576887336718e+03,	 1.1049925516202475e+03,	 6.5030169452164739e+02,	 1.8855003771456853e+00 
1.8691339999999999e+00,	 2.0319382499999999e-01,	 3.6515881632960866e-03,	 1.2267437464878092e+03,	 6.4746601037563434e-01,	 1.0492271663206648e+03,	 1.1022529119028327e+03,	 6.5007542701140039e+02,	 1.8870793547624736e+00 
1.8765985000000001e+00,	 2.0319210000000001e-01,	 3.6451342884792392e-03,	 1.2273370640686467e+03,	 6.4155355856393481e-01,	 1.0485042251115278e+03,	 1.0995466377965654e+03,	 6.4985143009606384e+02,	 1.8886428111170339e+00 
1.8840629999999998e+00,	 2.0319039999999999e-01,	 3.6387550235042207e-03,	 1.2279238721415459e+03,	 6.3568796452435283e-01,	 1.0477888726648005e+03,	 1.0968734829538091e+03,	 6.4962970846753876e+02,	 1.8901907050770195e+00 
1.8915274999999998e+00,	 2.0318867499999999e-01,	 3.6324473440991606e-03,	 1.2285044275525415e+03,	 6.2987923870792106e-01,	 1.0470808070099424e+03,	 1.0942321329322990e+03,	 6.4941017081371592e+02,	 1.8917236659369869e+00 
1.8989920000000002e+00,	 2.0318695000000001e-01,	 3.6262151819081048e-03,	 1.2290784029047379e+03,	 6.2393944224268771e-01,	 1.0463804386891038e+03,	 1.0916241161775531e+03,	 6.4919294670408192e+02,	 1.8932407807502569e+00 
1.9064565000000000e+00,	 2.0318522500000000e-01,	 3.6200536472418489e-03,	 1.2296461886833345e+03,	 6.1810130948631536e-01,	 1.0456873019749560e+03,	 1.0890473895976547e+03,	 6.4897789394118843e+02,	 1.8947430344122145e+00 
1.9139210000000000e+00,	 2.0318349999999999e-01,	 3.6139664385071582e-03,	 1.2302074783158243e+03,	 6.1216279398615603e-01,	 1.0450017819971449e+03,	 1.0865033847979198e+03,	 6.4876513423372865e+02,	 1.8962295686216537e+00 
1.9213855000000000e+00,	 2.0318180000000000e-01,	 3.6079498045281217e-03,	 1.2307625761002898e+03,	 6.0628267044100426e-01,	 1.0443235176003336e+03,	 1.0839905158905985e+03,	 6.4855455769457740e+02,	 1.8977011429923931e+00 
1.9288500000000002e+00,	 2.0318007499999999e-01,	 3.6020038868837868e-03,	 1.2313114484390030e+03,	 6.0047749848024878e-01,	 1.0436525600820480e+03,	 1.0815087995520294e+03,	 6.4834618238468022e+02,	 1.8991576233679341e+00 
1.9363144999999999e+00,	 2.0317832499999999e-01,	 3.5961284603742306e-03,	 1.2318541381874466e+03,	 5.9459148164409237e-01,	 1.0429888673074884e+03,	 1.0790580461679535e+03,	 6.4813999733528351e+02,	 1.9005990785181204e+00 
1.9437790000000001e+00,	 2.0317659999999998e-01,	 3.5903249493251521e-03,	 1.2323905053663354e+03,	 5.8866760799025053e-01,	 1.0423326205506758e+03,	 1.0766387928763077e+03,	 6.4793606097921986e+02,	 1.9020250919454262e+00 
1.9512429999999998e+00,	 2.0317487499999998e-01,	 3.5845897933587463e-03,	 1.2329208319600116e+03,	 5.8285898164304395e-01,	 1.0416834845643712e+03,	 1.0742495489263488e+03,	 6.4773427120961423e+02,	 1.9034363697166212e+00 
1.9587075000000000e+00,	 2.0317315000000000e-01,	 3.5789245392535171e-03,	 1.2334450106643765e+03,	 5.7694036844482577e-01,	 1.0410416004776289e+03,	 1.0718908493966107e+03,	 6.4753467392487244e+02,	 1.9048325831252340e+00 
1.9661720000000000e+00,	 2.0317142499999999e-01,	 3.5733266898957685e-03,	 1.2339632103391202e+03,	 5.7118889504573478e-01,	 1.0404067707812883e+03,	 1.0695616696274058e+03,	 6.4733720970833122e+02,	 1.9062141400674815e+00 
1.9736365000000000e+00,	 2.0316967499999999e-01,	 3.5677968795347448e-03,	 1.2344754068032007e+03,	 5.6534658218246281e-01,	 1.0397790345197056e+03,	 1.0672621684086814e+03,	 6.4714189266289031e+02,	 1.9075809343419277e+00 
1.9811009999999998e+00,	 2.0316795000000001e-01,	 3.5623360410809634e-03,	 1.2349815028578519e+03,	 5.5948896802687154e-01,	 1.0391585200047841e+03,	 1.0649926854270348e+03,	 6.4694876467483709e+02,	 1.9089326651893417e+00 
1.9885655000000000e+00,	 2.0316622499999998e-01,	 3.5569398290582551e-03,	 1.2354818541269030e+03,	 5.5376714931341786e-01,	 1.0385448000287088e+03,	 1.0627514141891015e+03,	 6.4675769468256522e+02,	 1.9102702424559799e+00 
1.9960300000000000e+00,	 2.0316447499999998e-01,	 3.5516105777938156e-03,	 1.2359762666185095e+03,	 5.4802211224350783e-01,	 1.0379381213446341e+03,	 1.0605392379930461e+03,	 6.4656876136625840e+02,	 1.9115931080572326e+00 
2.0034945000000000e+00,	 2.0316275000000000e-01,	 3.5463472406394611e-03,	 1.2364648370860389e+03,	 5.4223134625371305e-01,	 1.0373383739244618e+03,	 1.0583556647761702e+03,	 6.4638193231940454e+02,	 1.9129014815475527e+00 
2.0109589999999997e+00,	 2.0316102500000000e-01,	 3.5411477531495658e-03,	 1.2369477070682810e+03,	 5.3660361859042582e-01,	 1.0367453922695374e+03,	 1.0561998445769566e+03,	 6.4619715779001240e+02,	 1.9141957041274453e+00 
2.0184234999999999e+00,	 2.0315927500000000e-01,	 3.5360125453952071e-03,	 1.2374248673626873e+03,	 5.3090510157929760e-01,	 1.0361591960365445e+03,	 1.0540718625549030e+03,	 6.4601444566867440e+02,	 1.9154757135062006e+00 
2.0258880000000001e+00,	 2.0315752500000001e-01,	 3.5309411889412460e-03,	 1.2378963321133328e+03,	 5.2527163709306768e-01,	 1.0355797758633103e+03,	 1.0519715189612066e+03,	 6.4583379478647669e+02,	 1.9167415108182921e+00 
2.0333524999999999e+00,	 2.0315577499999998e-01,	 3.5259323419796051e-03,	 1.2383622253251076e+03,	 5.1964044848599544e-01,	 1.0350069872982804e+03,	 1.0498982061329864e+03,	 6.4565516181790986e+02,	 1.9179933927328852e+00 
2.0408169999999997e+00,	 2.0315405000000000e-01,	 3.5209872547725582e-03,	 1.2388224304795910e+03,	 5.1400540089668545e-01,	 1.0344409814117244e+03,	 1.0478523896084184e+03,	 6.4547859557132381e+02,	 1.9192310103129497e+00 
2.0482812500000001e+00,	 2.0315232499999999e-01,	 3.5161016518609617e-03,	 1.2392772981333856e+03,	 5.0856139539648326e-01,	 1.0338813344727348e+03,	 1.0458323089660687e+03,	 6.4530396550596060e+02,	 1.9204552718201664e+00 
2.0557457499999998e+00,	 2.0315057499999997e-01,	 3.5112768444141565e-03,	 1.2397267299033945e+03,	 5.0302513650999969e-01,	 1.0333281749839732e+03,	 1.0438384282565787e+03,	 6.4513131330776287e+02,	 1.9216658785316441e+00 
2.0632099999999998e+00,	 2.0314882499999998e-01,	 3.5065124975222480e-03,	 1.2401707479333293e+03,	 4.9759233383001172e-01,	 1.0327814828488104e+03,	 1.0418705716564900e+03,	 6.4496063429005926e+02,	 1.9228628567736603e+00 
2.0706745000000000e+00,	 2.0314707500000001e-01,	 3.5018069549772215e-03,	 1.2406094979356685e+03,	 4.9217676136487232e-01,	 1.0322410857608393e+03,	 1.0399280186122730e+03,	 6.4479187620397306e+02,	 1.9240465665727808e+00 
2.0781390000000002e+00,	 2.0314532499999999e-01,	 3.4971609187301558e-03,	 1.2410429084259467e+03,	 4.8678412477566996e-01,	 1.0317070786891481e+03,	 1.0380110200305944e+03,	 6.4462507022717182e+02,	 1.9252167829218794e+00 
2.0856034999999999e+00,	 2.0314357499999999e-01,	 3.4925720056711968e-03,	 1.2414711881061683e+03,	 4.8145514575195397e-01,	 1.0311792112165192e+03,	 1.0361185642636474e+03,	 6.4446013962333882e+02,	 1.9263740379480332e+00 
2.0930679999999997e+00,	 2.0314182500000000e-01,	 3.4880406987905016e-03,	 1.2418942859168874e+03,	 4.7618137642390579e-01,	 1.0306575528492103e+03,	 1.0342508139316938e+03,	 6.4429710755797419e+02,	 1.9275181630341327e+00 
2.1005324999999999e+00,	 2.0314007500000000e-01,	 3.4835652439857254e-03,	 1.2423123613534542e+03,	 4.7094552598194167e-01,	 1.0301419133702848e+03,	 1.0324070083255278e+03,	 6.4413591600241818e+02,	 1.9286495594411961e+00 
2.1079970000000001e+00,	 2.0313832500000001e-01,	 3.4791459868958870e-03,	 1.2427253736990799e+03,	 4.6576265534477668e-01,	 1.0296323492610004e+03,	 1.0305872582581098e+03,	 6.4397658400165642e+02,	 1.9297680876200543e+00 
2.1154614999999999e+00,	 2.0313657499999999e-01,	 3.4747812162259362e-03,	 1.2431334787964065e+03,	 4.6061690944654171e-01,	 1.0291286743813193e+03,	 1.0287908230932373e+03,	 6.4381905471204004e+02,	 1.9308741408536934e+00 
2.1229259999999996e+00,	 2.0313482499999999e-01,	 3.4704706332168277e-03,	 1.2435366900733256e+03,	 4.5556520334770889e-01,	 1.0286308780697095e+03,	 1.0270175579027436e+03,	 6.4366332612143412e+02,	 1.9319677276223357e+00 
2.1303904999999999e+00,	 2.0313307500000000e-01,	 3.4662134623706588e-03,	 1.2439350875000976e+03,	 4.5050845303259412e-01,	 1.0281388674793589e+03,	 1.0252670955639551e+03,	 6.4350937048085530e+02,	 1.9330490372650517e+00 
2.1378550000000001e+00,	 2.0313130000000001e-01,	 3.4620086277746889e-03,	 1.2443287482328337e+03,	 4.4556691234274148e-01,	 1.0276525529036337e+03,	 1.0235389846973450e+03,	 6.4335716098289402e+02,	 1.9341182526136516e+00 
2.1453192500000000e+00,	 2.0312952499999998e-01,	 3.4578570641202104e-03,	 1.2447176087858311e+03,	 4.4057288820789176e-01,	 1.0271720184683406e+03,	 1.0218335425642136e+03,	 6.4320672520662765e+02,	 1.9351751746023114e+00 
2.1527837500000002e+00,	 2.0312777499999998e-01,	 3.4537565784371681e-03,	 1.2451018405295679e+03,	 4.3562247359893064e-01,	 1.0266970577827983e+03,	 1.0201498735389774e+03,	 6.4305799976185813e+02,	 1.9362202432689577e+00 
2.1602480000000002e+00,	 2.0312602499999999e-01,	 3.4497064807007434e-03,	 1.2454815028862183e+03,	 4.3084069038538636e-01,	 1.0262276025886547e+03,	 1.0184876654917703e+03,	 6.4291096445430276e+02,	 1.9372535953904921e+00 
2.1677124999999999e+00,	 2.0312427499999999e-01,	 3.4457058961924552e-03,	 1.2458566829502699e+03,	 4.2607189381966987e-01,	 1.0257635503790625e+03,	 1.0168465190118088e+03,	 6.4276558832733838e+02,	 1.9382754435388241e+00 
2.1751769999999997e+00,	 2.0312249999999998e-01,	 3.4417540635653106e-03,	 1.2462274348680041e+03,	 4.2140287813723742e-01,	 1.0253048390931265e+03,	 1.0152261095847642e+03,	 6.4262185305830417e+02,	 1.9392859115889973e+00 
2.1826414999999999e+00,	 2.0312072499999997e-01,	 3.4378513962920322e-03,	 1.2465937400597920e+03,	 4.1667984438086558e-01,	 1.0248514967121614e+03,	 1.0136265492773831e+03,	 6.4247976851922408e+02,	 1.9402849253471750e+00 
2.1901060000000001e+00,	 2.0311897499999998e-01,	 3.4339969300142782e-03,	 1.2469556628972048e+03,	 4.1204820728946812e-01,	 1.0244034482920486e+03,	 1.0120474425183049e+03,	 6.4233931230913197e+02,	 1.9412726375003317e+00 
2.1975704999999999e+00,	 2.0311720000000000e-01,	 3.4301878080451350e-03,	 1.2473134576323994e+03,	 4.0754866203605528e-01,	 1.0239603836154530e+03,	 1.0104876053788419e+03,	 6.4220038821645403e+02,	 1.9422497200257900e+00 
2.2050349999999996e+00,	 2.0311542499999999e-01,	 3.4264270315787601e-03,	 1.2476668703406774e+03,	 4.0297487208341937e-01,	 1.0235226217803214e+03,	 1.0089482024225729e+03,	 6.4206309732193495e+02,	 1.9432154575176466e+00 
2.2124994999999998e+00,	 2.0311367499999999e-01,	 3.4227111576313248e-03,	 1.2480161920906762e+03,	 3.9851420667025289e-01,	 1.0230898065897916e+03,	 1.0074278340319973e+03,	 6.4192732892741981e+02,	 1.9441706241146652e+00 
2.2199640000000000e+00,	 2.0311190000000001e-01,	 3.4190399155633218e-03,	 1.2483614434794904e+03,	 3.9415838618402282e-01,	 1.0226619167490603e+03,	 1.0059263669972036e+03,	 6.4179307731714073e+02,	 1.9451152557205218e+00 
2.2274282500000000e+00,	 2.0311012500000000e-01,	 3.4154137892129423e-03,	 1.2487025949260230e+03,	 3.8978376498699480e-01,	 1.0222389931961987e+03,	 1.0044439517472326e+03,	 6.4166035629157932e+02,	 1.9460492510063845e+00 
2.2348927500000002e+00,	 2.0310834999999999e-01,	 3.4118303210078846e-03,	 1.2490398479414955e+03,	 3.8548408027274372e-01,	 1.0218207900937207e+03,	 1.0029795925114068e+03,	 6.4152908962869753e+02,	 1.9469731421677108e+00 
2.2423572500000004e+00,	 2.0310657500000001e-01,	 3.4082910636341781e-03,	 1.2493730788517314e+03,	 3.8122211012318208e-01,	 1.0214074648272740e+03,	 1.0015338698766063e+03,	 6.4139932763709282e+02,	 1.9478865710940081e+00 
2.2498217500000002e+00,	 2.0310479999999997e-01,	 3.4047934908634186e-03,	 1.2497024983658064e+03,	 3.7701052322774525e-01,	 1.0209987598745497e+03,	 1.0001057588777192e+03,	 6.4127099035761705e+02,	 1.9487900965817793e+00 
2.2572859999999997e+00,	 2.0310302499999999e-01,	 3.4013387954996976e-03,	 1.2500280080773052e+03,	 3.7285100835919227e-01,	 1.0205948011367304e+03,	 9.9869570429232533e+02,	 6.4114411819178213e+02,	 1.9496834303161983e+00 
2.2647504999999999e+00,	 2.0310125000000001e-01,	 3.3979237561898926e-03,	 1.2503498865468948e+03,	 3.6881590330656050e-01,	 1.0201952464953232e+03,	 9.9730239709948989e+02,	 6.4101860452799156e+02,	 1.9505673191223842e+00 
2.2722150000000001e+00,	 2.0309944999999999e-01,	 3.3945498220359265e-03,	 1.2506680110046445e+03,	 3.6479029718773565e-01,	 1.0198002519423346e+03,	 9.9592638813492556e+02,	 6.4089449918106720e+02,	 1.9514414085361889e+00 
1.5332302500000001e+00,	 2.0948842499999998e-01,	 4.3537039024623102e-03,	 1.2606661740827858e+03,	 2.7060500155582292e+00,	 1.0073198041808295e+03,	 1.2617002786669266e+03,	 6.3696075169755409e+02,	 1.9791942831957954e+00 
1.5406947500000001e+00,	 2.0948395000000000e-01,	 4.3421261146805697e-03,	 1.2613264435587885e+03,	 2.6926599612754729e+00,	 1.0064930263379310e+03,	 1.2573122322233642e+03,	 6.3669929891067079e+02,	 1.9810439870716139e+00 
1.5481592500000001e+00,	 2.0947944999999998e-01,	 4.3306484056511337e-03,	 1.2619818633967443e+03,	 2.6793605548460038e+00,	 1.0056718933555867e+03,	 1.2529656815996707e+03,	 6.3643952489497701e+02,	 1.9828823609387396e+00 
1.5556237500000001e+00,	 2.0947494999999999e-01,	 4.3192704858672614e-03,	 1.2626323939338479e+03,	 2.6657638203774003e+00,	 1.0048564654707568e+03,	 1.2486604911089610e+03,	 6.3618145077518147e+02,	 1.9847092468226610e+00 
1.5630882499999998e+00,	 2.0947045000000000e-01,	 4.3079918339555823e-03,	 1.2632780781739543e+03,	 2.6522892099496258e+00,	 1.0040466970906542e+03,	 1.2443963273876827e+03,	 6.3592506418249343e+02,	 1.9865247237490182e+00 
1.5705527500000001e+00,	 2.0946597499999997e-01,	 4.2968158891620771e-03,	 1.2639199373520387e+03,	 2.6386724576398439e+00,	 1.0032413163324557e+03,	 1.2401724863651566e+03,	 6.3566996421615545e+02,	 1.9883316231120833e+00 
1.5780172500000000e+00,	 2.0946149999999997e-01,	 4.2857348573176225e-03,	 1.2645558898842417e+03,	 2.6249335709438721e+00,	 1.0024429446756398e+03,	 1.2359898387495900e+03,	 6.3541698326293601e+02,	 1.9901240407102001e+00 
1.5854817500000000e+00,	 2.0945700000000000e-01,	 4.2747518876338425e-03,	 1.2651869754703682e+03,	 2.6108156906732463e+00,	 1.0016502875840613e+03,	 1.2318475675665477e+03,	 6.3516571340978476e+02,	 1.9919048565928466e+00 
1.5929462500000000e+00,	 2.0945249999999999e-01,	 4.2638664834318335e-03,	 1.2658132215813816e+03,	 2.5968516600549307e+00,	 1.0008633182849560e+03,	 1.2277453757032645e+03,	 6.3491614819632082e+02,	 1.9936741078831857e+00 
1.6004107500000000e+00,	 2.0944800000000000e-01,	 4.2530782851824657e-03,	 1.2664346112902767e+03,	 2.5825276340146424e+00,	 1.0000820684225370e+03,	 1.2236830787315146e+03,	 6.3466829967441254e+02,	 1.9954317004596813e+00 
1.6078752500000000e+00,	 2.0944352499999999e-01,	 4.2423912666129234e-03,	 1.2670521513683493e+03,	 2.5685145447745756e+00,	 9.9930527837992292e+02,	 1.2196601629028321e+03,	 6.3442177001419157e+02,	 1.9971804478420883e+00 
1.6153397500000002e+00,	 2.0943904999999999e-01,	 4.2317970407452716e-03,	 1.2676638032039327e+03,	 2.5539003830093789e+00,	 9.9853552411624821e+02,	 1.2156772460359143e+03,	 6.3417737875972227e+02,	 1.9989145281242098e+00 
1.6228042499999997e+00,	 2.0943455000000000e-01,	 4.2212994861803525e-03,	 1.2682705778221746e+03,	 2.5393577222221149e+00,	 9.9777154118268709e+02,	 1.2117337799155875e+03,	 6.3393472670014523e+02,	 2.0006367636599651e+00 
1.6302687499999999e+00,	 2.0943004999999998e-01,	 4.2108974176602258e-03,	 1.2688725134330373e+03,	 2.5244988948136911e+00,	 9.9701329122232460e+02,	 1.2078292620693931e+03,	 6.3369380364368487e+02,	 2.0023472179411144e+00 
1.6377332499999999e+00,	 2.0942557499999997e-01,	 4.2005954045850752e-03,	 1.2694705668897286e+03,	 2.5099063980836283e+00,	 9.9625957508123872e+02,	 1.2039634390516505e+03,	 6.3345423033271516e+02,	 2.0040485757340720e+00 
1.6451975000000001e+00,	 2.0942110000000000e-01,	 4.1903853095138794e-03,	 1.2700627203078575e+03,	 2.4948015069973088e+00,	 9.9551294687776192e+02,	 1.2001369539924465e+03,	 6.3321682059993941e+02,	 2.0057350488391497e+00 
1.6526619999999999e+00,	 2.0941660000000001e-01,	 4.1802694209775691e-03,	 1.2706500427881867e+03,	 2.4796037763993728e+00,	 9.9477206684407952e+02,	 1.1963487289010657e+03,	 6.3298115062764850e+02,	 2.0074096376033199e+00 
1.6601265000000001e+00,	 2.0941212499999998e-01,	 4.1702503268986578e-03,	 1.2712323542507170e+03,	 2.4641842004786056e+00,	 9.9403717107890475e+02,	 1.1925996767008269e+03,	 6.3274729750327447e+02,	 2.0090717851794273e+00 
1.6675910000000000e+00,	 2.0940767499999999e-01,	 4.1603272821456169e-03,	 1.2718109393831046e+03,	 2.4489808639979853e+00,	 9.9330664455046872e+02,	 1.1888875382853230e+03,	 6.3251474903471717e+02,	 2.0107251240908020e+00 
1.6750554999999998e+00,	 2.0940319999999998e-01,	 4.1504968120176112e-03,	 1.2723835125882174e+03,	 2.4333440390859917e+00,	 9.9258338345223297e+02,	 1.1852146817032558e+03,	 6.3228442911264949e+02,	 2.0123630771225627e+00 
1.6825200000000002e+00,	 2.0939869999999999e-01,	 4.1407589804054205e-03,	 1.2729512777240955e+03,	 2.4175897206851160e+00,	 9.9186587534175908e+02,	 1.1815792040285896e+03,	 6.3205585827965103e+02,	 2.0139890435168328e+00 
1.6899845000000000e+00,	 2.0939419999999997e-01,	 4.1311163892016256e-03,	 1.2735140540491359e+03,	 2.4016876675013110e+00,	 9.9115435699704778e+02,	 1.1779820228774838e+03,	 6.3182911390317133e+02,	 2.0156024638064451e+00 
1.6974490000000000e+00,	 2.0938972500000000e-01,	 4.1215699557800873e-03,	 1.2740729837211006e+03,	 2.3858525761487837e+00,	 9.9044739107562509e+02,	 1.1744215869891013e+03,	 6.3160373965711926e+02,	 2.0172065768745768e+00 
1.7049135000000000e+00,	 2.0938527499999998e-01,	 4.1121153537117174e-03,	 1.2746258602858320e+03,	 2.3695774276503134e+00,	 9.8974777827643049e+02,	 1.1708998815679340e+03,	 6.3138063032131515e+02,	 2.0187950051651917e+00 
1.7123780000000002e+00,	 2.0938082499999996e-01,	 4.1027551454192023e-03,	 1.2751749618569556e+03,	 2.3535307294122330e+00,	 9.8905264194251504e+02,	 1.1674141248652516e+03,	 6.3115887043636428e+02,	 2.0203742567607899e+00 
1.7198424999999999e+00,	 2.0937637500000000e-01,	 4.0934865219625144e-03,	 1.2757179887963036e+03,	 2.3369906155958020e+00,	 9.8836490348545567e+02,	 1.1639668658326675e+03,	 6.3093939389201432e+02,	 2.0219376721656981e+00 
1.7273069999999999e+00,	 2.0937192500000001e-01,	 4.0843122330957281e-03,	 1.2762571974849350e+03,	 2.3206151688374339e+00,	 9.8768171124491801e+02,	 1.1605554214858341e+03,	 6.3072129255510640e+02,	 2.0234917107320749e+00 
1.7347714999999999e+00,	 2.0936747500000000e-01,	 4.0752284968810920e-03,	 1.2767903606413959e+03,	 2.3038199313656307e+00,	 9.8700589695045142e+02,	 1.1571819462716055e+03,	 6.3050547231658220e+02,	 2.0250299088385657e+00 
1.7422360000000001e+00,	 2.0936307499999998e-01,	 4.0662398408327473e-03,	 1.2773195823867254e+03,	 2.2870554209466012e+00,	 9.8633479997954919e+02,	 1.1538445017920285e+03,	 6.3029108542013751e+02,	 2.0265582989059490e+00 
1.7497005000000001e+00,	 2.0935874999999998e-01,	 4.0573473374112207e-03,	 1.2778447832055053e+03,	 2.2704559578284456e+00,	 9.8566852713862249e+02,	 1.1505434251691215e+03,	 6.3007816746630999e+02,	 2.0280766200786369e+00 
1.7571647499999998e+00,	 2.0935440000000000e-01,	 4.0485420087779823e-03,	 1.2783641219921767e+03,	 2.2535973402792475e+00,	 9.8500942315765587e+02,	 1.1472788109435219e+03,	 6.2986746961781023e+02,	 2.0295795068962228e+00 
1.7646292500000000e+00,	 2.0934999999999998e-01,	 4.0398273942519160e-03,	 1.2788785301044609e+03,	 2.2364356120480320e+00,	 9.8435631426258362e+02,	 1.1440501931572242e+03,	 6.2965861869214461e+02,	 2.0310696107676347e+00 
1.7720937500000000e+00,	 2.0934554999999999e-01,	 4.0311995916874508e-03,	 1.2793870716227070e+03,	 2.2191909460109804e+00,	 9.8371039670356470e+02,	 1.1408577586019439e+03,	 6.2945199925331997e+02,	 2.0325441778147555e+00 