TITLE = "Final State"
VARIABLES = "X", "Y", "rho", "u", "v", "T", "p", "c", "M"
ZONE I=100, J=69, DATAPACKING=POINT
7.7701062499999995e-01,	 5.9502849999999996e-01,	 1.1586407740536365e-02,	 1.7359999999998777e+03,	 5.4381487064576728e-10,	 3.0000000000022521e+02,	 1.0000000000019734e+03,	 3.4760788074267816e+02,	 4.9941330337242187e+00 
7.8496677500000001e-01,	 5.9561887499999999e-01,	 1.1586407740619857e-02,	 1.7359999999991308e+03,	 3.6840789410302061e-09,	 3.0000000000151067e+02,	 1.0000000000134644e+03,	 3.4760788074342287e+02,	 4.9941330337113703e+00 
7.9288852499999996e-01,	 5.9616835000000001e-01,	 1.1586407741132598e-02,	 1.7359999999946767e+03,	 2.2784091807530894e-08,	 3.0000000000921432e+02,	 1.0000000000833968e+03,	 3.4760788074788593e+02,	 4.9941330336344354e+00 
8.0077689999999990e-01,	 5.9667942499999993e-01,	 1.1586407743996470e-02,	 1.7359999999703336e+03,	 1.2850867073969489e-07,	 3.0000000005120756e+02,	 1.0000000004705494e+03,	 3.4760788077221463e+02,	 4.9941330332148715e+00 
8.0863482499999995e-01,	 5.9715507499999998e-01,	 1.1586407758539736e-02,	 1.7359999998494329e+03,	 6.6092412806982872e-07,	 3.0000000025967228e+02,	 1.0000000024206324e+03,	 3.4760788089298791e+02,	 4.9941330311318968e+00 
8.1646544999999993e-01,	 5.9759827499999996e-01,	 1.1586407826137610e-02,	 1.7359999992994667e+03,	 3.1157790461385131e-06,	 3.0000000120787047e+02,	 1.0000000114155323e+03,	 3.4760788144232316e+02,	 4.9941330216573716e+00 
8.2427087499999985e-01,	 5.9801145000000000e-01,	 1.1586408115368462e-02,	 1.7359999969928742e+03,	 1.3540070658725211e-05,	 3.0000000518459308e+02,	 1.0000000496342192e+03,	 3.4760788374622337e+02,	 4.9941329819212861e+00 
8.3205427499999995e-01,	 5.9839732499999998e-01,	 1.1586409262510700e-02,	 1.7359999880125715e+03,	 5.4590378149400720e-05,	 3.0000002066717400e+02,	 1.0000002002504148e+03,	 3.4760789271600174e+02,	 4.9941328272166059e+00 
8.3981920000000010e-01,	 5.9875852500000004e-01,	 1.1586413506438327e-02,	 1.7359999553481789e+03,	 2.0544964081054007e-04,	 3.0000007698247003e+02,	 1.0000007542532099e+03,	 3.4760792534206695e+02,	 4.9941322645042217e+00 
8.4756815000000008e-01,	 5.9909734999999997e-01,	 1.1586428240586430e-02,	 1.7359998437074657e+03,	 7.2594345186138018e-04,	 3.0000026945724971e+02,	 1.0000026675125329e+03,	 3.4760803685161852e+02,	 4.9941303412632374e+00 
8.5530205000000004e-01,	 5.9941562500000001e-01,	 1.1586476513609497e-02,	 1.7359994831564834e+03,	 2.4213370145416266e-03,	 3.0000089106511695e+02,	 1.0000089059042091e+03,	 3.4760839697759252e+02,	 4.9941241300625938e+00 
8.6302202500000003e-01,	 5.9971510000000006e-01,	 1.1586626489648245e-02,	 1.7359983777544564e+03,	 7.6599976692066241e-03,	 3.0000279681446068e+02,	 1.0000282026965061e+03,	 3.4760950106335042e+02,	 4.9941050876367665e+00 
8.7072917500000002e-01,	 5.9999725000000004e-01,	 1.1587070701133557e-02,	 1.7359951435425796e+03,	 2.3097537285682677e-02,	 3.0000837253578317e+02,	 1.0000851288722963e+03,	 3.4761273130773839e+02,	 4.9940493754797952e+00 
8.7842460000000000e-01,	 6.0026357500000005e-01,	 1.1588328396328439e-02,	 1.7359860842353248e+03,	 6.6606249264426126e-02,	 3.0002398928072080e+02,	 1.0002457455390794e+03,	 3.4762177856977399e+02,	 4.9938933419404670e+00 
8.8610907500000002e-01,	 6.0051535000000000e-01,	 1.1591747534250340e-02,	 1.7359616913380487e+03,	 1.8439546029995987e-01,	 3.0006602872688887e+02,	 1.0006810642560843e+03,	 3.4764613214762380e+02,	 4.9934733644446858e+00 
8.9378334999999998e-01,	 6.0075352500000001e-01,	 1.1600684847323508e-02,	 1.7358983755526533e+03,	 4.9127061201107175e-01,	 3.0017508142855650e+02,	 1.0018165528255471e+03,	 3.4770929875492703e+02,	 4.9923843028786852e+00 
9.0144800000000003e-01,	 6.0097872500000005e-01,	 1.1623191640727547e-02,	 1.7357394469192743e+03,	 1.2624442504047793e+00,	 3.0044838340626058e+02,	 1.0046741022425994e+03,	 3.4786755309414781e+02,	 4.9896573870808592e+00 
9.0910367500000000e-01,	 6.0119182500000001e-01,	 1.1677478098273254e-02,	 1.7353533798645135e+03,	 3.1242174963952687e+00,	 3.0110975594158771e+02,	 1.0115883654162454e+03,	 3.4825022044230684e+02,	 4.9830727744473577e+00 
9.1675107500000008e-01,	 6.0139394999999995e-01,	 1.1801623847922989e-02,	 1.7344452649815805e+03,	 7.4081367417901376e+00,	 3.0265200095950689e+02,	 1.0275790829322073e+03,	 3.4914092755128956e+02,	 4.9677965222687908e+00 
9.2439072500000008e-01,	 6.0158597500000000e-01,	 1.2064008927496823e-02,	 1.7323779133008509e+03,	 1.6625715635639811e+01,	 3.0610091502747298e+02,	 1.0623954822198543e+03,	 3.5112463478847513e+02,	 4.9340248980565802e+00 
9.3202292499999995e-01,	 6.0176830000000003e-01,	 1.2555574073235397e-02,	 1.7278768299605206e+03,	 3.4592410102108808e+01,	 3.1337784564970900e+02,	 1.1319697016487346e+03,	 3.5527375964653919e+02,	 4.8644827306627088e+00 
9.3964795000000001e-01,	 6.0194134999999993e-01,	 1.3370007976262616e-02,	 1.7192379157325947e+03,	 6.4364469501890227e+01,	 3.2670213872875331e+02,	 1.2566478177093802e+03,	 3.6274795715612555e+02,	 4.7428036235411559e+00 
9.4726612499999996e-01,	 6.0210564999999994e-01,	 1.4572856077720816e-02,	 1.7053451176363519e+03,	 1.0529935293825390e+02,	 3.4687831613895338e+02,	 1.4542925039932124e+03,	 3.7378129361113565e+02,	 4.5711034643884139e+00 
9.5487750000000005e-01,	 6.0226132499999996e-01,	 1.6150000235513658e-02,	 1.6864501154537563e+03,	 1.5305933890028004e+02,	 3.7257470513824103e+02,	 1.7310748106694414e+03,	 3.8737863970703188e+02,	 4.3713860286230934e+00 
9.6248215000000004e-01,	 6.0240834999999993e-01,	 1.7994735611791029e-02,	 1.6642219117750526e+03,	 2.0190130502035353e+02,	 4.0094937887820726e+02,	 2.0757017556562046e+03,	 4.0185905542296410e+02,	 4.1716725289332670e+00 
9.7008030000000001e-01,	 6.0254707499999993e-01,	 1.9943345006181168e-02,	 1.6410235959970048e+03,	 2.4712575318230989e+02,	 4.2894005442669095e+02,	 2.4610732633098451e+03,	 4.1564952435004164e+02,	 3.9926111241489806e+00 
9.7767237500000004e-01,	 6.0267832499999996e-01,	 2.1829617666284076e-02,	 1.6189903490354429e+03,	 2.8609663830596963e+02,	 4.5428873871903556e+02,	 2.8530411664038370e+03,	 4.2775487938600639e+02,	 3.8434968298214542e+00 
9.8525882499999995e-01,	 6.0280270000000002e-01,	 2.3522230140228185e-02,	 1.5995304639136336e+03,	 3.1795544193744797e+02,	 4.7583333604099732e+02,	 3.2200550534179692e+03,	 4.3778050601656849e+02,	 3.7252137882532610e+00 
9.9283992499999996e-01,	 6.0292057500000007e-01,	 2.4940715336860556e-02,	 1.5832731518189246e+03,	 3.4295626304264340e+02,	 4.9332243925529781e+02,	 3.5397265492164629e+03,	 4.4575315082275080e+02,	 3.6342796995036397e+00 
1.0004158249999999e+00,	 6.0303239999999991e-01,	 2.6052700935367181e-02,	 1.5702792712962464e+03,	 3.6187357949003058e+02,	 5.0704905375641601e+02,	 3.8004293918975127e+03,	 4.5191210529849792e+02,	 3.5658196928907127e+00 
1.0079870000000000e+00,	 6.0313865000000000e-01,	 2.6862589583585776e-02,	 1.5602764345842982e+03,	 3.7565269040022594e+02,	 5.1755228977226375e+02,	 3.9997426465995641e+03,	 4.5656866695427141e+02,	 3.5150475728956443e+00 
1.0155535000000000e+00,	 6.0323952500000000e-01,	 2.7397250501236169e-02,	 1.5528544243338329e+03,	 3.8520918605243924e+02,	 5.2541508316721297e+02,	 4.1413263348556475e+03,	 4.6002375068866888e+02,	 3.4779066882936225e+00 
1.0231154999999998e+00,	 6.0333507499999994e-01,	 2.7695163354823735e-02,	 1.5475676678109376e+03,	 3.9136758894470444e+02,	 5.3117950579586056e+02,	 4.2322876693698081e+03,	 4.6254036827871982e+02,	 3.4511315423334992e+00 
1.0306732500000000e+00,	 6.0342549999999995e-01,	 2.7797484308249434e-02,	 1.5440051664565781e+03,	 3.9482071312934278e+02,	 5.3530042403370510e+02,	 4.2808796509709646e+03,	 4.6433110794528284e+02,	 3.4322190813986166e+00 
1.0382267500000000e+00,	 6.0351120000000003e-01,	 2.7743423879090828e-02,	 1.5418093296023196e+03,	 3.9614101893861033e+02,	 5.3814652639004487e+02,	 4.2952706668760993e+03,	 4.6556385675524797e+02,	 3.4192663761895807e+00 
1.0457760000000000e+00,	 6.0359247499999991e-01,	 2.7567763625962333e-02,	 1.5406821817364605e+03,	 3.9579223589415489e+02,	 5.4000894400163031e+02,	 4.2828456865243861e+03,	 4.6636877269006783e+02,	 3.4108380552151476e+00 
1.0533210000000002e+00,	 6.0366937499999995e-01,	 2.7299835164405154e-02,	 1.5403809052196607e+03,	 3.9414568693329488e+02,	 5.4111573911184007e+02,	 4.2499138684586251e+03,	 4.6684645965008639e+02,	 3.4058469615548250e+00 
1.0608620000000000e+00,	 6.0374197500000004e-01,	 2.6963821288768650e-02,	 1.5407132783103471e+03,	 3.9149616837860913e+02,	 5.4164085168781469e+02,	 4.2016782235067594e+03,	 4.6707292460380819e+02,	 3.4034835505296974e+00 
1.0683994999999999e+00,	 6.0381037500000001e-01,	 2.6578874055273490e-02,	 1.5415268012418494e+03,	 3.8807553043613336e+02,	 5.4171988403709963e+02,	 4.1422975649599402e+03,	 4.6710699932689289e+02,	 3.4031280988839252e+00 
1.0759332499999998e+00,	 6.0387455000000001e-01,	 2.6160203650511020e-02,	 1.5427018649022696e+03,	 3.8406710267357471e+02,	 5.4145716038176079e+02,	 4.0750708073435112e+03,	 4.6699371666482307e+02,	 3.4043099681748656e+00 
1.0834625000000000e+00,	 6.0393442499999994e-01,	 2.5719577375158186e-02,	 1.5441451843759044e+03,	 3.7961453666517809e+02,	 5.4093330728977389e+02,	 4.0025566632937316e+03,	 4.6676775668169091e+02,	 3.4066687349756357e+00 
1.0909880000000001e+00,	 6.0399009999999986e-01,	 2.5265963731401584e-02,	 1.5457847466545595e+03,	 3.7482957299046433e+02,	 5.4021024342989199e+02,	 3.9267081231443340e+03,	 4.6645568886161612e+02,	 3.4099293180598447e+00 
1.0985102499999999e+00,	 6.0404199999999997e-01,	 2.4806265715591684e-02,	 1.5475646766011573e+03,	 3.6980028688347033e+02,	 5.3933580623113858e+02,	 3.8490236775491176e+03,	 4.6607801053568704e+02,	 3.4138800040524022e+00 
1.1060289999999999e+00,	 6.0409044999999995e-01,	 2.4345725647164345e-02,	 1.5494415795778066e+03,	 3.6459651712740668e+02,	 5.3834708083346345e+02,	 3.7706395938075289e+03,	 4.6565060097631948e+02,	 3.4183569720718956e+00 
1.1135442500000001e+00,	 6.0413559999999999e-01,	 2.3888113010182600e-02,	 1.5513823542236946e+03,	 3.5927127401439327e+02,	 5.3727290726583249e+02,	 3.6923828372874423e+03,	 4.6518580851837493e+02,	 3.4232328515717669e+00 
1.1210567499999999e+00,	 6.0417777499999992e-01,	 2.3436290910154728e-02,	 1.5533615457745420e+03,	 3.5386733341489855e+02,	 5.3613522575223476e+02,	 3.6148739682176788e+03,	 4.6469302938417439e+02,	 3.4284107019372678e+00 
1.1285667500000001e+00,	 6.0421722499999997e-01,	 2.2992221672799677e-02,	 1.5553597852684964e+03,	 3.4841650236705590e+02,	 5.3495145599686703e+02,	 3.5385492886490811e+03,	 4.6417973207774935e+02,	 3.4338133474085422e+00 
1.1360739999999998e+00,	 6.0425404999999999e-01,	 2.2557450920468920e-02,	 1.5573617656928438e+03,	 3.4294610964244629e+02,	 5.3373509032865286e+02,	 3.4637434294419209e+03,	 4.6365170883276460e+02,	 3.4393808220859419e+00 
1.1435787500000001e+00,	 6.0428835000000003e-01,	 2.2132828659071031e-02,	 1.5593565002653120e+03,	 3.3747480743013364e+02,	 5.3249655095725757e+02,	 3.3906554380567336e+03,	 4.6311344141067320e+02,	 3.4450666146733542e+00 
1.1510810000000000e+00,	 6.0432025000000000e-01,	 2.1719111823011592e-02,	 1.5613352089794330e+03,	 3.3201967003615027e+02,	 5.3124385052485820e+02,	 3.3194483436205592e+03,	 4.6256838247454908e+02,	 3.4508347880989292e+00 
1.1585812499999999e+00,	 6.0435004999999997e-01,	 2.1316552948893487e-02,	 1.5632919668799032e+03,	 3.2659160402834601e+02,	 5.2998300753617718e+02,	 3.2501908256537740e+03,	 4.6201913134753482e+02,	 3.4566582003322535e+00 
1.1660797500000000e+00,	 6.0437792499999998e-01,	 2.0925432187597105e-02,	 1.5652218015681001e+03,	 3.2120145660892439e+02,	 5.2871885703349903e+02,	 3.1829452915661827e+03,	 4.6146778308685384e+02,	 3.4625148693822054e+00 
1.1735760000000000e+00,	 6.0440392499999995e-01,	 2.0545691728818840e-02,	 1.5671216060232834e+03,	 3.1585535831063402e+02,	 5.2745507532527745e+02,	 3.1177133359269737e+03,	 4.6091593643819408e+02,	 3.4683879345833923e+00 
1.1810705000000001e+00,	 6.0442815000000005e-01,	 2.0177243010174230e-02,	 1.5689890234763659e+03,	 3.1055913521527748e+02,	 5.2619440943245274e+02,	 3.0544849641882188e+03,	 4.6036479128811123e+02,	 3.4742646641415460e+00 
1.1885632499999998e+00,	 6.0445075000000004e-01,	 1.9819979439955993e-02,	 1.5708222083671599e+03,	 3.0531771283800765e+02,	 5.2493921216194883e+02,	 2.9932442177882485e+03,	 4.5981538061939540e+02,	 3.4801340140234478e+00 
1.1960545000000000e+00,	 6.0447177499999993e-01,	 1.9473650803388910e-02,	 1.5726203018076715e+03,	 3.0013405588899030e+02,	 5.2369098398415031e+02,	 2.9339480016523930e+03,	 4.5926836860117851e+02,	 3.4859888075636420e+00 
1.2035445000000000e+00,	 6.0449117499999994e-01,	 1.9137983340865462e-02,	 1.5743826374075506e+03,	 2.9501047106018007e+02,	 5.2245117114068853e+02,	 2.8765492675056125e+03,	 4.5872439873187972e+02,	 3.4918220359054857e+00 
1.2110325000000000e+00,	 6.0450902500000003e-01,	 1.8812739531023765e-02,	 1.5761091066315889e+03,	 2.8994905099284068e+02,	 5.2122044568826129e+02,	 2.8210021899722537e+03,	 4.5818377723570745e+02,	 3.4976302648872615e+00 
1.2185190000000001e+00,	 6.0452549999999994e-01,	 1.8497568448642698e-02,	 1.5777998748313635e+03,	 2.8495060845391413e+02,	 5.1999944044606343e+02,	 2.7672440150903481e+03,	 4.5764679444834536e+02,	 3.5034102066693742e+00 
1.2260045000000002e+00,	 6.0454079999999999e-01,	 1.8192194812584786e-02,	 1.5794552646225275e+03,	 2.8001632853002667e+02,	 5.1878843751529666e+02,	 2.7152218741007241e+03,	 4.5711358747541863e+02,	 3.5091602039393175e+00 
1.2334887500000002e+00,	 6.0455500000000006e-01,	 1.7896294178653235e-02,	 1.5810755675776602e+03,	 2.7514663090570650e+02,	 5.1758798213024556e+02,	 2.6648773859224661e+03,	 4.5658441003151916e+02,	 3.5148773274230982e+00 
1.2409720000000000e+00,	 6.0456810000000005e-01,	 1.7609560270414479e-02,	 1.5826613840523751e+03,	 2.7034202499720385e+02,	 5.1639810027763258e+02,	 2.6161526718825985e+03,	 4.5605928761849452e+02,	 3.5205611000875496e+00 
1.2484542500000000e+00,	 6.0458029999999996e-01,	 1.7331705127402498e-02,	 1.5842133704078303e+03,	 2.6560272961303752e+02,	 5.1521879628323927e+02,	 2.5689930400216531e+03,	 4.5553823617202596e+02,	 3.5262111468790698e+00 
1.2559355000000001e+00,	 6.0459167500000000e-01,	 1.7062353106409439e-02,	 1.5857324344806927e+03,	 2.6092751428421667e+02,	 5.1405003793768196e+02,	 2.5233312050005570e+03,	 4.5502125542190521e+02,	 3.5318272679051450e+00 
1.2634159999999999e+00,	 6.0460219999999998e-01,	 1.6801260315316834e-02,	 1.5872190038859562e+03,	 2.5631716169298505e+02,	 5.1289199353930019e+02,	 2.4791209637127222e+03,	 4.5450843382908027e+02,	 3.5374082970029930e+00 
1.2708957500000000e+00,	 6.0461190000000009e-01,	 1.6548097627235681e-02,	 1.5886739800936671e+03,	 2.5177055756134064e+02,	 5.1174455428014016e+02,	 2.4363026729491735e+03,	 4.5399973722257215e+02,	 3.5429543995592194e+00 
1.2783745000000000e+00,	 6.0462090000000002e-01,	 1.6302663168135632e-02,	 1.5900977400311060e+03,	 2.4728891229951148e+02,	 5.1060782815966053e+02,	 2.3948370136002864e+03,	 4.5349522744341868e+02,	 3.5484646943682225e+00 
1.2858525000000001e+00,	 6.0462929999999993e-01,	 1.6064606106904397e-02,	 1.5914914874060523e+03,	 2.4287012371633276e+02,	 5.0948141949161288e+02,	 2.3546608825944891e+03,	 4.5299474257244833e+02,	 3.5539407462123718e+00 
1.2933300000000001e+00,	 6.0463707499999986e-01,	 1.5833684245297019e-02,	 1.5928557544871210e+03,	 2.3851415212130007e+02,	 5.0836544782844845e+02,	 2.3157301102000538e+03,	 4.5249834917197484e+02,	 3.5593816262125060e+00 
1.3008070000000000e+00,	 6.0464427499999995e-01,	 1.5609633315012337e-02,	 1.5941914452399653e+03,	 2.3422019840619396e+02,	 5.0725960293679344e+02,	 2.2779957845689828e+03,	 4.5200592250131677e+02,	 3.5647885030712785e+00 
1.3082834999999999e+00,	 6.0465095000000002e-01,	 1.5392234831827554e-02,	 1.5954991042643010e+03,	 2.2998817007469682e+02,	 5.0616395014203550e+02,	 2.2414178632040571e+03,	 4.5151750467523283e+02,	 3.5701607185471320e+00 
1.3157595000000000e+00,	 6.0465709999999995e-01,	 1.5181222574324270e-02,	 1.5967795797653487e+03,	 2.2581688376204738e+02,	 5.0507829976378304e+02,	 2.2059486304681814e+03,	 4.5103302402516800e+02,	 3.5754988663268370e+00 
1.3232349999999999e+00,	 6.0466267499999993e-01,	 1.4976381253232592e-02,	 1.5980333639138373e+03,	 2.2170604291090260e+02,	 5.0400279459684907e+02,	 2.1715496794801193e+03,	 4.5055255707771028e+02,	 3.5808019088498706e+00 
1.3307095000000000e+00,	 6.0466772499999999e-01,	 1.4777511806718437e-02,	 1.5992612073525804e+03,	 2.1765520172681167e+02,	 5.0293717880982263e+02,	 2.1381835982135758e+03,	 4.5007600221590889e+02,	 3.5860707744322475e+00 
1.3381835000000000e+00,	 6.0467234999999997e-01,	 1.4584381948995100e-02,	 1.6004638810972117e+03,	 2.1366327502435246e+02,	 5.0188127620636544e+02,	 2.1058089182790563e+03,	 4.4960329295805059e+02,	 3.5913060100086440e+00 
1.3456575000000000e+00,	 6.0467654999999998e-01,	 1.4396792363431563e-02,	 1.6016419708375934e+03,	 2.0972965592564105e+02,	 5.0083507246047913e+02,	 2.0743900117031289e+03,	 4.4913443502293734e+02,	 3.5965073662485034e+00 
1.3531310000000001e+00,	 6.0468037500000005e-01,	 1.4214573665736838e-02,	 1.6027959432676569e+03,	 2.0585416425845793e+02,	 4.9979863117191769e+02,	 2.0438962100912750e+03,	 4.4866946903118981e+02,	 3.6016742056320568e+00 
1.3606040000000001e+00,	 6.0468387499999987e-01,	 1.4037527943405615e-02,	 1.6039265277263510e+03,	 2.0203586637819589e+02,	 4.9877173200046991e+02,	 2.0142918846912755e+03,	 4.4820830809367015e+02,	 3.6068073085280941e+00 
1.3680770000000000e+00,	 6.0468710000000003e-01,	 1.3865486518364204e-02,	 1.6050342853350105e+03,	 1.9827427792076196e+02,	 4.9775430532155951e+02,	 1.9855465600887408e+03,	 4.4775093265230493e+02,	 3.6119067108546603e+00 
1.3755495000000000e+00,	 6.0469007499999994e-01,	 1.3698290522600026e-02,	 1.6061196046454347e+03,	 1.9456903001206746e+02,	 4.9674651353351715e+02,	 1.9576323714417292e+03,	 4.4729742743558251e+02,	 3.6169712848150346e+00 
1.3830215000000001e+00,	 6.0469277499999996e-01,	 1.3535761816444883e-02,	 1.6071831036950914e+03,	 1.9091923250226327e+02,	 4.9574823346268727e+02,	 1.9305178272541993e+03,	 4.4684774871524542e+02,	 3.6220013349633087e+00 
1.3904935000000000e+00,	 6.0469519999999999e-01,	 1.3377751710081081e-02,	 1.6082252921846623e+03,	 1.8732441480213737e+02,	 4.9475941069117761e+02,	 1.9041761981452883e+03,	 4.4640188350549084e+02,	 3.6269968248234243e+00 
1.3979652499999999e+00,	 6.0469742499999990e-01,	 1.3224115082848178e-02,	 1.6092465839396828e+03,	 1.8378402876912594e+02,	 4.9378013891866044e+02,	 1.8785820790821540e+03,	 4.4595988555707771e+02,	 3.6319569698453527e+00 
1.4054367499999998e+00,	 6.0469949999999995e-01,	 1.3074733713297917e-02,	 1.6102473374095573e+03,	 1.8029832475519297e+02,	 4.9281043783089603e+02,	 1.8537138199840135e+03,	 4.4552177527841280e+02,	 3.6368813572257124e+00 
1.4129080000000001e+00,	 6.0470137499999999e-01,	 1.2929435032642437e-02,	 1.6112281001236975e+03,	 1.7686570910173069e+02,	 4.9185034034727687e+02,	 1.8295423291730776e+03,	 4.4508757904446156e+02,	 3.6417695060657147e+00 
1.4203790000000001e+00,	 6.0470304999999991e-01,	 1.2788109143162352e-02,	 1.6121892492423563e+03,	 1.7348629504102647e+02,	 4.9089982443685057e+02,	 1.8060474174700926e+03,	 4.4465729834328761e+02,	 3.6466212150529804e+00 
1.4278500000000001e+00,	 6.0470457499999997e-01,	 1.2650626548415053e-02,	 1.6131311092710503e+03,	 1.7015951665845205e+02,	 4.8995905769009471e+02,	 1.7832070133848574e+03,	 4.4423102052721794e+02,	 3.6514353129763371e+00 
1.4353209999999998e+00,	 6.0470597500000001e-01,	 1.2516876929089640e-02,	 1.6140540404776978e+03,	 1.6688515566072365e+02,	 4.8902807463049766e+02,	 1.7610014429844111e+03,	 4.4380877279614339e+02,	 3.6562113040962485e+00 
1.4427915000000000e+00,	 6.0470720000000000e-01,	 1.2386757233139130e-02,	 1.6149582504323444e+03,	 1.6366312155165059e+02,	 4.8810712046375232e+02,	 1.7394129800920796e+03,	 4.4339067803477724e+02,	 3.6609476067646676e+00 
1.4502620000000002e+00,	 6.0470827500000002e-01,	 1.2260132631107288e-02,	 1.6158442611083865e+03,	 1.6049235573171066e+02,	 4.8719607904534485e+02,	 1.7184183053737850e+03,	 4.4297669520077153e+02,	 3.6656444929223473e+00 
1.4577324999999999e+00,	 6.0470922499999991e-01,	 1.2136931201161046e-02,	 1.6167120910861104e+03,	 1.5737340502552397e+02,	 4.8629536744519402e+02,	 1.6980049814414820e+03,	 4.4256702561643158e+02,	 3.6702994822190069e+00 
1.4652025000000000e+00,	 6.0471000000000008e-01,	 1.2017042320473653e-02,	 1.6175621560981149e+03,	 1.5430564632227529e+02,	 4.8540494180318046e+02,	 1.6781536488987661e+03,	 4.4216166129425807e+02,	 3.6749124652183132e+00 
1.4726725000000001e+00,	 6.0471067499999998e-01,	 1.1900374206639733e-02,	 1.6183946579691269e+03,	 1.5128889411201385e+02,	 4.8452501849229168e+02,	 1.6588486445116346e+03,	 4.4176071272385292e+02,	 3.6794819828532397e+00 
1.4801425000000001e+00,	 6.0471129999999995e-01,	 1.1786845616020702e-02,	 1.6192098243378509e+03,	 1.4832318358859268e+02,	 4.8365572827771183e+02,	 1.6400756035814870e+03,	 4.4136425160488193e+02,	 3.6840070128293152e+00 
1.4876125000000000e+00,	 6.0471184999999994e-01,	 1.1676360500876788e-02,	 1.6200077737122565e+03,	 1.4540809312837575e+02,	 4.8279743448497703e+02,	 1.6218190084430091e+03,	 4.4097245596609150e+02,	 3.6884853130793118e+00 
1.4950824999999999e+00,	 6.0471229999999998e-01,	 1.1568853345619206e-02,	 1.6207887261180952e+03,	 1.4254396488728014e+02,	 4.8195021508755451e+02,	 1.6040667314964983e+03,	 4.4058537389455978e+02,	 3.6929161196250635e+00 
1.5025519999999999e+00,	 6.0471267500000003e-01,	 1.1464254332862852e-02,	 1.6215526941031794e+03,	 1.3973087988726130e+02,	 4.8111451305721596e+02,	 1.5868073649865646e+03,	 4.4020322047658624e+02,	 3.6972967511894903e+00 
1.5100214999999999e+00,	 6.0471295000000003e-01,	 1.1362466604089403e-02,	 1.6222999783690659e+03,	 1.3696825805404922e+02,	 4.8029038928955902e+02,	 1.5700245870804456e+03,	 4.3982603644188885e+02,	 3.7016265171046099e+00 
1.5174909999999999e+00,	 6.0471317500000010e-01,	 1.1263452101829054e-02,	 1.6230305071148714e+03,	 1.3425689735684438e+02,	 4.7947830562227324e+02,	 1.5537116277937419e+03,	 4.3945404622919801e+02,	 3.7059026126987646e+00 
1.5249604999999999e+00,	 6.0471337500000000e-01,	 1.1167119606676433e-02,	 1.6237444807920062e+03,	 1.3159625411071181e+02,	 4.7867846042986901e+02,	 1.5378535897325385e+03,	 4.3908735402253893e+02,	 3.7101236062716612e+00 
7.7709594999999998e-01,	 6.0086280000000003e-01,	 1.1586407740524511e-02,	 1.7359999999999936e+03,	 9.1710943837616421e-11,	 3.0000000000003706e+02,	 1.0000000000003232e+03,	 3.4760788074256914e+02,	 4.9941330337261185e+00 
7.8504544999999992e-01,	 6.0144672499999996e-01,	 1.1586407740539286e-02,	 1.7359999999998520e+03,	 6.4829229069775767e-10,	 3.0000000000026409e+02,	 1.0000000000023551e+03,	 3.4760788074270067e+02,	 4.9941330337238217e+00 
7.9296115000000000e-01,	 6.0199032500000005e-01,	 1.1586407740633565e-02,	 1.7359999999990332e+03,	 4.1609926050223960e-09,	 3.0000000000167529e+02,	 1.0000000000151961e+03,	 3.4760788074351825e+02,	 4.9941330337097192e+00 
8.0084409999999995e-01,	 6.0249607500000002e-01,	 1.1586407741179718e-02,	 1.7359999999944141e+03,	 2.4319701256955051e-08,	 3.0000000000966378e+02,	 1.0000000000889619e+03,	 3.4760788074814639e+02,	 4.9941330336299385e+00 
8.0869712500000002e-01,	 6.0296684999999994e-01,	 1.1586407744051740e-02,	 1.7359999999705974e+03,	 1.2943566796699685e-07,	 3.0000000005074969e+02,	 1.0000000004737934e+03,	 3.4760788077194934e+02,	 4.9941330332194420e+00 
8.1652327499999999e-01,	 6.0340562499999995e-01,	 1.1586407757860752e-02,	 1.7359999998584588e+03,	 6.3081831397392071e-07,	 3.0000000024410809e+02,	 1.0000000023101500e+03,	 3.4760788088397084e+02,	 4.9941330312874115e+00 
8.2432464999999999e-01,	 6.0381477500000003e-01,	 1.1586407818902040e-02,	 1.7359999993724548e+03,	 2.8305313075564392e-06,	 3.0000000108203130e+02,	 1.0000000103715806e+03,	 3.4760788136941869e+02,	 4.9941330229147729e+00 
8.3210434999999994e-01,	 6.0419697500000002e-01,	 1.1586408068665522e-02,	 1.7359999974200423e+03,	 1.1767700482836274e-05,	 3.0000000444812753e+02,	 1.0000000431484954e+03,	 3.4760788331955467e+02,	 4.9941329892801765e+00 
8.3986589999999994e-01,	 6.0455482500000002e-01,	 1.1586409020602064e-02,	 1.7359999901017648e+03,	 4.5607883747138334e-05,	 3.0000001706528252e+02,	 1.0000001673654499e+03,	 3.4760789062925869e+02,	 4.9941328632073443e+00 
8.4761172499999993e-01,	 6.0489057499999999e-01,	 1.1586412420977512e-02,	 1.7359999643620683e+03,	 1.6574373285566392e-04,	 3.0000006144201188e+02,	 1.0000006087676558e+03,	 3.4760791633875846e+02,	 4.9941324197872170e+00 
8.5534267499999994e-01,	 6.0520602499999998e-01,	 1.1586423869671477e-02,	 1.7359998789372626e+03,	 5.6788426535138827e-04,	 3.0000020871915785e+02,	 1.0000020878065571e+03,	 3.4760800166323355e+02,	 4.9941309481684808e+00 
8.6305992499999995e-01,	 6.0550292500000003e-01,	 1.1586460371713450e-02,	 1.7359996101226666e+03,	 1.8431478696679432e-03,	 3.0000067216939834e+02,	 1.0000067830691503e+03,	 3.4760827016129633e+02,	 4.9941263172999619e+00 
8.7076454999999997e-01,	 6.0578270000000001e-01,	 1.1586571195124521e-02,	 1.7359988038863542e+03,	 5.6953723820077099e-03,	 3.0000206215215042e+02,	 1.0000209813818157e+03,	 3.4760907544105925e+02,	 4.9941124284312695e+00 
8.7845760000000006e-01,	 6.0604682499999996e-01,	 1.1586892561976423e-02,	 1.7359964915721771e+03,	 1.6814031187785548e-02,	 3.0000604858526981e+02,	 1.0000620067780476e+03,	 3.4761138495139676e+02,	 4.9940725960294179e+00 
8.8613984999999995e-01,	 6.0629657500000000e-01,	 1.1587786695004406e-02,	 1.7359901227306589e+03,	 4.7615392256900167e-02,	 3.0001702780706273e+02,	 1.0001757809537037e+03,	 3.4761774560244680e+02,	 4.9939628955796502e+00 
8.9381204999999997e-01,	 6.0653285000000001e-01,	 1.1590180311435067e-02,	 1.7359732273389479e+03,	 1.2974349263535817e-01,	 3.0004614889495326e+02,	 1.0004794828920425e+03,	 3.4763461591371055e+02,	 4.9936719553217506e+00 
9.0147474999999999e-01,	 6.0675630000000003e-01,	 1.1596365693690181e-02,	 1.7359298971468631e+03,	 3.4123997520182103e-01,	 3.0012080109426643e+02,	 1.0012624676874204e+03,	 3.4767785938595836e+02,	 4.9929263075661705e+00 
9.0912860000000006e-01,	 6.0696782500000002e-01,	 1.1611782680786623e-02,	 1.7358223374956547e+03,	 8.6714951228061476e-01,	 3.0030591132905334e+02,	 1.0032119986918921e+03,	 3.4778506423333783e+02,	 4.9910784924569525e+00 
9.1677427499999997e-01,	 6.0716847499999993e-01,	 1.1648792212258766e-02,	 1.7355634790774927e+03,	 2.1291232829993745e+00,	 3.0075024160279202e+02,	 1.0078985510941602e+03,	 3.4804225916080918e+02,	 4.9866495787767118e+00 
9.2441229999999996e-01,	 6.0735909999999993e-01,	 1.1733748081241892e-02,	 1.7349591215297571e+03,	 5.0358101377394000e+00,	 3.0178140398526853e+02,	 1.0187301791512921e+03,	 3.4863840329946186e+02,	 4.9764065388289032e+00 
9.3204297500000000e-01,	 6.0754014999999995e-01,	 1.1917478955396738e-02,	 1.7335884510935518e+03,	 1.1389313624480984e+01,	 3.0409034938976362e+02,	 1.0425981951009826e+03,	 3.4996958729771893e+02,	 4.9536471919759908e+00 
9.3966654999999999e-01,	 6.0771202499999999e-01,	 1.2277394520208436e-02,	 1.7305775777361609e+03,	 2.4240658379425362e+01,	 3.0904218454244949e+02,	 1.0915758383980676e+03,	 3.5280754898200502e+02,	 4.9056414667536492e+00 
9.4728334999999997e-01,	 6.0787520000000006e-01,	 1.2902273785696099e-02,	 1.7244529084528565e+03,	 4.7196436246195034e+01,	 3.1873555197139103e+02,	 1.1831142861150822e+03,	 3.5829788156293824e+02,	 4.8147051221158010e+00 
9.5489342500000007e-01,	 6.0802982500000002e-01,	 1.3873514042697248e-02,	 1.7137907312265847e+03,	 8.1594340926676750e+01,	 3.3473921118658978e+02,	 1.3360509000549664e+03,	 3.6718275897851072e+02,	 4.6726921710693174e+00 
9.6249685000000007e-01,	 6.0817589999999999e-01,	 1.5221885601400453e-02,	 1.6980812198827646e+03,	 1.2507956196152146e+02,	 3.5689155441580044e+02,	 1.5629124905336289e+03,	 3.7913783166995194e+02,	 4.4909304366822322e+00 
9.7009385000000004e-01,	 6.0831374999999999e-01,	 1.6891807515009759e-02,	 1.6782098001382840e+03,	 1.7264620812334724e+02,	 3.8317443536094504e+02,	 1.8620982308873120e+03,	 3.9285044518091155e+02,	 4.2944254147349463e+00 
9.7768484999999994e-01,	 6.0844417500000003e-01,	 1.8752751844014492e-02,	 1.6561275286771981e+03,	 2.1911354678243794e+02,	 4.1069664627844418e+02,	 2.2157262381082483e+03,	 4.0671441463706594e+02,	 4.1074509980187024e+00 
9.8527029999999993e-01,	 6.0856782499999995e-01,	 2.0643924162054114e-02,	 1.6340343832653753e+03,	 2.6085451122696577e+02,	 4.3684337863463963e+02,	 2.5944657973926219e+03,	 4.1946126790622060e+02,	 3.9448805132646969e+00 
9.9285044999999994e-01,	 6.0868502499999999e-01,	 2.2419047100893069e-02,	 1.6136741203359800e+03,	 2.9612659386900810e+02,	 4.5992266871424681e+02,	 2.9664149589728436e+03,	 4.3039913952801840e+02,	 3.8118578717165761e+00 
1.0004256000000000e+00,	 6.0879620000000001e-01,	 2.3972636880560606e-02,	 1.5960658788950955e+03,	 3.2459469723539405e+02,	 4.7921260902836144e+02,	 3.3050191575326021e+03,	 4.3933227051814691e+02,	 3.7073037275286600e+00 
1.0079957500000001e+00,	 6.0890182500000001e-01,	 2.5247181080460136e-02,	 1.5815686281499238e+03,	 3.4673064415823058e+02,	 4.9470854161051352e+02,	 3.5932897730411537e+03,	 4.4637893433398790e+02,	 3.6272541636814397e+00 
1.0155612500000002e+00,	 6.0900212500000006e-01,	 2.6226412999093097e-02,	 1.5701026385526131e+03,	 3.6334668011079327e+02,	 5.0679400689340690e+02,	 3.8238452123996235e+03,	 4.5179843457821767e+02,	 3.5670695666437462e+00 
1.0231227500000000e+00,	 6.0909714999999998e-01,	 2.6923326523696896e-02,	 1.5613526749164507e+03,	 3.7533735996330654e+02,	 5.1600162504096522e+02,	 3.9967752297515199e+03,	 4.5588417956371580e+02,	 3.5224587414615982e+00 