TITLE = "Final State"
VARIABLES = "X", "Y", "rho", "u", "v", "T", "p", "c", "M"
ZONE I=76, J=26, DATAPACKING=POINT
2.5212909999999999e-01,	 7.0180115000000001e-02,	 2.6502236473569443e-02,	 1.5943740612673039e+03,	 4.1056671834302239e+02,	 4.5050858983424587e+02,	 3.4349113917348855e+03,	 4.2597148174940907e+02,	 3.8650194688255213e+00 
2.5617840000000003e-01,	 7.1253085000000008e-02,	 2.6531090749724810e-02,	 1.5942103955192576e+03,	 4.1088099910195353e+02,	 4.5063953122870180e+02,	 3.4396505992757570e+03,	 4.2603338206464713e+02,	 3.8642699235383775e+00 
2.6022767499999999e-01,	 7.2326057499999999e-02,	 2.6559047048128611e-02,	 1.5940507369954655e+03,	 4.1118657615026348e+02,	 4.5076755842699293e+02,	 3.4442532607013172e+03,	 4.2609389604873184e+02,	 3.8635373404859785e+00 
2.6427697500000003e-01,	 7.3399030000000004e-02,	 2.6585886085023262e-02,	 1.5938970818495952e+03,	 4.1147990415975806e+02,	 4.5089097028731157e+02,	 3.4486777499062323e+03,	 4.2615222038983330e+02,	 3.8628314292045709e+00 
2.6832627500000000e-01,	 7.4472000000000010e-02,	 2.6611934098929649e-02,	 1.5937469325382256e+03,	 4.1176560112629625e+02,	 4.5101184489519784e+02,	 3.4529820812396001e+03,	 4.2620933789066748e+02,	 3.8621402804313796e+00 
2.7237555000000002e-01,	 7.5544972500000002e-02,	 2.6636968259660131e-02,	 1.5936023737935732e+03,	 4.1203988030970072e+02,	 4.5112844049854613e+02,	 3.4571238470984899e+03,	 4.2626442615957774e+02,	 3.8614738323862712e+00 
2.7642485000000006e-01,	 7.6617945000000007e-02,	 2.6661176802456495e-02,	 1.5934618919133586e+03,	 4.1230559674260206e+02,	 4.5124199522651185e+02,	 3.4611367862682182e+03,	 4.2631807085474242e+02,	 3.8608249862138204e+00 
2.8047414999999998e-01,	 7.7690914999999999e-02,	 2.6684723009632767e-02,	 1.5933242532225786e+03,	 4.1256499035590440e+02,	 4.5135355192974794e+02,	 3.4650499626776154e+03,	 4.2637076508533477e+02,	 3.8601877684518953e+00 
2.8452345000000001e-01,	 7.8763887500000004e-02,	 2.6707382323888473e-02,	 1.5931916423721143e+03,	 4.1281411481577885e+02,	 4.5146127794236185e+02,	 3.4688200244235818e+03,	 4.2642164369469771e+02,	 3.8595726309004852e+00 
2.8857274999999999e-01,	 7.9836860000000009e-02,	 2.6729330499413603e-02,	 1.5930625528565613e+03,	 4.1305585767800278e+02,	 4.5156638180873108e+02,	 3.4724789402949054e+03,	 4.2647127802372802e+02,	 3.8589726547684284e+00 
2.9262202500000001e-01,	 8.0909830000000002e-02,	 2.6750725590056309e-02,	 1.5929357932188643e+03,	 4.1329241683942303e+02,	 4.5166985293590540e+02,	 3.4760547484538802e+03,	 4.2652013566469657e+02,	 3.8583821806702980e+00 
2.9667132499999999e-01,	 8.1982799999999995e-02,	 2.6771270733379177e-02,	 1.5928139736919604e+03,	 4.1351909761463247e+02,	 4.5176949484463580e+02,	 3.4794918685247299e+03,	 4.2656717991227396e+02,	 3.8578137288875478e+00 
3.0072062499999996e-01,	 8.3055770000000001e-02,	 2.6791381219574011e-02,	 1.5926936814333985e+03,	 4.1374223064704233e+02,	 4.5186811300850621e+02,	 3.4828657704494058e+03,	 4.2661373570790880e+02,	 3.8572512819309228e+00 
3.0476990000000004e-01,	 8.4128740000000007e-02,	 2.6810742086135906e-02,	 1.5925776795821573e+03,	 4.1395680700211182e+02,	 4.5196339932716342e+02,	 3.4861176426449774e+03,	 4.2665871377607704e+02,	 3.8567079927061587e+00 
3.0881922500000003e-01,	 8.5201712499999999e-02,	 2.6829531168028369e-02,	 1.5924645111936873e+03,	 4.1416553470030397e+02,	 4.5205655107683015e+02,	 3.4892797372128944e+03,	 4.2670267967919335e+02,	 3.8561770214971305e+00 
3.1286852500000001e-01,	 8.6274685000000004e-02,	 2.6847904895778221e-02,	 1.5923530003558797e+03,	 4.1437057651183505e+02,	 4.5214854241569105e+02,	 3.4923798463969542e+03,	 4.2674609344453103e+02,	 3.8556528077011847e+00 
3.1691779999999997e-01,	 8.7347654999999996e-02,	 2.6865598013858231e-02,	 1.5922454485005221e+03,	 4.1456778424886568e+02,	 4.5223744479656375e+02,	 3.4953685015551687e+03,	 4.2678804523189876e+02,	 3.8551463313232821e+00 
3.2096710000000001e-01,	 8.8420627499999987e-02,	 2.6882791146873232e-02,	 1.5921404126413465e+03,	 4.1475982018692872e+02,	 4.5232444911872551e+02,	 3.4982783184690361e+03,	 4.2682909735975659e+02,	 3.8546507965421037e+00 
3.2501639999999998e-01,	 8.9493600000000006e-02,	 2.6899629142447451e-02,	 1.5920366797203894e+03,	 4.1494890920127091e+02,	 4.5241056022042289e+02,	 3.5011358603967615e+03,	 4.2686972414298316e+02,	 3.8541604740875619e+00 
3.2906570000000002e-01,	 9.0566570000000013e-02,	 2.6915848837538899e-02,	 1.5919366353461833e+03,	 4.1513075088298132e+02,	 4.5249378151560336e+02,	 3.5038913687931990e+03,	 4.2690898385627565e+02,	 3.8536867244706876e+00 
3.3311497499999998e-01,	 9.1639542500000004e-02,	 2.6931758491680065e-02,	 1.5918377150750350e+03,	 4.1531003340538615e+02,	 4.5257623848876057e+02,	 3.5066013634302835e+03,	 4.2694787943951610e+02,	 3.8532174402917057e+00 
3.3716424999999994e-01,	 9.2712515000000009e-02,	 2.6947078580933419e-02,	 1.5917422872520699e+03,	 4.1548251999830296e+02,	 4.5265593718268752e+02,	 3.5092139521172508e+03,	 4.2698547055406999e+02,	 3.8527639623936376e+00 
3.4121357499999999e-01,	 9.3785485000000002e-02,	 2.6961987568611998e-02,	 1.5916488904734294e+03,	 4.1565087281619208e+02,	 4.5273409321289500e+02,	 3.5117617316370947e+03,	 4.2702233083384237e+02,	 3.8523193653427574e+00 
3.4526287499999997e-01,	 9.4858457500000007e-02,	 2.6976638935080531e-02,	 1.5915563856059796e+03,	 4.1581717486845292e+02,	 4.5281164955065583e+02,	 3.5142719667990664e+03,	 4.2705890513915114e+02,	 3.8518782807047902e+00 
3.4931214999999999e-01,	 9.5931430000000012e-02,	 2.6990744147085022e-02,	 1.5914671752450513e+03,	 4.1597710630868920e+02,	 4.5288659471793159e+02,	 3.5166914196436855e+03,	 4.2709424508335286e+02,	 3.8514521420839585e+00 
3.5336142500000001e-01,	 9.7004399999999991e-02,	 2.7004619219403517e-02,	 1.5913786687609961e+03,	 4.1613538388010210e+02,	 4.5296107765085787e+02,	 3.5190778991811972e+03,	 4.2712936416674853e+02,	 3.8510287247463939e+00 
3.5741072499999998e-01,	 9.8077379999999992e-02,	 2.7017978906814066e-02,	 1.5912933519901276e+03,	 4.1628747333478663e+02,	 4.5303304541149168e+02,	 3.5213782503122820e+03,	 4.2716329459085870e+02,	 3.8506196935994796e+00 
3.6146004999999998e-01,	 9.9150352499999997e-02,	 2.7030994193656014e-02,	 1.5912096763207312e+03,	 4.1643634679017487e+02,	 4.5310371965115110e+02,	 3.5236242009617031e+03,	 4.2719661253978865e+02,	 3.8502180984054979e+00 
3.6550932500000000e-01,	 1.0022330750000001e-01,	 2.7043824413266446e-02,	 1.5911265137620526e+03,	 4.1658387765189372e+02,	 4.5317410957518166e+02,	 3.5258443406138995e+03,	 4.2722979387115754e+02,	 3.8498182016752303e+00 
3.6955862500000003e-01,	 1.0129628750000001e-01,	 2.7056178933547451e-02,	 1.5910464394465280e+03,	 4.1672541305226605e+02,	 4.5324207257469993e+02,	 3.5279840799734329e+03,	 4.2726182872168204e+02,	 3.8494321711611645e+00 
3.7360795000000002e-01,	 1.0236927000000001e-01,	 2.7068271552986124e-02,	 1.5909673781832612e+03,	 4.1686496504571613e+02,	 4.5330922979392682e+02,	 3.5300838719329636e+03,	 4.2729348140268985e+02,	 3.8490507931758984e+00 
3.7765722499999999e-01,	 1.0344222500000000e-01,	 2.7080098314706511e-02,	 1.5908896248812450e+03,	 4.1700177840284192e+02,	 4.5337542912185461e+02,	 3.5321419917331318e+03,	 4.2732468031372224e+02,	 3.8486749285512087e+00 
3.8170649999999995e-01,	 1.0451520000000000e-01,	 2.7091490789626291e-02,	 1.5908147229325646e+03,	 4.1713312344724380e+02,	 4.5343936442768535e+02,	 3.5341262624720366e+03,	 4.2735481005744765e+02,	 3.8483119878734522e+00 
3.8575579999999998e-01,	 1.0558817500000001e-01,	 2.7102750874090770e-02,	 1.5907398386455620e+03,	 4.1726424933060633e+02,	 4.5350333994609741e+02,	 3.5360939928890657e+03,	 4.2738495662540902e+02,	 3.8479488871028815e+00 
3.8980510000000002e-01,	 1.0666112500000001e-01,	 2.7113585696923407e-02,	 1.5906676818167132e+03,	 4.1739019327894101e+02,	 4.5356513221268807e+02,	 3.5379896158769375e+03,	 4.2741407238191715e+02,	 3.8475982423700330e+00 
3.9385439999999999e-01,	 1.0773410000000000e-01,	 2.7124186867062753e-02,	 1.5905968200056839e+03,	 4.1751347789004728e+02,	 4.5362596055020384e+02,	 3.5398476091607017e+03,	 4.2744273200980507e+02,	 3.8472531296263397e+00 
3.9790367499999996e-01,	 1.0880707500000000e-01,	 2.7134680888419471e-02,	 1.5905259030593020e+03,	 4.1763670380186147e+02,	 4.5368688024359540e+02,	 3.5416927013013101e+03,	 4.2747143275474696e+02,	 3.8469075603033462e+00 
4.0195297499999999e-01,	 1.0988005000000001e-01,	 2.7145306086919289e-02,	 1.5904531393660900e+03,	 4.1776299283616180e+02,	 4.5374942597109981e+02,	 3.5435679837365178e+03,	 4.2750089755910449e+02,	 3.8465528314918540e+00 
4.0600229999999998e-01,	 1.1095305000000001e-01,	 2.7155060920075261e-02,	 1.5903870990009418e+03,	 4.1787680066737988e+02,	 4.5380651129080610e+02,	 3.5452873562441073e+03,	 4.2752778823544242e+02,	 3.8462291282493668e+00 
4.1005157500000000e-01,	 1.1202602500000002e-01,	 2.7164752465420095e-02,	 1.5903206671473813e+03,	 4.1799128681598529e+02,	 4.5386391614520869e+02,	 3.5470012826469329e+03,	 4.2755482772667011e+02,	 3.8459036677291523e+00 
4.1410085000000002e-01,	 1.1309897499999999e-01,	 2.7174070365610658e-02,	 1.5902566521079139e+03,	 4.1810123200808766e+02,	 4.5391937221659219e+02,	 3.5486514995750135e+03,	 4.2758094765598275e+02,	 3.8455893079860748e+00 
4.1815015000000005e-01,	 1.1417194999999999e-01,	 2.7183354476149252e-02,	 1.5901923829922623e+03,	 4.1821139383845320e+02,	 4.5397512348674474e+02,	 3.5502999093020653e+03,	 4.2760720501628259e+02,	 3.8452733263924253e+00 
4.2219945000000003e-01,	 1.1524492500000000e-01,	 2.7192261306922750e-02,	 1.5901304719943171e+03,	 4.1831723240527208e+02,	 4.5402893074981290e+02,	 3.5518841278913974e+03,	 4.2763254527222961e+02,	 3.8449684118242557e+00 
4.2624874999999995e-01,	 1.1631787500000000e-01,	 2.7200989976445891e-02,	 1.5900694402949289e+03,	 4.1842130325513466e+02,	 4.5408206911815063e+02,	 3.5534401133863848e+03,	 4.2765756904199759e+02,	 3.8446673349394134e+00 
4.3029804999999999e-01,	 1.1739085000000002e-01,	 2.7209696689312328e-02,	 1.5900081337368765e+03,	 4.1852563194502852e+02,	 4.5413551988183946e+02,	 3.5549959425333486e+03,	 4.2768273844701815e+02,	 3.8443645353538480e+00 
4.3434735000000002e-01,	 1.1846382499999999e-01,	 2.7218032613343705e-02,	 1.5899491950624706e+03,	 4.1862564530157272e+02,	 4.5418701128167709e+02,	 3.5564882468235533e+03,	 4.2770698380741044e+02,	 3.8440728804517468e+00 
4.3839662500000004e-01,	 1.1953677500000000e-01,	 2.7226352840780219e-02,	 1.5898898577114844e+03,	 4.1872620554387845e+02,	 4.5423889136932002e+02,	 3.5579817913631018e+03,	 4.2773141079633263e+02,	 3.8437790684640971e+00 
4.4244590000000000e-01,	 1.2060975000000000e-01,	 2.7234328440853849e-02,	 1.5898329827651880e+03,	 4.1882214099083615e+02,	 4.5428879369186041e+02,	 3.5594150466305514e+03,	 4.2775490526700605e+02,	 3.8434964992674026e+00 
4.4649522500000000e-01,	 1.2168275000000001e-01,	 2.7242709769071873e-02,	 1.5897720936374753e+03,	 4.1892520839940852e+02,	 4.5434205422233788e+02,	 3.5609278838496475e+03,	 4.2777997938921004e+02,	 3.8431949599659969e+00 
4.5054452500000003e-01,	 1.2275572500000001e-01,	 2.7250386335594842e-02,	 1.5897166031315855e+03,	 4.1901834675252212e+02,	 4.5439090918130938e+02,	 3.5623143082467304e+03,	 4.2780297815342408e+02,	 3.8429184045661473e+00 
4.5459380000000005e-01,	 1.2382869999999999e-01,	 2.7257751867022229e-02,	 1.5896632855262733e+03,	 4.1910750657278817e+02,	 4.5443797802174254e+02,	 3.5636462773950561e+03,	 4.2782513492227162e+02,	 3.8426519973477058e+00 
4.5864309999999997e-01,	 1.2490167500000000e-01,	 2.7264978906316274e-02,	 1.5896104497252136e+03,	 4.1919586690682456e+02,	 4.5448460836806345e+02,	 3.5649568983210947e+03,	 4.2784708414684593e+02,	 3.8423881081877185e+00 
4.6269240000000000e-01,	 1.2597462500000001e-01,	 2.7272236795917587e-02,	 1.5895569247862741e+03,	 4.1928529438560338e+02,	 4.5453187171700944e+02,	 3.5662767138785402e+03,	 4.2786933018110523e+02,	 3.8421206735193132e+00 
4.6674169999999998e-01,	 1.2704760000000001e-01,	 2.7279179508910800e-02,	 1.5895057037314962e+03,	 4.1937047581238966e+02,	 4.5457725586446873e+02,	 3.5675407601459133e+03,	 4.2789069061948368e+02,	 3.8418639069373919e+00 
4.7079097500000000e-01,	 1.2812057499999999e-01,	 2.7286149107458836e-02,	 1.5894537228865443e+03,	 4.1945696728737391e+02,	 4.5462328381645170e+02,	 3.5688135580203539e+03,	 4.2791235298092312e+02,	 3.8416035327870937e+00 
4.7484025000000002e-01,	 1.2919352499999998e-01,	 2.7292795185662608e-02,	 1.5894039869322589e+03,	 4.1953936690585556e+02,	 4.5466746305924312e+02,	 3.5700297062914237e+03,	 4.2793314424387506e+02,	 3.8413536495340779e+00 
4.7888957500000001e-01,	 1.3026650000000001e-01,	 2.7299330165454369e-02,	 1.5893548778621268e+03,	 4.1962051051700604e+02,	 4.5471116703686562e+02,	 3.5712277572292078e+03,	 4.2795371084767794e+02,	 3.8411064862254394e+00 
4.8293887499999999e-01,	 1.3133947499999998e-01,	 2.7305901424334832e-02,	 1.5893050065896709e+03,	 4.1970297181611966e+02,	 4.5475551588704917e+02,	 3.5724357848364602e+03,	 4.2797457991098173e+02,	 3.8408557082162944e+00 
4.8698815000000001e-01,	 1.3241244999999999e-01,	 2.7312762806172966e-02,	 1.5892524329692158e+03,	 4.1979012224902766e+02,	 4.5480216578660776e+02,	 3.5737000216265242e+03,	 4.2799653067186506e+02,	 3.8405919536517108e+00 
4.9103747500000006e-01,	 1.3348544999999998e-01,	 2.7318761382953114e-02,	 1.5892066693594197e+03,	 4.1986496215353350e+02,	 4.5484319063579471e+02,	 3.5748073288158776e+03,	 4.2801583367710742e+02,	 3.8403600323883431e+00 
4.9508677500000003e-01,	 1.3455842499999998e-01,	 2.7324836663070416e-02,	 1.5891597975891741e+03,	 4.1994184482741503e+02,	 4.5488510483156386e+02,	 3.5759318068633015e+03,	 4.2803555423854283e+02,	 3.8401231122211779e+00 
4.9913605000000005e-01,	 1.3563137500000000e-01,	 2.7330620457335461e-02,	 1.5891149690815930e+03,	 4.2001503146494650e+02,	 4.5492532805323981e+02,	 3.5770049860428239e+03,	 4.2805447834510801e+02,	 3.8398957776012019e+00 
5.0318532500000002e-01,	 1.3670435000000000e-01,	 2.7336496061838838e-02,	 1.5890691939869691e+03,	 4.2008980384737424e+02,	 4.5496637623331134e+02,	 3.5780968040891853e+03,	 4.2807378971324329e+02,	 3.8396638080296097e+00 
5.0723462499999994e-01,	 1.3777732499999998e-01,	 2.7342063831932065e-02,	 1.5890254708749505e+03,	 4.2016091082745595e+02,	 4.5500570803145928e+02,	 3.5791349632838251e+03,	 4.2809229278170869e+02,	 3.8394415641167328e+00 
5.1128395000000004e-01,	 1.3885027500000000e-01,	 2.7347554730291559e-02,	 1.5889821220298461e+03,	 4.2023126012409620e+02,	 4.5504475850958403e+02,	 3.5801609715927043e+03,	 4.2811066271614015e+02,	 3.8392209350835778e+00 
5.1533322500000001e-01,	 1.3992325000000000e-01,	 2.7353137849786803e-02,	 1.5889378734160641e+03,	 4.2030307715291207e+02,	 4.5508460940077111e+02,	 3.5812054759993125e+03,	 4.2812940836435359e+02,	 3.8389958098104229e+00 
5.1938249999999997e-01,	 1.4099622499999998e-01,	 2.7358410560750029e-02,	 1.5888957618677159e+03,	 4.2037106501369851e+02,	 4.5512267961789058e+02,	 3.5821954492841987e+03,	 4.2814731562636092e+02,	 3.8387807683977848e+00 
5.2343180000000000e-01,	 1.4206917499999999e-01,	 2.7363776192039467e-02,	 1.5888526431392474e+03,	 4.2044071117548367e+02,	 4.5516164031634986e+02,	 3.5832047158897421e+03,	 4.2816564097272442e+02,	 3.8385607218342579e+00 
5.2748110000000004e-01,	 1.4314214999999997e-01,	 2.7368857439291537e-02,	 1.5888117417123665e+03,	 4.2050627290801845e+02,	 4.5519880143479236e+02,	 3.5841626907460318e+03,	 4.2818311914744334e+02,	 3.8383508624855387e+00 
5.3153040000000007e-01,	 1.4421514999999999e-01,	 2.7374511480355756e-02,	 1.5887658783764257e+03,	 4.2058052892933779e+02,	 4.5524015425939785e+02,	 3.5852288037785302e+03,	 4.2820256798962629e+02,	 3.8381173581771679e+00 
5.3557967500000003e-01,	 1.4528812499999999e-01,	 2.7379455179899433e-02,	 1.5887256276719320e+03,	 4.2064457391167298e+02,	 4.5527690966746570e+02,	 3.5861657964063365e+03,	 4.2821985385765305e+02,	 3.8379098374864578e+00 
5.3962897500000007e-01,	 1.4636109999999999e-01,	 2.7384152971376762e-02,	 1.5886872361259066e+03,	 4.2070520740338509e+02,	 4.5531215145656682e+02,	 3.5870587572501408e+03,	 4.2823642722369271e+02,	 3.8377108836022540e+00 
5.4367830000000006e-01,	 1.4743407500000000e-01,	 2.7388815847733814e-02,	 1.5886488518393569e+03,	 4.2076574362538179e+02,	 4.5534741732355968e+02,	 3.5879474291813845e+03,	 4.2825301127094025e+02,	 3.8375118142937490e+00 
5.4772757500000002e-01,	 1.4850702499999999e-01,	 2.7393628629765510e-02,	 1.5886091639269291e+03,	 4.2082829032493368e+02,	 4.5538389455054198e+02,	 3.5888653816503829e+03,	 4.2827016429395366e+02,	 3.8373059286584303e+00 
5.5177687499999994e-01,	 1.4957999999999999e-01,	 2.7398186328890413e-02,	 1.5885715231646070e+03,	 4.2088691112167817e+02,	 4.5541877765929047e+02,	 3.5897374485178120e+03,	 4.2828656705743447e+02,	 3.8371090611029612e+00 
5.5582617499999998e-01,	 1.5065297499999997e-01,	 2.7402896731603385e-02,	 1.5885325158978642e+03,	 4.2094762877677408e+02,	 4.5545493515940507e+02,	 3.5906396626057240e+03,	 4.2830356840322884e+02,	 3.8369050225168158e+00 
2.5079207500000000e-01,	 7.4864152500000003e-02,	 2.6228496027816357e-02,	 1.6018334303760676e+03,	 3.8127902429990900e+02,	 4.5018564904745216e+02,	 3.3969955060718576e+03,	 4.2581877852682658e+02,	 3.8668693141864736e+00 
2.5485042499999999e-01,	 7.5915447500000011e-02,	 2.6269265083004239e-02,	 1.6014976853553464e+03,	 3.8220689680554710e+02,	 4.5036792883584877e+02,	 3.4036533072269522e+03,	 4.2590497663389425e+02,	 3.8658249753736444e+00 
2.5890875000000002e-01,	 7.6966742500000004e-02,	 2.6308197965680499e-02,	 1.6011736922903233e+03,	 3.8310271571867293e+02,	 4.5054275009610052e+02,	 3.4100209276759892e+03,	 4.2598763129889198e+02,	 3.8648238979128351e+00 
2.6296710000000001e-01,	 7.8018037499999998e-02,	 2.6345405593256956e-02,	 1.6008609851302401e+03,	 3.8396778077677726e+02,	 4.5071045504905612e+02,	 3.4161148158286214e+03,	 4.2606690633867618e+02,	 3.8638640568515425e+00 
2.6702547500000001e-01,	 7.9069332500000006e-02,	 2.6381023967348052e-02,	 1.6005587395444993e+03,	 3.8480388366422784e+02,	 4.5087175908341533e+02,	 3.4219575641149422e+03,	 4.2614314171567111e+02,	 3.8629412996608656e+00 
2.7108382500000000e-01,	 8.0120629999999998e-02,	 2.6415143043643063e-02,	 1.6002665706368084e+03,	 3.8561213861901456e+02,	 4.5102692875835379e+02,	 3.4275624526312313e+03,	 4.2621646500900101e+02,	 3.8620540497497884e+00 
2.7514217500000004e-01,	 8.1171925000000006e-02,	 2.6447867000811847e-02,	 1.5999838761815138e+03,	 3.8639412603449296e+02,	 4.5117639037590254e+02,	 3.4329458660527666e+03,	 4.2628707911384998e+02,	 3.8611998225885027e+00 
2.7920054999999999e-01,	 8.2223217500000001e-02,	 2.6479310642911359e-02,	 1.5997099376748129e+03,	 3.8715171575644410e+02,	 4.5132063567326202e+02,	 3.4381261155840962e+03,	 4.2635521764443382e+02,	 3.8603757660183362e+00 
2.8325892499999999e-01,	 8.3274515000000007e-02,	 2.6509509623425954e-02,	 1.5994445574192418e+03,	 3.8788556795905083e+02,	 4.5145978658621630e+02,	 3.4431084609714512e+03,	 4.2642093937397829e+02,	 3.8595811455140412e+00 
2.8731727500000004e-01,	 8.4325810000000001e-02,	 2.6538546750756346e-02,	 1.5991872200318708e+03,	 3.8859718201980201e+02,	 4.5159414166098782e+02,	 3.4479056578576965e+03,	 4.2648438639295807e+02,	 3.8588142211597813e+00 
2.9137562500000003e-01,	 8.5377102499999996e-02,	 2.6566511593619301e-02,	 1.5989373203517573e+03,	 3.8928808918205658e+02,	 4.5172412317753418e+02,	 3.4525323189810347e+03,	 4.2654575908786489e+02,	 3.8580725511203648e+00 
2.9543399999999997e-01,	 8.6428399999999989e-02,	 2.6593428579046882e-02,	 1.5986947964965939e+03,	 3.8995876433020749e+02,	 4.5184969363699071e+02,	 3.4569911069658124e+03,	 4.2660504065204520e+02,	 3.8573563203376713e+00 
2.9949237499999998e-01,	 8.7479697500000009e-02,	 2.6619387776873959e-02,	 1.5984589888426078e+03,	 3.9061065793051608e+02,	 4.5197138325556080e+02,	 3.4612975779806984e+03,	 4.2666248222013968e+02,	 3.8566624780689813e+00 
3.0355070000000001e-01,	 8.8530990000000004e-02,	 2.6644419476522137e-02,	 1.5982298232766700e+03,	 3.9124418555358949e+02,	 4.5208918939375434e+02,	 3.4654554637844285e+03,	 4.2671808328952619e+02,	 3.8559910153791113e+00 
3.0760904999999994e-01,	 8.9582284999999998e-02,	 2.6668576376381717e-02,	 1.5980069440488344e+03,	 3.9186025946136277e+02,	 4.5220336081304345e+02,	 3.4694733506060275e+03,	 4.2677196196528320e+02,	 3.8553404919162375e+00 
3.1166742500000000e-01,	 9.0633582500000004e-02,	 2.6691927563399744e-02,	 1.5977898694142173e+03,	 3.9245993501599668e+02,	 4.5231428681873535e+02,	 3.4733630561012187e+03,	 4.2682430258279561e+02,	 3.8547086695683750e+00 
3.1572577499999999e-01,	 9.1684874999999999e-02,	 2.6714488385490110e-02,	 1.5975785769532649e+03,	 3.9304348171523714e+02,	 4.5242193083803704e+02,	 3.4771261543079518e+03,	 4.2687508845400231e+02,	 3.8540957383086880e+00 
3.1978412499999997e-01,	 9.2736170000000007e-02,	 2.6736301207351230e-02,	 1.5973728049336319e+03,	 3.9361159600611222e+02,	 4.5252646751696795e+02,	 3.4807693666541613e+03,	 4.2692440251639465e+02,	 3.8535006862739927e+00 
3.2384250000000003e-01,	 9.3787467499999999e-02,	 2.6757433882430175e-02,	 1.5971720658778966e+03,	 3.9416550951579870e+02,	 4.5262821746588077e+02,	 3.4843038709366424e+03,	 4.2697239649874513e+02,	 3.8529216728550257e+00 
3.2790087499999998e-01,	 9.4838762500000007e-02,	 2.6777874332290917e-02,	 1.5969764555842678e+03,	 3.9470512882860459e+02,	 4.5272709181351388e+02,	 3.4877272987746073e+03,	 4.2701902893380145e+02,	 3.8523591892153060e+00 
3.3195922499999997e-01,	 9.5890057500000014e-02,	 2.6797687968553686e-02,	 1.5967854795342892e+03,	 3.9523159930777291e+02,	 4.5282345116884591e+02,	 3.4910508419351936e+03,	 4.2706447031543280e+02,	 3.8518111704113096e+00 
3.3601757500000001e-01,	 9.6941352499999994e-02,	 2.6816876890106034e-02,	 1.5965992528339400e+03,	 3.9574486207202273e+02,	 4.5291715942107265e+02,	 3.4942736286682830e+03,	 4.2710865684639089e+02,	 3.8512783779725357e+00 
3.4007595000000002e-01,	 9.7992657499999997e-02,	 2.6835475208527679e-02,	 1.5964175779283132e+03,	 3.9624550985326312e+02,	 4.5300831936157675e+02,	 3.4974008038078596e+03,	 4.2715163737824338e+02,	 3.8507602151654998e+00 
3.4413432500000002e-01,	 9.9043950000000006e-02,	 2.6853516408063823e-02,	 1.5962398973954298e+03,	 3.9673469419010740e+02,	 4.5309738221724490e+02,	 3.5004401307427070e+03,	 4.2719362499008838e+02,	 3.8502541064677804e+00 
3.4819267499999995e-01,	 1.0009524250000000e-01,	 2.6871018270137475e-02,	 1.5960665444188999e+03,	 3.9721186792505586e+02,	 4.5318405452769764e+02,	 3.5033915836741480e+03,	 4.2723448164635693e+02,	 3.8497617094320966e+00 
3.5225099999999998e-01,	 1.0114653250000000e-01,	 2.6888016930297930e-02,	 1.5958968996695162e+03,	 3.9767843381568400e+02,	 4.5326878318165922e+02,	 3.5062632552162959e+03,	 4.2727441830165600e+02,	 3.8492804757417893e+00 
3.5630935000000002e-01,	 1.0219783250000000e-01,	 2.6904513107674683e-02,	 1.5957312834801160e+03,	 3.9813376948243354e+02,	 4.5335132323629955e+02,	 3.5090532779296550e+03,	 4.2731331977661932e+02,	 3.8488117877904404e+00 
3.6036772500000003e-01,	 1.0324912500000000e-01,	 2.6920521727903393e-02,	 1.5955693443040307e+03,	 3.9857881372421400e+02,	 4.5343187736210569e+02,	 3.5117651015506331e+03,	 4.2735128186057318e+02,	 3.8483544860745642e+00 
3.6442607500000002e-01,	 1.0430040000000000e-01,	 2.6936105823318724e-02,	 1.5954108793921343e+03,	 3.9901394431799542e+02,	 4.5351063252074567e+02,	 3.5144083375256882e+03,	 4.2738839290017881e+02,	 3.8479075015451314e+00 
3.6848445000000002e-01,	 1.0535172499999999e-01,	 2.6951225249125205e-02,	 1.5952559435485828e+03,	 3.9943921646335247e+02,	 4.5358749448226450e+02,	 3.5169769635107741e+03,	 4.2742460871972378e+02,	 3.8474713617069010e+00 
3.7254282499999997e-01,	 1.0640302500000000e-01,	 2.6965928441448329e-02,	 1.5951042169156824e+03,	 3.9985541615032361e+02,	 4.5366267194327247e+02,	 3.5194788647026544e+03,	 4.2746002786811420e+02,	 3.8470448754297712e+00 
3.7660117500000001e-01,	 1.0745429999999999e-01,	 2.6980244720353035e-02,	 1.5949557254900194e+03,	 4.0026245689151773e+02,	 4.5373617080577390e+02,	 3.5219178658803016e+03,	 4.2749465332370249e+02,	 3.8466280028789392e+00 
3.8065952500000000e-01,	 1.0850560000000001e-01,	 2.6994129069702305e-02,	 1.5948104099015909e+03,	 4.0066053748566202e+02,	 4.5380801853800500e+02,	 3.5242882578803069e+03,	 4.2752849821812248e+02,	 3.8462205821137276e+00 
3.8471789999999995e-01,	 1.0955690000000001e-01,	 2.7007679883388955e-02,	 1.5946680526922203e+03,	 4.0105031517431962e+02,	 4.5387830975654714e+02,	 3.5266035773529015e+03,	 4.2756160730200799e+02,	 3.8458220708134072e+00 
3.8877627500000000e-01,	 1.1060817500000000e-01,	 2.7020834746897853e-02,	 1.5945286806763436e+03,	 4.0143176947609851e+02,	 4.5394702106128790e+02,	 3.5288554527688871e+03,	 4.2759396972545187e+02,	 3.8454325961137150e+00 
3.9283462499999999e-01,	 1.1165947500000001e-01,	 2.7033627125863564e-02,	 1.5943922873059396e+03,	 4.0180483189843949e+02,	 4.5401420085086232e+02,	 3.5310485903016011e+03,	 4.2762560845075967e+02,	 3.8450518783168603e+00 
3.9689297500000004e-01,	 1.1271080000000000e-01,	 2.7046118907890975e-02,	 1.5942584062326430e+03,	 4.0217073138933091e+02,	 4.5408010718235209e+02,	 3.5331930447001128e+03,	 4.2765664515878620e+02,	 3.8446784502452171e+00 
4.0095132499999997e-01,	 1.1376207499999999e-01,	 2.7058379143235868e-02,	 1.5941262420388407e+03,	 4.0253106905630005e+02,	 4.5414536807939430e+02,	 3.5353026957208340e+03,	 4.2768737569854380e+02,	 3.8443087503031581e+00 
4.0500967499999996e-01,	 1.1481337500000000e-01,	 2.7070264243562004e-02,	 1.5939972011050734e+03,	 4.0288285790076009e+02,	 4.5420895898157363e+02,	 3.5373507811289501e+03,	 4.2771731773472396e+02,	 3.8439485788093686e+00 
4.0906802500000000e-01,	 1.1586467500000000e-01,	 2.7081846831064241e-02,	 1.5938705863454088e+03,	 4.0322788338759096e+02,	 4.5427127847648057e+02,	 3.5393498597571092e+03,	 4.2774665909010594e+02,	 3.8435956735201700e+00 
4.1312637500000005e-01,	 1.1691594999999999e-01,	 2.7093107987954938e-02,	 1.5937467699745100e+03,	 4.0356534886260192e+02,	 4.5433206458748111e+02,	 3.5412953879308143e+03,	 4.2777527655657178e+02,	 3.8432515136013814e+00 
4.1718474999999999e-01,	 1.1796725000000000e-01,	 2.7104080152179001e-02,	 1.5936250881518240e+03,	 4.0389660564941141e+02,	 4.5439183454399193e+02,	 3.5431956075285798e+03,	 4.2780341376151165e+02,	 3.8429131667069627e+00 
4.2124312500000005e-01,	 1.1901855000000001e-01,	 2.7114772364801983e-02,	 1.5935059880208910e+03,	 4.0422084262706954e+02,	 4.5445021324009798e+02,	 3.5450487499661713e+03,	 4.2783089423263294e+02,	 3.8425827526532266e+00 
4.2530147499999998e-01,	 1.2006985000000001e-01,	 2.7125181357119429e-02,	 1.5933892125403027e+03,	 4.0453869103988507e+02,	 4.5450736151683361e+02,	 3.5468556160485764e+03,	 4.2785779380162802e+02,	 3.8422593572790449e+00 
4.2935984999999999e-01,	 1.2112115000000001e-01,	 2.7135343759393752e-02,	 1.5932742469318894e+03,	 4.0485113943230232e+02,	 4.5456370331382163e+02,	 3.5486242806227183e+03,	 4.2788431210691613e+02,	 3.8419405786426286e+00 
4.3341822499999999e-01,	 1.2217245000000002e-01,	 2.7145258821479740e-02,	 1.5931615924269029e+03,	 4.0515729152765971e+02,	 4.5461881186434687e+02,	 3.5503512936717188e+03,	 4.2791024837220471e+02,	 3.8416288285012015e+00 
4.3747657500000003e-01,	 1.2322372499999999e-01,	 2.7154949494870319e-02,	 1.5930506642377852e+03,	 4.0545836668971737e+02,	 4.5467312787546012e+02,	 3.5520430780145530e+03,	 4.2793581009888067e+02,	 3.8413216109708030e+00 
4.4153492500000002e-01,	 1.2427502500000001e-01,	 2.7164390148593075e-02,	 1.5929419221034746e+03,	 4.0575331747843654e+02,	 4.5472635125152613e+02,	 3.5536939181594030e+03,	 4.2796085613817655e+02,	 3.8410206208741271e+00 
4.4559327500000001e-01,	 1.2532632499999999e-01,	 2.7173729540135968e-02,	 1.5928340275868775e+03,	 4.0604511624056249e+02,	 4.5477940672582054e+02,	 3.5553304859595660e+03,	 4.2798582170689571e+02,	 3.8407206269486580e+00 
4.4965162500000000e-01,	 1.2637759999999998e-01,	 2.7182825149364681e-02,	 1.5927283249495019e+03,	 4.0633094380503616e+02,	 4.5483130863757316e+02,	 3.5569264181602293e+03,	 4.2801024305082854e+02,	 3.8404272007174942e+00 
4.5370997499999999e-01,	 1.2742892499999997e-01,	 2.7191642531470855e-02,	 1.5926248775649144e+03,	 4.0661078288086645e+02,	 4.5488196950839347e+02,	 3.5584765027802000e+03,	 4.2803407910549362e+02,	 3.8401408336433742e+00 
4.5776832499999998e-01,	 1.2848022499999998e-01,	 2.7200226120510380e-02,	 1.5925233815300371e+03,	 4.0688543479005324e+02,	 4.5493155186666291e+02,	 3.5599878056107555e+03,	 4.2805740643234776e+02,	 3.8398606040843477e+00 
4.6182669999999998e-01,	 1.2953149999999999e-01,	 2.7208634971719194e-02,	 1.5924235453403078e+03,	 4.0715538938059598e+02,	 4.5498032348035150e+02,	 3.5614701346981556e+03,	 4.2808035108288755e+02,	 3.8395849963315403e+00 
4.6588507499999998e-01,	 1.3058280000000000e-01,	 2.7216804718696246e-02,	 1.5923255179381936e+03,	 4.0742029165705060e+02,	 4.5502819672528659e+02,	 3.5629143645789618e+03,	 4.2810287189904557e+02,	 3.8393145034724965e+00 
4.6994342499999997e-01,	 1.3163409999999998e-01,	 2.7224828124875061e-02,	 1.5922290052197350e+03,	 4.0768089242518801e+02,	 4.5507533719347003e+02,	 3.5643339208094649e+03,	 4.2812504684040323e+02,	 3.8390481879338276e+00 
4.7400177499999996e-01,	 1.3268537499999999e-01,	 2.7232636857427849e-02,	 1.5921341991321719e+03,	 4.0793688143713399e+02,	 4.5512157084779273e+02,	 3.5657184816460513e+03,	 4.2814679409969193e+02,	 3.8387870309994376e+00 
4.7806015000000002e-01,	 1.3373667500000000e-01,	 2.7240255432608929e-02,	 1.5920411036656392e+03,	 4.0818816125627717e+02,	 4.5516693487773637e+02,	 3.5670715342264193e+03,	 4.2816813123384986e+02,	 3.8385308205558122e+00 