TITLE = "Final State"
VARIABLES = "X", "Y", "rho", "u", "v", "T", "p", "c", "M"
ZONE I=51, J=46, DATAPACKING=POINT
1.9020999999999999e+00,	 7.4003620000000003e-01,	 2.1506280727803920e-02,	 7.1653125778526999e+02,	 5.5473934417760887e+01,	 5.5211586397857718e+02,	 3.4160598726009530e+03,	 4.5090501596912986e+02,	 1.5938510848181662e+00 
1.9095679999999999e+00,	 7.4003710000000000e-01,	 2.1526978329929988e-02,	 7.1774810669131057e+02,	 5.7217230546649077e+01,	 5.5091793829376684e+02,	 3.4119285243006402e+03,	 4.5041558608239768e+02,	 1.5985794680168479e+00 
1.9170370000000001e+00,	 7.4003790000000003e-01,	 2.1545748558351736e-02,	 7.1926192305364839e+02,	 5.9134787719421297e+01,	 5.4944922581360174e+02,	 3.4057996030290278e+03,	 4.4981479562415461e+02,	 1.6044130757031152e+00 
1.9245060000000000e+00,	 7.4003880000000000e-01,	 2.1561755853148096e-02,	 7.2090057513014335e+02,	 6.1073279682442191e+01,	 5.4785850410563535e+02,	 3.3984623972457812e+03,	 4.4916318964869777e+02,	 1.6107351863715409e+00 
1.9319740000000001e+00,	 7.4003960000000002e-01,	 2.1573519458086214e-02,	 7.2265768539769533e+02,	 6.3074183959281939e+01,	 5.4614966742468823e+02,	 3.3897105243431834e+03,	 4.4846214550935980e+02,	 1.6175390827727705e+00 
1.9394430000000000e+00,	 7.4004049999999999e-01,	 2.1585563512537265e-02,	 7.2444858184891950e+02,	 6.5065879732839122e+01,	 5.4438137242239122e+02,	 3.3806217747049300e+03,	 4.4773555319082317e+02,	 1.6245407198585471e+00 
1.9469120000000000e+00,	 7.4004139999999996e-01,	 2.1604069544864456e-02,	 7.2619494964927731e+02,	 6.6907420116126616e+01,	 5.4262862703610165e+02,	 3.3726261719935824e+03,	 4.4701418471438427e+02,	 1.6314262350493951e+00 
1.9543809999999999e+00,	 7.4004219999999998e-01,	 2.1630305159839665e-02,	 7.2788981374856030e+02,	 6.8540466703220233e+01,	 5.4092004893174408e+02,	 3.3660895270552301e+03,	 4.4630987169850545e+02,	 1.6381212579062183e+00 
1.9618490000000000e+00,	 7.4004309999999995e-01,	 2.1656932663046465e-02,	 7.2960835847944304e+02,	 7.0068763295211312e+01,	 5.3921353730189776e+02,	 3.3596007580240685e+03,	 4.4560529932828996e+02,	 1.6448754173116533e+00 
1.9693179999999999e+00,	 7.4004389999999998e-01,	 2.1673531578767110e-02,	 7.3143833929214679e+02,	 7.1636133091389382e+01,	 5.3743623764484096e+02,	 3.3510936633768265e+03,	 4.4487031423025081e+02,	 1.6520273870386695e+00 
1.9767870000000001e+00,	 7.4004479999999995e-01,	 2.1676130746758809e-02,	 7.3340133267193028e+02,	 7.3306045539437250e+01,	 5.3558256014903077e+02,	 3.3399358568724001e+03,	 4.4410244789072948e+02,	 1.6596526990498270e+00 
1.9842550000000001e+00,	 7.4004559999999997e-01,	 2.1671646022375146e-02,	 7.3533760595035278e+02,	 7.5016841831832849e+01,	 5.3376614101095913e+02,	 3.3279198424496130e+03,	 4.4334872534158023e+02,	 1.6672072139198217e+00 
1.9917240000000000e+00,	 7.4004650000000005e-01,	 2.1664995059249730e-02,	 7.3716185347319856e+02,	 7.6668414142500794e+01,	 5.3198904084328171e+02,	 3.3158220677076583e+03,	 4.4261007604589543e+02,	 1.6744717609878434e+00 
1.9991930000000000e+00,	 7.4004740000000002e-01,	 2.1656702631856990e-02,	 7.3893752526970115e+02,	 7.8211425260563743e+01,	 5.3019707977196504e+02,	 3.3033881165031680e+03,	 4.4186399953020612e+02,	 1.6816601204256563e+00 
2.0066619999999999e+00,	 7.4004820000000004e-01,	 2.1642297808579847e-02,	 7.4066413905231855e+02,	 7.9633303342321028e+01,	 5.2846615646753594e+02,	 3.2904135593368687e+03,	 4.4114213781336178e+02,	 1.6886456877367388e+00 
2.0141300000000002e+00,	 7.4004910000000002e-01,	 2.1624305680829070e-02,	 7.4229800765547020e+02,	 8.0936007890213986e+01,	 5.2682742509681293e+02,	 3.2774832765161300e+03,	 4.4045763347361702e+02,	 1.6952762719026326e+00 
2.0215990000000001e+00,	 7.4004990000000004e-01,	 2.1603119110040772e-02,	 7.4386035221727002e+02,	 8.2134984945705980e+01,	 5.2527354155561738e+02,	 3.2646146351562575e+03,	 4.3980758636489225e+02,	 1.7016104216977614e+00 
2.0290680000000001e+00,	 7.4005080000000001e-01,	 2.1579156945071877e-02,	 7.4536507863745692e+02,	 8.3242357611835359e+01,	 5.2379757386775145e+02,	 3.2518304514144024e+03,	 4.3918924336537373e+02,	 1.7076896539804827e+00 
2.0365359999999999e+00,	 7.4005169999999998e-01,	 2.1553270494994663e-02,	 7.4682597512834627e+02,	 8.4264678332137933e+01,	 5.2239864436023913e+02,	 3.2392551514582701e+03,	 4.3860237012063379e+02,	 1.7135446614037866e+00 
2.0440049999999998e+00,	 7.4005250000000000e-01,	 2.1525982422361499e-02,	 7.4824856859281658e+02,	 8.5208939216472828e+01,	 5.2108622565743201e+02,	 3.2270263528435189e+03,	 4.3805107471379984e+02,	 1.7191708667335812e+00 
2.0514739999999998e+00,	 7.4005339999999997e-01,	 2.1497570693515759e-02,	 7.4963440847021059e+02,	 8.6084229286452398e+01,	 5.1986717109522283e+02,	 3.2152275643845383e+03,	 4.3753837564226581e+02,	 1.7245594924644814e+00 
2.0589430000000002e+00,	 7.4005430000000005e-01,	 2.1467978509694195e-02,	 7.5098164255270672e+02,	 8.6900421691824235e+01,	 5.1873458712076604e+02,	 3.2038066263903670e+03,	 4.3706150464954447e+02,	 1.7297171909048863e+00 
2.0664110000000000e+00,	 7.4005509999999997e-01,	 2.1436673153411918e-02,	 7.5228419873387747e+02,	 8.7667514087922541e+01,	 5.1767412111916337e+02,	 3.1925946283879957e+03,	 4.3661452655940974e+02,	 1.7346540206299328e+00 
2.0738799999999999e+00,	 7.4005600000000005e-01,	 2.1403025362238787e-02,	 7.5353641656328136e+02,	 8.8394564304715431e+01,	 5.1667244307539136e+02,	 3.1814155720980689e+03,	 4.3619190648424029e+02,	 1.7393796405700273e+00 
2.0813489999999999e+00,	 7.4005679999999996e-01,	 2.1366660668578091e-02,	 7.5473629205108455e+02,	 8.9086092401976231e+01,	 5.1571906423598216e+02,	 3.1701497400004973e+03,	 4.3578928374544518e+02,	 1.7439065599188994e+00 
2.0888170000000001e+00,	 7.4005770000000004e-01,	 2.1327384499519701e-02,	 7.5588467757154217e+02,	 8.9743768826973010e+01,	 5.1480515803746596e+02,	 3.1587148762831876e+03,	 4.3540298124502266e+02,	 1.7482506151827271e+00 
2.0962860000000001e+00,	 7.4005860000000001e-01,	 2.1284962925723787e-02,	 7.5698342103512778e+02,	 9.0371479659380782e+01,	 5.1392217211563843e+02,	 3.1470249810996183e+03,	 4.3502942273362402e+02,	 1.7524303797144807e+00 
2.1037550000000000e+00,	 7.4005940000000003e-01,	 2.1239151835699473e-02,	 7.5803634351636640e+02,	 9.0974787394393275e+01,	 5.1306297272482675e+02,	 3.1350016971083523e+03,	 4.3466561923327174e+02,	 1.7564672833808423e+00 
2.1112240000000000e+00,	 7.4006030000000000e-01,	 2.1189930750818556e-02,	 7.5905276968473322e+02,	 9.1558747629185461e+01,	 5.1222291986086907e+02,	 3.1226152931114639e+03,	 4.3430962815163070e+02,	 1.7603911949381823e+00 
2.1186919999999998e+00,	 7.4006119999999997e-01,	 2.1137564136712514e-02,	 7.6004639457918074e+02,	 9.2129019452504508e+01,	 5.1139934888899415e+02,	 3.1098901341118458e+03,	 4.3396033814615356e+02,	 1.7642389762721127e+00 
2.1261610000000002e+00,	 7.4006200000000000e-01,	 2.1082398593868856e-02,	 7.6102955900969414e+02,	 9.2693689692250388e+01,	 5.1059000480493881e+02,	 3.0968649473916471e+03,	 4.3361680788424070e+02,	 1.7680445630209631e+00 
2.1336300000000001e+00,	 7.4006289999999997e-01,	 2.1024979446436456e-02,	 7.6201554103510716e+02,	 9.3259534925807429e+01,	 5.0979471277811217e+02,	 3.0836199329711912e+03,	 4.3327897677091232e+02,	 1.7718402497438421e+00 
2.1410979999999999e+00,	 7.4006380000000005e-01,	 2.0966351040782601e-02,	 7.6302599917361283e+02,	 9.3828804398353014e+01,	 5.0901808053252239e+02,	 3.0703366684927937e+03,	 4.3294881771746628e+02,	 1.7756680585397073e+00 
2.1485669999999999e+00,	 7.4006470000000002e-01,	 2.0907654011618794e-02,	 7.6408388304723530e+02,	 9.4401325916161994e+01,	 5.0826605947118566e+02,	 3.0572176051043148e+03,	 4.3262888117116569e+02,	 1.7795699655902721e+00 
2.1560359999999998e+00,	 7.4006550000000004e-01,	 2.0849540420770571e-02,	 7.6520035697883873e+02,	 9.4977858408200206e+01,	 5.0754015068859030e+02,	 3.0443657556708836e+03,	 4.3231982913978953e+02,	 1.7835689585663257e+00 
2.1635049999999998e+00,	 7.4006640000000001e-01,	 2.0792295226109148e-02,	 7.6637557704481526e+02,	 9.5561135460923197e+01,	 5.0683818524967353e+02,	 3.0318080218311761e+03,	 4.3202076060066855e+02,	 1.7876697980949836e+00 
2.1709730000000000e+00,	 7.4006729999999998e-01,	 2.0736220209167239e-02,	 7.6760604435039227e+02,	 9.6154562687363722e+01,	 5.0615724355782328e+02,	 3.0195692222396779e+03,	 4.3173045115741331e+02,	 1.7918704271674804e+00 
2.1784420000000000e+00,	 7.4006819999999995e-01,	 2.0681454011822788e-02,	 7.6888369520560991e+02,	 9.6762778787845207e+01,	 5.0549235817627545e+02,	 3.0076382582865208e+03,	 4.3144679859824709e+02,	 1.7961623517500669e+00 
2.1859109999999999e+00,	 7.4006899999999998e-01,	 2.0627740825977861e-02,	 7.7019134058320037e+02,	 9.7392303386461577e+01,	 5.0483456504612934e+02,	 2.9959232694548919e+03,	 4.3116598809416593e+02,	 1.8005238614005141e+00 
2.1933790000000002e+00,	 7.4006989999999995e-01,	 2.0574521356735442e-02,	 7.7150542816124016e+02,	 9.8049574800072179e+01,	 5.0417210537568292e+02,	 2.9842726010879896e+03,	 4.3088300049499009e+02,	 1.8049237587146516e+00 
2.2008480000000001e+00,	 7.4007080000000003e-01,	 2.0521310420174965e-02,	 7.7280523512711795e+02,	 9.8738478084038235e+01,	 5.0349440288633372e+02,	 2.9725534631741443e+03,	 4.3059330906397832e+02,	 1.8093347256767178e+00 
2.2083170000000001e+00,	 7.4007170000000000e-01,	 2.0467997790540097e-02,	 7.7407897459850278e+02,	 9.9460527182627970e+01,	 5.0279594170344978e+02,	 2.9607181260292018e+03,	 4.3029454001533713e+02,	 1.8137404258183514e+00 
2.2157860000000000e+00,	 7.4007259999999997e-01,	 2.0414860119189037e-02,	 7.7532404624170363e+02,	 1.0021660994538453e+02,	 5.0207597267372819e+02,	 2.9488031668614431e+03,	 4.2998635363311558e+02,	 1.8181370054541670e+00 
2.2232539999999998e+00,	 7.4007339999999999e-01,	 2.0362264677566973e-02,	 7.7654180831652889e+02,	 1.0100603173981611e+02,	 5.0133565538020281e+02,	 2.9368692280842929e+03,	 4.2966922656317240e+02,	 1.8225258307706014e+00 
2.2307229999999998e+00,	 7.4007429999999996e-01,	 2.0310397582468082e-02,	 7.7773082097127769e+02,	 1.0182735902610537e+02,	 5.0057545148932076e+02,	 2.9249463876003579e+03,	 4.2934333697943987e+02,	 1.8269028406085792e+00 
2.2381920000000002e+00,	 7.4007520000000004e-01,	 2.0259212238821284e-02,	 7.7888325653642016e+02,	 1.0267948845540801e+02,	 4.9979446296450362e+02,	 2.9130231238030615e+03,	 4.2900827948961535e+02,	 1.8312517831202708e+00 
2.2456600000000000e+00,	 7.4007610000000001e-01,	 2.0208435956035199e-02,	 7.7999025370608558e+02,	 1.0355843281349952e+02,	 4.9899039935460371e+02,	 2.9010474324343836e+03,	 4.2866304877874501e+02,	 1.8355556718170003e+00 
2.2531289999999999e+00,	 7.4007699999999998e-01,	 2.0157852031054881e-02,	 7.8104898175407584e+02,	 1.0445749275430077e+02,	 4.9816259263794643e+02,	 2.8889851093023958e+03,	 4.2830733307313227e+02,	 1.8398076226968985e+00 
2.2605979999999999e+00,	 7.4007789999999996e-01,	 2.0107578804157866e-02,	 7.8206396513068580e+02,	 1.0536890096580348e+02,	 4.9731553804189127e+02,	 2.8768799889363027e+03,	 4.2794304031617236e+02,	 1.8440078202604995e+00 
2.2680669999999998e+00,	 7.4007880000000004e-01,	 2.0057921938373240e-02,	 7.8304472076520005e+02,	 1.0628609440027313e+02,	 4.9645674448323859e+02,	 2.8648196661786355e+03,	 4.2757338212434934e+02,	 1.8481626100798767e+00 
2.2755350000000001e+00,	 7.4007970000000001e-01,	 2.0017635369477843e-02,	 7.8383272330247337e+02,	 1.0713171376612306e+02,	 4.9569405372982538e+02,	 2.8546733507627537e+03,	 4.2724482217269781e+02,	 1.8516785094710069e+00 
1.9020990000000000e+00,	 7.4579910000000005e-01,	 2.1300198370754201e-02,	 7.1219897522850988e+02,	 5.5247657735778525e+01,	 5.5452757415930068e+02,	 3.3981045135432319e+03,	 4.5188874723249103e+02,	 1.5807842933877561e+00 
1.9095679999999999e+00,	 7.4580000000000002e-01,	 2.1321602050690676e-02,	 7.1332702819269070e+02,	 5.6996658508061891e+01,	 5.5339911293571424e+02,	 3.3945970501146116e+03,	 4.5142871724697812e+02,	 1.5851904575660951e+00 
1.9170360000000000e+00,	 7.4580100000000005e-01,	 2.1338993714880187e-02,	 7.1479134308053403e+02,	 5.8939803468899527e+01,	 5.5196949194644753e+02,	 3.3885893952149140e+03,	 4.5084524204965373e+02,	 1.5908280043254939e+00 
1.9245049999999999e+00,	 7.4580190000000002e-01,	 2.1352646677558755e-02,	 7.1640521394190591e+02,	 6.0947919459034310e+01,	 5.5039459966837592e+02,	 3.3810828697297770e+03,	 4.5020160150884635e+02,	 1.5970469645250169e+00 
1.9319740000000001e+00,	 7.4580279999999999e-01,	 2.1364353324850857e-02,	 7.1813002513927859e+02,	 6.2970746756719421e+01,	 5.4870598944463438e+02,	 3.3725577108649527e+03,	 4.4951046190785229e+02,	 1.6037126181866552e+00 
1.9394420000000001e+00,	 7.4580369999999996e-01,	 2.1381761523360365e-02,	 7.1985154178435823e+02,	 6.4874872503733997e+01,	 5.4699572569378267e+02,	 3.3647852503864951e+03,	 4.4880937475617776e+02,	 1.6104141662381422e+00 
1.9469110000000001e+00,	 7.4580469999999999e-01,	 2.1409041114212740e-02,	 7.2151788357529642e+02,	 6.6574408396847460e+01,	 5.4532777517838917e+02,	 3.3588048516206477e+03,	 4.4812457656349670e+02,	 1.6169226595327788e+00 
1.9543800000000000e+00,	 7.4580559999999996e-01,	 2.1440668226323758e-02,	 7.2319985426579944e+02,	 6.8150672723362419e+01,	 5.4366450492946933e+02,	 3.3535071259558345e+03,	 4.4744065625311725e+02,	 1.6234641019749405e+00 
1.9618490000000000e+00,	 7.4580650000000004e-01,	 2.1466311686136490e-02,	 7.2500169188010477e+02,	 6.9785015481653943e+01,	 5.4192405860192503e+02,	 3.3467694827389519e+03,	 4.4672388083879213e+02,	 1.6304311385331050e+00 
1.9693170000000000e+00,	 7.4580749999999996e-01,	 2.1479357003604330e-02,	 7.2696574765354376e+02,	 7.1539728153326038e+01,	 5.4006396402719542e+02,	 3.3373089537065425e+03,	 4.4595655660285331e+02,	 1.6380011014285338e+00 
1.9767859999999999e+00,	 7.4580840000000004e-01,	 2.1481102464982860e-02,	 7.2904008826671645e+02,	 7.3326200578029585e+01,	 5.3812514513819065e+02,	 3.3255983046609235e+03,	 4.4515534929267289e+02,	 1.6459834802205566e+00 
1.9842550000000001e+00,	 7.4580930000000001e-01,	 2.1478857335575228e-02,	 7.3106844199528473e+02,	 7.5067614887636211e+01,	 5.3624437439315079e+02,	 3.3136288291531519e+03,	 4.4437674975127243e+02,	 1.6538047624051648e+00 
1.9917240000000000e+00,	 7.4581019999999998e-01,	 2.1474829838137536e-02,	 7.3298492835288448e+02,	 7.6752168522508910e+01,	 5.3443245929301781e+02,	 3.3018131763583360e+03,	 4.4362536262037992e+02,	 1.6612945608416299e+00 
1.9991920000000001e+00,	 7.4581120000000001e-01,	 2.1469363295230658e-02,	 7.3485104978962022e+02,	 7.8349594601527144e+01,	 5.3262153740537815e+02,	 3.2897873501170179e+03,	 4.4287311359883194e+02,	 1.6686857449502124e+00 
2.0066609999999998e+00,	 7.4581209999999998e-01,	 2.1459943337436484e-02,	 7.3666040432876741e+02,	 7.9828042662613598e+01,	 5.3084841158854704e+02,	 3.2773968396365517e+03,	 4.4213532481489591e+02,	 1.6758965254569833e+00 
2.0141300000000002e+00,	 7.4581299999999995e-01,	 2.1446949892272960e-02,	 7.3839693457800752e+02,	 8.1184194778639636e+01,	 5.2914706321484368e+02,	 3.2649148912426890e+03,	 4.4142624301200789e+02,	 1.6828326383676069e+00 
2.0215980000000000e+00,	 7.4581399999999998e-01,	 2.1429302327117351e-02,	 7.4006859655570770e+02,	 8.2444749672357204e+01,	 5.2753492288198390e+02,	 3.2522894077611290e+03,	 4.4075328840044074e+02,	 1.6894863643963789e+00 
2.0290670000000000e+00,	 7.4581489999999995e-01,	 2.1408566118942873e-02,	 7.4168425164738778e+02,	 8.3621916170664448e+01,	 5.2599559512123972e+02,	 3.2396614287510656e+03,	 4.4010976756455977e+02,	 1.6959027900102885e+00 
2.0365359999999999e+00,	 7.4581580000000003e-01,	 2.1385927202879705e-02,	 7.4325548905673145e+02,	 8.4714453368230451e+01,	 5.2453073904693372e+02,	 3.2272229242368094e+03,	 4.3949650487156839e+02,	 1.7021015553653889e+00 
2.0440049999999998e+00,	 7.4581679999999995e-01,	 2.1362147640447901e-02,	 7.4478859996759627e+02,	 8.5724333292642953e+01,	 5.2315218989931566e+02,	 3.2151622744316128e+03,	 4.3891859199653459e+02,	 1.7080747301605375e+00 
2.0514730000000001e+00,	 7.4581770000000003e-01,	 2.1337416277461864e-02,	 7.4628564585629852e+02,	 8.6658994486324190e+01,	 5.2186784608436483e+02,	 3.2035559030604313e+03,	 4.3837948616734332e+02,	 1.7138124866383571e+00 
2.0589420000000000e+00,	 7.4581860000000000e-01,	 2.1311408197083812e-02,	 7.4774371916223231e+02,	 8.7528167362492269e+01,	 5.2067303167018349e+02,	 3.1923255144124364e+03,	 4.3787736453265910e+02,	 1.7193150768009404e+00 
2.0664110000000000e+00,	 7.4581960000000003e-01,	 2.1283435431604582e-02,	 7.4915603778836726e+02,	 8.8341837595634473e+01,	 5.1955577221144495e+02,	 3.1812942597977212e+03,	 4.3740731392241219e+02,	 1.7245865486630947e+00 
2.0738789999999998e+00,	 7.4582050000000000e-01,	 2.1252810502882434e-02,	 7.5051566348908841e+02,	 8.9109552968514123e+01,	 5.1850297887402860e+02,	 3.1702795787313712e+03,	 4.3696392261724390e+02,	 1.7296329259667451e+00 
2.0813480000000002e+00,	 7.4582139999999997e-01,	 2.1219128980357677e-02,	 7.5181831251721178e+02,	 8.9837192997333332e+01,	 5.1750263132678219e+02,	 3.1591485839028392e+03,	 4.3654220197002667e+02,	 1.7344640506934297e+00 
2.0888170000000001e+00,	 7.4582240000000000e-01,	 2.1182225681042822e-02,	 7.5306401999940897e+02,	 9.0526552359589815e+01,	 5.1654544486370628e+02,	 3.1478212611002509e+03,	 4.3613829515147194e+02,	 1.7390943520484872e+00 
2.0962860000000001e+00,	 7.4582329999999997e-01,	 2.1141934422716883e-02,	 7.5425588396381079e+02,	 9.1180703751495059e+01,	 5.1562382804592289e+02,	 3.1362280709924994e+03,	 4.3574904398104610e+02,	 1.7435430880928935e+00 
2.1037539999999999e+00,	 7.4582420000000005e-01,	 2.1098040831540439e-02,	 7.5539877746656339e+02,	 9.1805953299462004e+01,	 5.1473077464152902e+02,	 3.1242961994327243e+03,	 4.3537152475920198e+02,	 1.7478337833303426e+00 
2.1112229999999998e+00,	 7.4582519999999997e-01,	 2.1050526378853136e-02,	 7.5650199284452583e+02,	 9.2409173422078183e+01,	 5.1386088717992266e+02,	 3.1119919141145624e+03,	 4.3500348345086820e+02,	 1.7519977733768746e+00 
2.1186919999999998e+00,	 7.4582610000000005e-01,	 2.0999710323139971e-02,	 7.5757940122357206e+02,	 9.2996562577018068e+01,	 5.1301142122393730e+02,	 3.0993475226686846e+03,	 4.3464378153581060e+02,	 1.7560724023172700e+00 
2.1261600000000000e+00,	 7.4582709999999997e-01,	 2.0946019103297058e-02,	 7.5864421070572848e+02,	 9.3575687229623171e+01,	 5.1217981309793856e+02,	 3.0864119376569379e+03,	 4.3429135283110475e+02,	 1.7600937970840638e+00 
2.1336290000000000e+00,	 7.4582800000000005e-01,	 2.0889965685740152e-02,	 7.5970910710157409e+02,	 9.4153403030895873e+01,	 5.1136430470439177e+02,	 3.0732512950862374e+03,	 4.3394546909442857e+02,	 1.7640955114752221e+00 
2.1410979999999999e+00,	 7.4582890000000002e-01,	 2.0832482659951357e-02,	 7.6079376677739913e+02,	 9.4731502126028104e+01,	 5.1056824825279381e+02,	 3.0600235542227647e+03,	 4.3360756944723425e+02,	 1.7681169820069340e+00 
2.1485669999999999e+00,	 7.4582990000000005e-01,	 2.0774741721025978e-02,	 7.6192161948363275e+02,	 9.5308691863544681e+01,	 5.0979759912639122e+02,	 3.0469361712544578e+03,	 4.3328020333547590e+02,	 1.7722008810906622e+00 
2.1560350000000001e+00,	 7.4583080000000002e-01,	 2.0717562312169271e-02,	 7.6310666291528219e+02,	 9.5886073997384315e+01,	 5.0905461920562192e+02,	 3.0341215413428758e+03,	 4.3296435654805538e+02,	 1.7763753756492160e+00 
2.1635040000000001e+00,	 7.4583180000000004e-01,	 2.0661355496225799e-02,	 7.6435131025157057e+02,	 9.6469185812207172e+01,	 5.0833733334229743e+02,	 3.0216263146156916e+03,	 4.3265921376333716e+02,	 1.7806507931194149e+00 
2.1709730000000000e+00,	 7.4583270000000002e-01,	 2.0606463494488692e-02,	 7.6565251040468468e+02,	 9.7064625941902705e+01,	 5.0764235534162458e+02,	 3.0094785481607150e+03,	 4.3236335562127545e+02,	 1.7850277986825982e+00 
2.1784409999999998e+00,	 7.4583370000000004e-01,	 2.0553064858136433e-02,	 7.6700247656310034e+02,	 9.7677635408592707e+01,	 5.0696384539468755e+02,	 2.9976679077978692e+03,	 4.3207431263022806e+02,	 1.7895002182725797e+00 
2.1859099999999998e+00,	 7.4583460000000001e-01,	 2.0500932209135975e-02,	 7.6838510720809813e+02,	 9.8312941733757100e+01,	 5.0629129703416424e+02,	 2.9860976732451636e+03,	 4.3178761830960013e+02,	 1.7940510317679328e+00 
2.1933790000000002e+00,	 7.4583560000000004e-01,	 2.0449483248458120e-02,	 7.6977709406691497e+02,	 9.8975397890995623e+01,	 5.0561125531693892e+02,	 2.9746029794533551e+03,	 4.3149753603649043e+02,	 1.7986521620836264e+00 
2.2008480000000001e+00,	 7.4583650000000001e-01,	 2.0398198474898925e-02,	 7.7115725446978706e+02,	 9.9669055942340577e+01,	 5.0491147643469208e+02,	 2.9630364415562776e+03,	 4.3119883084523593e+02,	 1.8032783037934315e+00 
2.2083159999999999e+00,	 7.4583750000000004e-01,	 2.0346961251972211e-02,	 7.7251379874580334e+02,	 1.0039613938966377e+02,	 5.0418500338597875e+02,	 2.9513411914668304e+03,	 4.3088851200363359e+02,	 1.8079160114950432e+00 
2.2157849999999999e+00,	 7.4583840000000001e-01,	 2.0296053504255080e-02,	 7.7384444630955863e+02,	 1.0115798618946010e+02,	 5.0343003345787429e+02,	 2.9395486859931716e+03,	 4.3056578350363981e+02,	 1.8125643593363621e+00 
2.2232539999999998e+00,	 7.4583940000000004e-01,	 2.0245861568699407e-02,	 7.7515042916929735e+02,	 1.0195469724105543e+02,	 5.0264738982796081e+02,	 2.9277206246688747e+03,	 4.3023096971004770e+02,	 1.8172254649562409e+00 
2.2307220000000001e+00,	 7.4584030000000001e-01,	 2.0196591190170417e-02,	 7.7643089803221847e+02,	 1.0278522446210184e+02,	 5.0183715217764268e+02,	 2.9158878902341562e+03,	 4.2988407651345318e+02,	 1.8218976509370852e+00 
2.2381910000000000e+00,	 7.4584130000000004e-01,	 2.0148222034099834e-02,	 7.7767854918926162e+02,	 1.0364885187890658e+02,	 5.0099826352886078e+02,	 2.9040419539683262e+03,	 4.2952462155389333e+02,	 1.8265665232710495e+00 
2.2456600000000000e+00,	 7.4584229999999996e-01,	 2.0100553984817308e-02,	 7.7888346905531967e+02,	 1.0454349322008518e+02,	 5.0012876956213591e+02,	 2.8921432644980973e+03,	 4.2915173478362215e+02,	 1.8312128761284787e+00 
2.2531289999999999e+00,	 7.4584320000000004e-01,	 2.0053387873992998e-02,	 7.8004126261850934e+02,	 1.0546371305575363e+02,	 4.9922771338068958e+02,	 2.8801584287585724e+03,	 4.2876497024037315e+02,	 1.8358273683433173e+00 
2.2605970000000002e+00,	 7.4584419999999996e-01,	 2.0006809774890610e-02,	 7.8115660494106316e+02,	 1.0640164005908720e+02,	 4.9829868351002239e+02,	 2.8681213353116236e+03,	 4.2836583278684935e+02,	 1.8404124355915852e+00 
2.2680660000000001e+00,	 7.4584510000000004e-01,	 1.9961106881444615e-02,	 7.8223834665728396e+02,	 1.0734920900858963e+02,	 4.9734946834855850e+02,	 2.8561184557701959e+03,	 4.2795763868463661e+02,	 1.8449721760157360e+00 
2.2755350000000001e+00,	 7.4584609999999996e-01,	 1.9924282946565300e-02,	 7.8310520023018466e+02,	 1.0821810815077215e+02,	 4.9651118334626051e+02,	 2.8460444124616993e+03,	 4.2759682421772101e+02,	 1.8488145358970156e+00 
1.9020980000000001e+00,	 7.5156170000000000e-01,	 2.1054843083897434e-02,	 7.0658908259528971e+02,	 5.5038668111027015e+01,	 5.5754328179097524e+02,	 3.3772291848301893e+03,	 4.5311584272358220e+02,	 1.5641241162899284e+00 
1.9095670000000000e+00,	 7.5156270000000003e-01,	 2.1073706163622401e-02,	 7.0751278686888668e+02,	 5.6799495648467669e+01,	 5.5660148039694138e+02,	 3.3745449296590245e+03,	 4.5273297962310113e+02,	 1.5677874235708051e+00 
1.9170360000000000e+00,	 7.5156369999999995e-01,	 2.1083063310752492e-02,	 7.0882630745929453e+02,	 5.8798231276994997e+01,	 5.5533527715253751e+02,	 3.3683631916253003e+03,	 4.5221772914363413e+02,	 1.5728282697790437e+00 
1.9245040000000000e+00,	 7.5156469999999997e-01,	 2.1088423103046938e-02,	 7.1031260143821714e+02,	 6.0873061104377278e+01,	 5.5390705802742445e+02,	 3.3605544994454099e+03,	 4.5163584480029124e+02,	 1.5785199899451370e+00 
1.9319729999999999e+00,	 7.5156570000000000e-01,	 2.1099624200490521e-02,	 7.1183085190592703e+02,	 6.2846221168428769e+01,	 5.5242255987226110e+02,	 3.3533282199314790e+03,	 4.5103023562531899e+02,	 1.5843721731546325e+00 
1.9394420000000001e+00,	 7.5156670000000003e-01,	 2.1124850636389809e-02,	 7.1328420591072836e+02,	 6.4562549358092241e+01,	 5.5097213787064629e+02,	 3.3485225038366661e+03,	 4.5043774159059035e+02,	 1.5900092337880041e+00 
1.9469110000000001e+00,	 7.5156769999999995e-01,	 2.1157777708631680e-02,	 7.1476679249927236e+02,	 6.6104993526876271e+01,	 5.4950332442119475e+02,	 3.3448012097819724e+03,	 4.4983693939469418e+02,	 1.5957274094507723e+00 
1.9543790000000001e+00,	 7.5156869999999998e-01,	 2.1184404669537603e-02,	 7.1644086818973506e+02,	 6.7729944256547668e+01,	 5.4789323255635554e+02,	 3.3391977375873576e+03,	 4.4917742552747768e+02,	 1.6021179787801516e+00 
1.9618480000000000e+00,	 7.5156970000000001e-01,	 2.1199101375455141e-02,	 7.1833650856232111e+02,	 6.9551306253390351e+01,	 5.4610950146161406e+02,	 3.3306356157006917e+03,	 4.4844565438408029e+02,	 1.6093270631352325e+00 
1.9693170000000000e+00,	 7.5157070000000004e-01,	 2.1204537827200512e-02,	 7.2038644145394642e+02,	 7.1481236771217624e+01,	 5.4421011757312135e+02,	 3.3199027350141096e+03,	 4.4766512194548704e+02,	 1.6171109305863973e+00 
1.9767850000000000e+00,	 7.5157169999999995e-01,	 2.1205849364148779e-02,	 7.2250152521373093e+02,	 7.3344195997737117e+01,	 5.4227939708072620e+02,	 3.3083291690593251e+03,	 4.4687031479867574e+02,	 1.6251129236427719e+00 
1.9842540000000000e+00,	 7.5157269999999998e-01,	 2.1206899873572872e-02,	 7.2457232237228095e+02,	 7.5076393418828559e+01,	 5.4040746436835491e+02,	 3.2970722374142238e+03,	 4.4609835636110040e+02,	 1.6329391035471770e+00 
1.9917229999999999e+00,	 7.5157370000000001e-01,	 2.1205998938020758e-02,	 7.2657283922669205e+02,	 7.6749272446050966e+01,	 5.3858932875322444e+02,	 3.2858400375540477e+03,	 4.4534730211264326e+02,	 1.6405514903162668e+00 
1.9991920000000001e+00,	 7.5157470000000004e-01,	 2.1202919088048951e-02,	 7.2852406098737924e+02,	 7.8358836454119711e+01,	 5.3678192666378209e+02,	 3.2743377740149167e+03,	 4.4459942425160131e+02,	 1.6480588506065441e+00 
2.0066600000000001e+00,	 7.5157569999999996e-01,	 2.1197589340645483e-02,	 7.3041979080502063e+02,	 7.9902263285550589e+01,	 5.3497969691419041e+02,	 3.2625239777319998e+03,	 4.4385243188739929e+02,	 1.6554536714864898e+00 
2.0141290000000001e+00,	 7.5157669999999999e-01,	 2.1189885498410777e-02,	 7.3226882456928718e+02,	 8.1349732857533837e+01,	 5.3320359682557535e+02,	 3.2505108333561611e+03,	 4.4311503779990034e+02,	 1.6627141635115517e+00 
2.0215980000000000e+00,	 7.5157770000000002e-01,	 2.1176264038184588e-02,	 7.3408051202514002e+02,	 8.2694756910827451e+01,	 5.3150568832338740e+02,	 3.2380771923434886e+03,	 4.4240895788773008e+02,	 1.6697755097040425e+00 
2.0290670000000000e+00,	 7.5157870000000004e-01,	 2.1158681176655644e-02,	 7.3583213760178637e+02,	 8.3956953662177312e+01,	 5.2988666852721428e+02,	 3.2255332657063404e+03,	 4.4173463288456736e+02,	 1.6765864701909299e+00 
2.0365350000000002e+00,	 7.5157969999999996e-01,	 2.1139451063150495e-02,	 7.3753906043990867e+02,	 8.5129471298977251e+01,	 5.2834046908991456e+02,	 3.2131982408854442e+03,	 4.4108967532838182e+02,	 1.6831855855724185e+00 
2.0440040000000002e+00,	 7.5158069999999999e-01,	 2.1119606553439071e-02,	 7.3921225813578474e+02,	 8.6211876131253518e+01,	 5.2687872645374750e+02,	 3.2013003665674796e+03,	 4.4047907837485997e+02,	 1.6895753228710266e+00 
2.0514730000000001e+00,	 7.5158170000000002e-01,	 2.1099190395170740e-02,	 7.4085464513142335e+02,	 8.7211373565894746e+01,	 5.2550820124181780e+02,	 3.1898864717279744e+03,	 4.3990581479084761e+02,	 1.6957496375895031e+00 
2.0589409999999999e+00,	 7.5158270000000005e-01,	 2.1077514841060810e-02,	 7.4246173287803049e+02,	 8.8138763064429895e+01,	 5.2422727610452330e+02,	 3.1788420937227079e+03,	 4.3936935293521913e+02,	 1.7017003319315533e+00 
2.0664099999999999e+00,	 7.5158369999999997e-01,	 2.1053622724981225e-02,	 7.4402470271742845e+02,	 8.9005190432253869e+01,	 5.2302949222519442e+02,	 3.1679837990497676e+03,	 4.3886711801873207e+02,	 1.7074177071579275e+00 
2.0738789999999998e+00,	 7.5158480000000005e-01,	 2.1026738826853859e-02,	 7.4553410257068867e+02,	 8.9820073759103551e+01,	 5.2190465805402800e+02,	 3.1571341130004466e+03,	 4.3839494729212288e+02,	 1.7128966998065465e+00 
2.0813480000000002e+00,	 7.5158579999999997e-01,	 2.0996417799454051e-02,	 7.4698226828141264e+02,	 9.0590395833731677e+01,	 5.2083901928134821e+02,	 3.1461444306108456e+03,	 4.3794715538176661e+02,	 1.7181419966392211e+00 
2.0888160000000000e+00,	 7.5158680000000000e-01,	 2.0962493005200929e-02,	 7.4836728735554857e+02,	 9.1319401346172356e+01,	 5.1982144466020327e+02,	 3.1349243129466681e+03,	 4.3751913273640520e+02,	 1.7231665116893302e+00 
2.0962850000000000e+00,	 7.5158780000000003e-01,	 2.0924908450941467e-02,	 7.4969391787754262e+02,	 9.2009450439563651e+01,	 5.1884512770378342e+02,	 3.1234261848183464e+03,	 4.3710807033185694e+02,	 1.7279913064841179e+00 
2.1037539999999999e+00,	 7.5158879999999995e-01,	 2.0883541270244263e-02,	 7.5096864220949169e+02,	 9.2665896545715071e+01,	 5.1790422642938779e+02,	 3.1115983857663973e+03,	 4.3671155300430462e+02,	 1.7326409147330886e+00 
2.1112220000000002e+00,	 7.5158979999999997e-01,	 2.0838364065420209e-02,	 7.5219993005439687e+02,	 9.3296763591496543e+01,	 5.1699236764571663e+02,	 3.0994004403874778e+03,	 4.3632693101926304e+02,	 1.7371463444743762e+00 
2.1186910000000001e+00,	 7.5159080000000000e-01,	 2.0789711090041851e-02,	 7.5340092162070312e+02,	 9.3909207851623535e+01,	 5.1610498450474176e+02,	 3.0868565305932407e+03,	 4.3595230706380556e+02,	 1.7415462747590400e+00 
2.1261600000000000e+00,	 7.5159180000000003e-01,	 2.0738073700057827e-02,	 7.5458521423190405e+02,	 9.4508904674632618e+01,	 5.1523887267428654e+02,	 3.0740220074953936e+03,	 4.3558635245441786e+02,	 1.7458779852417685e+00 