TITLE = "Final State"
VARIABLES = "X", "Y", "rho", "u", "v", "T", "p", "c", "M"
ZONE I=77, J=27, DATAPACKING=POINT
-5.0000000000000000e-01,	 1.0000000000000000e-04,	 1.1586407740522199e-02,	 1.7360000000000000e+03,	 -3.2668032511235197e-15,	 3.0000000000000000e+02,	 1.0000000000000000e+03,	 3.3237670711487283e+02,	 5.2229893456403387e+00 
-4.9444440000000001e-01,	 1.0000000000000000e-04,	 1.1586407740522199e-02,	 1.7360000000000000e+03,	 5.5414451376600676e-15,	 3.0000000000000000e+02,	 1.0000000000000000e+03,	 3.3237670711487283e+02,	 5.2229893456403387e+00 
-4.8888890000000002e-01,	 1.0000000000000000e-04,	 1.1586407740522199e-02,	 1.7360000000000000e+03,	 -1.4853909196712328e-16,	 3.0000000000000000e+02,	 1.0000000000000000e+03,	 3.3237670711487283e+02,	 5.2229893456403387e+00 
-4.8333330000000002e-01,	 1.0000000000000000e-04,	 1.1586407740522199e-02,	 1.7360000000000000e+03,	 6.1187389331135045e-16,	 3.0000000000000000e+02,	 1.0000000000000000e+03,	 3.3237670711487283e+02,	 5.2229893456403387e+00 
-4.7777779999999997e-01,	 1.0000000000000000e-04,	 1.1586407740522199e-02,	 1.7360000000000000e+03,	 -9.9605151570581023e-16,	 3.0000000000000000e+02,	 1.0000000000000000e+03,	 3.3237670711487283e+02,	 5.2229893456403387e+00 
-4.7222219999999998e-01,	 1.0000000000000000e-04,	 1.1586407740522199e-02,	 1.7360000000000000e+03,	 -1.2767787268637733e-14,	 3.0000000000000000e+02,	 1.0000000000000000e+03,	 3.3237670711487283e+02,	 5.2229893456403387e+00 
-4.6666669999999999e-01,	 1.0000000000000000e-04,	 1.1586407740522199e-02,	 1.7360000000000000e+03,	 1.8466922679381894e-15,	 3.0000000000000000e+02,	 1.0000000000000000e+03,	 3.3237670711487283e+02,	 5.2229893456403387e+00 
-4.6111110000000000e-01,	 1.0000000000000000e-04,	 1.1586407740522199e-02,	 1.7360000000000000e+03,	 1.5020272759294859e-14,	 3.0000000000000000e+02,	 1.0000000000000000e+03,	 3.3237670711487283e+02,	 5.2229893456403387e+00 
-4.5555560000000000e-01,	 1.0000000000000000e-04,	 1.1586407740522199e-02,	 1.7360000000000000e+03,	 1.6035097304640486e-14,	 3.0000000000000000e+02,	 1.0000000000000000e+03,	 3.3237670711487283e+02,	 5.2229893456403387e+00 
-4.5000000000000001e-01,	 1.0000000000000000e-04,	 1.1586407740522199e-02,	 1.7360000000000000e+03,	 -1.0284298624935042e-15,	 3.0000000000000000e+02,	 1.0000000000000000e+03,	 3.3237670711487283e+02,	 5.2229893456403387e+00 
-4.4444440000000002e-01,	 1.0000000000000000e-04,	 1.1586407740522199e-02,	 1.7360000000000000e+03,	 -1.8455739729934303e-14,	 3.0000000000000000e+02,	 1.0000000000000000e+03,	 3.3237670711487283e+02,	 5.2229893456403387e+00 
-4.3888890000000003e-01,	 1.0000000000000000e-04,	 1.1586407740522199e-02,	 1.7360000000000000e+03,	 -1.5486766636395017e-15,	 3.0000000000000000e+02,	 1.0000000000000000e+03,	 3.3237670711487283e+02,	 5.2229893456403387e+00 
-4.3333329999999998e-01,	 1.0000000000000000e-04,	 1.1586407740522199e-02,	 1.7360000000000000e+03,	 1.6874224108625530e-14,	 3.0000000000000000e+02,	 1.0000000000000000e+03,	 3.3237670711487283e+02,	 5.2229893456403387e+00 
-4.2777779999999999e-01,	 1.0000000000000000e-04,	 1.1586407740522199e-02,	 1.7360000000000000e+03,	 8.4761810749295478e-17,	 3.0000000000000000e+02,	 1.0000000000000000e+03,	 3.3237670711487283e+02,	 5.2229893456403387e+00 
-4.2222219999999999e-01,	 1.0000000000000000e-04,	 1.1586407740522199e-02,	 1.7360000000000000e+03,	 8.2613431556799157e-16,	 3.0000000000000000e+02,	 1.0000000000000000e+03,	 3.3237670711487283e+02,	 5.2229893456403387e+00 
-4.1666670000000000e-01,	 1.0000000000000000e-04,	 1.1586407740522199e-02,	 1.7360000000000000e+03,	 1.8581517780377425e-14,	 3.0000000000000000e+02,	 1.0000000000000000e+03,	 3.3237670711487283e+02,	 5.2229893456403387e+00 
-4.1111110000000001e-01,	 1.0000000000000000e-04,	 1.1586407740522199e-02,	 1.7360000000000000e+03,	 5.9094181234896367e-15,	 3.0000000000000000e+02,	 1.0000000000000000e+03,	 3.3237670711487283e+02,	 5.2229893456403387e+00 
-4.0555560000000002e-01,	 1.0000000000000000e-04,	 1.1586407740522199e-02,	 1.7360000000000000e+03,	 1.2562195261444327e-15,	 3.0000000000000000e+02,	 1.0000000000000000e+03,	 3.3237670711487283e+02,	 5.2229893456403387e+00 
-4.0000000000000002e-01,	 1.0000000000000000e-04,	 1.1586407740522199e-02,	 1.7360000000000000e+03,	 -3.5967199468748398e-15,	 3.0000000000000000e+02,	 1.0000000000000000e+03,	 3.3237670711487283e+02,	 5.2229893456403387e+00 
-3.9444439999999997e-01,	 1.0000000000000000e-04,	 1.1586407740522199e-02,	 1.7360000000000000e+03,	 2.1999883507934268e-16,	 3.0000000000000000e+02,	 1.0000000000000000e+03,	 3.3237670711487283e+02,	 5.2229893456403387e+00 
-3.8888889999999998e-01,	 1.0000000000000000e-04,	 1.1586407740522199e-02,	 1.7360000000000000e+03,	 -1.2788719995390321e-15,	 3.0000000000000000e+02,	 1.0000000000000000e+03,	 3.3237670711487283e+02,	 5.2229893456403387e+00 
-3.8333329999999999e-01,	 1.0000000000000000e-04,	 1.1586407740522199e-02,	 1.7360000000000000e+03,	 -1.1114017136438428e-15,	 3.0000000000000000e+02,	 1.0000000000000000e+03,	 3.3237670711487283e+02,	 5.2229893456403387e+00 
-3.7777780000000000e-01,	 1.0000000000000000e-04,	 1.1586407740522199e-02,	 1.7360000000000000e+03,	 1.9555861155816807e-14,	 3.0000000000000000e+02,	 1.0000000000000000e+03,	 3.3237670711487283e+02,	 5.2229893456403387e+00 
-3.7222220000000000e-01,	 1.0000000000000000e-04,	 1.1586407740522199e-02,	 1.7360000000000000e+03,	 -7.0801627827101874e-16,	 3.0000000000000000e+02,	 1.0000000000000000e+03,	 3.3237670711487283e+02,	 5.2229893456403387e+00 
-3.6666670000000001e-01,	 1.0000000000000000e-04,	 1.1586407740522199e-02,	 1.7360000000000000e+03,	 -2.3949792513850625e-15,	 3.0000000000000000e+02,	 1.0000000000000000e+03,	 3.3237670711487283e+02,	 5.2229893456403387e+00 
-3.6111110000000002e-01,	 1.0000000000000000e-04,	 1.1586407740522199e-02,	 1.7360000000000000e+03,	 1.5286349000201416e-14,	 3.0000000000000000e+02,	 1.0000000000000000e+03,	 3.3237670711487283e+02,	 5.2229893456403387e+00 
-3.5555560000000003e-01,	 1.0000000000000000e-04,	 1.1586407740522199e-02,	 1.7360000000000000e+03,	 2.1657639383533420e-15,	 3.0000000000000000e+02,	 1.0000000000000000e+03,	 3.3237670711487283e+02,	 5.2229893456403387e+00 
-3.4999999999999998e-01,	 1.0000000000000000e-04,	 1.1586407740522199e-02,	 1.7360000000000000e+03,	 -2.8139271209629523e-16,	 3.0000000000000000e+02,	 1.0000000000000000e+03,	 3.3237670711487283e+02,	 5.2229893456403387e+00 
-3.4444439999999998e-01,	 1.0000000000000000e-04,	 1.1586407740522199e-02,	 1.7360000000000000e+03,	 4.1146109856499692e-16,	 3.0000000000000000e+02,	 1.0000000000000000e+03,	 3.3237670711487283e+02,	 5.2229893456403387e+00 
-3.3888889999999999e-01,	 1.0000000000000000e-04,	 1.1586407740522199e-02,	 1.7360000000000000e+03,	 -1.5345564667769238e-14,	 3.0000000000000000e+02,	 1.0000000000000000e+03,	 3.3237670711487283e+02,	 5.2229893456403387e+00 
-3.3333330000000000e-01,	 1.0000000000000000e-04,	 1.1586407740522199e-02,	 1.7360000000000000e+03,	 -1.3747724956916934e-15,	 3.0000000000000000e+02,	 1.0000000000000000e+03,	 3.3237670711487283e+02,	 5.2229893456403387e+00 
-3.2777780000000001e-01,	 1.0000000000000000e-04,	 1.1586407740522199e-02,	 1.7360000000000000e+03,	 -1.8712325125510844e-16,	 3.0000000000000000e+02,	 1.0000000000000000e+03,	 3.3237670711487283e+02,	 5.2229893456403387e+00 
-3.2222220000000001e-01,	 1.0000000000000000e-04,	 1.1586407740522199e-02,	 1.7360000000000000e+03,	 -1.4797110328068138e-14,	 3.0000000000000000e+02,	 1.0000000000000000e+03,	 3.3237670711487283e+02,	 5.2229893456403387e+00 
-3.1666670000000002e-01,	 1.0000000000000000e-04,	 1.1586407740522199e-02,	 1.7360000000000000e+03,	 8.4533825680404834e-16,	 3.0000000000000000e+02,	 1.0000000000000000e+03,	 3.3237670711487283e+02,	 5.2229893456403387e+00 
-3.1111109999999997e-01,	 1.0000000000000000e-04,	 1.1586407740522199e-02,	 1.7360000000000000e+03,	 -6.5388966633391816e-16,	 3.0000000000000000e+02,	 1.0000000000000000e+03,	 3.3237670711487283e+02,	 5.2229893456403387e+00 
-3.0555559999999998e-01,	 1.0000000000000000e-04,	 1.1586407740522199e-02,	 1.7360000000000000e+03,	 -1.0060729677372208e-15,	 3.0000000000000000e+02,	 1.0000000000000000e+03,	 3.3237670711487283e+02,	 5.2229893456403387e+00 
-2.9999999999999999e-01,	 1.0000000000000000e-04,	 1.1586407740522199e-02,	 1.7360000000000000e+03,	 -3.7910504907979650e-15,	 3.0000000000000000e+02,	 1.0000000000000000e+03,	 3.3237670711487283e+02,	 5.2229893456403387e+00 
-2.9444440000000000e-01,	 1.0000000000000000e-04,	 1.1586407740522199e-02,	 1.7360000000000000e+03,	 -1.8891956779583185e-14,	 3.0000000000000000e+02,	 1.0000000000000000e+03,	 3.3237670711487283e+02,	 5.2229893456403387e+00 
-2.8888890000000000e-01,	 1.0000000000000000e-04,	 1.1586407740522199e-02,	 1.7360000000000000e+03,	 -1.6413135167318465e-14,	 3.0000000000000000e+02,	 1.0000000000000000e+03,	 3.3237670711487283e+02,	 5.2229893456403387e+00 
-2.8333330000000001e-01,	 1.0000000000000000e-04,	 1.1586407740522199e-02,	 1.7360000000000000e+03,	 -2.5511877972416042e-15,	 3.0000000000000000e+02,	 1.0000000000000000e+03,	 3.3237670711487283e+02,	 5.2229893456403387e+00 
-2.7777780000000002e-01,	 1.0000000000000000e-04,	 1.1586407740522199e-02,	 1.7360000000000000e+03,	 1.7740830864556808e-14,	 3.0000000000000000e+02,	 1.0000000000000000e+03,	 3.3237670711487283e+02,	 5.2229893456403387e+00 
-2.7222220000000003e-01,	 1.0000000000000000e-04,	 1.1586407740522199e-02,	 1.7360000000000000e+03,	 1.4470392340222054e-15,	 3.0000000000000000e+02,	 1.0000000000000000e+03,	 3.3237670711487283e+02,	 5.2229893456403387e+00 
-2.6666669999999998e-01,	 1.0000000000000000e-04,	 1.1586407740522199e-02,	 1.7360000000000000e+03,	 -2.1728525661280476e-14,	 3.0000000000000000e+02,	 1.0000000000000000e+03,	 3.3237670711487283e+02,	 5.2229893456403387e+00 
-2.6111109999999998e-01,	 1.0000000000000000e-04,	 1.1586407740522199e-02,	 1.7360000000000000e+03,	 -2.2511056443536336e-14,	 3.0000000000000000e+02,	 1.0000000000000000e+03,	 3.3237670711487283e+02,	 5.2229893456403387e+00 
-2.5555559999999999e-01,	 1.0000000000000000e-04,	 1.1586407740522199e-02,	 1.7360000000000000e+03,	 1.7141132633440863e-16,	 3.0000000000000000e+02,	 1.0000000000000000e+03,	 3.3237670711487283e+02,	 5.2229893456403387e+00 
-2.5000000000000000e-01,	 1.0000000000000000e-04,	 1.1586407740522199e-02,	 1.7360000000000000e+03,	 -1.3935353544816642e-16,	 3.0000000000000000e+02,	 1.0000000000000000e+03,	 3.3237670711487283e+02,	 5.2229893456403387e+00 
-2.4444440000000001e-01,	 1.0000000000000000e-04,	 1.1586407740522199e-02,	 1.7360000000000000e+03,	 -3.7255818602337968e-15,	 3.0000000000000000e+02,	 1.0000000000000000e+03,	 3.3237670711487283e+02,	 5.2229893456403387e+00 
-2.3888889999999999e-01,	 1.0000000000000000e-04,	 1.1586407740522199e-02,	 1.7360000000000000e+03,	 1.0529914486601243e-14,	 3.0000000000000000e+02,	 1.0000000000000000e+03,	 3.3237670711487283e+02,	 5.2229893456403387e+00 
-2.3333329999999999e-01,	 1.0000000000000000e-04,	 1.1586407740522199e-02,	 1.7360000000000000e+03,	 -5.3378469897600903e-15,	 3.0000000000000000e+02,	 1.0000000000000000e+03,	 3.3237670711487283e+02,	 5.2229893456403387e+00 
-2.2777780000000000e-01,	 1.0000000000000000e-04,	 1.1586407740522199e-02,	 1.7360000000000000e+03,	 -1.5468577133400822e-14,	 3.0000000000000000e+02,	 1.0000000000000000e+03,	 3.3237670711487283e+02,	 5.2229893456403387e+00 
-2.2222220000000001e-01,	 1.0000000000000000e-04,	 1.1586407740522199e-02,	 1.7360000000000000e+03,	 -1.4671985976286969e-14,	 3.0000000000000000e+02,	 1.0000000000000000e+03,	 3.3237670711487283e+02,	 5.2229893456403387e+00 
-2.1666669999999999e-01,	 1.0000000000000000e-04,	 1.1586407740522199e-02,	 1.7360000000000000e+03,	 2.1075133496853182e-15,	 3.0000000000000000e+02,	 1.0000000000000000e+03,	 3.3237670711487283e+02,	 5.2229893456403387e+00 
-2.1111110000000000e-01,	 1.0000000000000000e-04,	 1.1586407740522199e-02,	 1.7360000000000000e+03,	 1.9152759039762576e-14,	 3.0000000000000000e+02,	 1.0000000000000000e+03,	 3.3237670711487283e+02,	 5.2229893456403387e+00 
-2.0555560000000000e-01,	 1.0000000000000000e-04,	 1.1586407740522199e-02,	 1.7360000000000000e+03,	 2.0678667211345003e-14,	 3.0000000000000000e+02,	 1.0000000000000000e+03,	 3.3237670711487283e+02,	 5.2229893456403387e+00 
-2.0000000000000001e-01,	 1.0000000000000000e-04,	 1.1586407740522199e-02,	 1.7360000000000000e+03,	 1.3489772404064678e-14,	 3.0000000000000000e+02,	 1.0000000000000000e+03,	 3.3237670711487283e+02,	 5.2229893456403387e+00 
-1.9444439999999999e-01,	 1.0000000000000000e-04,	 1.1586407740522199e-02,	 1.7360000000000000e+03,	 -1.0193408147946095e-14,	 3.0000000000000000e+02,	 1.0000000000000000e+03,	 3.3237670711487283e+02,	 5.2229893456403387e+00 
-1.8888890000000000e-01,	 1.0000000000000000e-04,	 1.1586407740522199e-02,	 1.7360000000000000e+03,	 -7.1633421601820097e-15,	 3.0000000000000000e+02,	 1.0000000000000000e+03,	 3.3237670711487283e+02,	 5.2229893456403387e+00 
-1.8333330000000000e-01,	 1.0000000000000000e-04,	 1.1586407740522199e-02,	 1.7360000000000000e+03,	 -5.9351731643712865e-15,	 3.0000000000000000e+02,	 1.0000000000000000e+03,	 3.3237670711487283e+02,	 5.2229893456403387e+00 
-1.7777780000000001e-01,	 1.0000000000000000e-04,	 1.1586407740522199e-02,	 1.7360000000000000e+03,	 -1.4341525397567278e-14,	 3.0000000000000000e+02,	 1.0000000000000000e+03,	 3.3237670711487283e+02,	 5.2229893456403387e+00 
-1.7222219999999999e-01,	 1.0000000000000000e-04,	 1.1586407740522199e-02,	 1.7360000000000000e+03,	 2.5617820674695267e-15,	 3.0000000000000000e+02,	 1.0000000000000000e+03,	 3.3237670711487283e+02,	 5.2229893456403387e+00 
-1.6666670000000000e-01,	 1.0000000000000000e-04,	 1.1586407740522199e-02,	 1.7360000000000000e+03,	 -1.2074709781975093e-16,	 3.0000000000000000e+02,	 1.0000000000000000e+03,	 3.3237670711487283e+02,	 5.2229893456403387e+00 
-1.6111110000000001e-01,	 1.0000000000000000e-04,	 1.1586407740522199e-02,	 1.7360000000000000e+03,	 -3.0592721798475354e-15,	 3.0000000000000000e+02,	 1.0000000000000000e+03,	 3.3237670711487283e+02,	 5.2229893456403387e+00 
-1.5555559999999999e-01,	 1.0000000000000000e-04,	 1.1586407740522199e-02,	 1.7360000000000000e+03,	 1.7971875368001165e-14,	 3.0000000000000000e+02,	 1.0000000000000000e+03,	 3.3237670711487283e+02,	 5.2229893456403387e+00 
-1.4999999999999999e-01,	 1.0000000000000000e-04,	 1.1586407740522199e-02,	 1.7360000000000000e+03,	 -7.7564849259454791e-18,	 3.0000000000000000e+02,	 1.0000000000000000e+03,	 3.3237670711487283e+02,	 5.2229893456403387e+00 
-1.4444440000000000e-01,	 1.0000000000000000e-04,	 1.1586407740522199e-02,	 1.7360000000000000e+03,	 -4.8385524616146595e-16,	 3.0000000000000000e+02,	 1.0000000000000000e+03,	 3.3237670711487283e+02,	 5.2229893456403387e+00 
-1.3888890000000001e-01,	 1.0000000000000000e-04,	 1.1586407740522199e-02,	 1.7360000000000000e+03,	 -4.9775220168717335e-15,	 3.0000000000000000e+02,	 1.0000000000000000e+03,	 3.3237670711487283e+02,	 5.2229893456403387e+00 
-1.3333329999999999e-01,	 1.0000000000000000e-04,	 1.1586407740522199e-02,	 1.7360000000000000e+03,	 -2.9940363013486625e-15,	 3.0000000000000000e+02,	 1.0000000000000000e+03,	 3.3237670711487283e+02,	 5.2229893456403387e+00 
-1.2777780000000000e-01,	 1.0000000000000000e-04,	 1.1586407740522199e-02,	 1.7360000000000000e+03,	 -4.1493385975932824e-15,	 3.0000000000000000e+02,	 1.0000000000000000e+03,	 3.3237670711487283e+02,	 5.2229893456403387e+00 
-1.2222220000000000e-01,	 1.0000000000000000e-04,	 1.1586407740522199e-02,	 1.7360000000000000e+03,	 -8.7516911502306951e-15,	 3.0000000000000000e+02,	 1.0000000000000000e+03,	 3.3237670711487283e+02,	 5.2229893456403387e+00 
-1.1666670000000000e-01,	 1.0000000000000000e-04,	 1.1586407740522199e-02,	 1.7360000000000000e+03,	 9.9936823549364469e-15,	 3.0000000000000000e+02,	 1.0000000000000000e+03,	 3.3237670711487283e+02,	 5.2229893456403387e+00 
-1.1111110000000000e-01,	 1.0000000000000000e-04,	 1.1586407740522199e-02,	 1.7360000000000000e+03,	 -2.5982638186260913e-15,	 3.0000000000000000e+02,	 1.0000000000000000e+03,	 3.3237670711487283e+02,	 5.2229893456403387e+00 
-1.0555560000000000e-01,	 1.0000000000000000e-04,	 1.1586407740522199e-02,	 1.7360000000000000e+03,	 -4.1991365140832542e-15,	 3.0000000000000000e+02,	 1.0000000000000000e+03,	 3.3237670711487283e+02,	 5.2229893456403387e+00 
-1.0000000000000001e-01,	 1.0000000000000000e-04,	 1.1586407740522199e-02,	 1.7360000000000000e+03,	 -3.6606832895224311e-15,	 3.0000000000000000e+02,	 1.0000000000000000e+03,	 3.3237670711487283e+02,	 5.2229893456403387e+00 
-9.4444440000000004e-02,	 1.0000000000000000e-04,	 1.1586407740522199e-02,	 1.7360000000000000e+03,	 -3.5345608242916852e-16,	 3.0000000000000000e+02,	 1.0000000000000000e+03,	 3.3237670711487283e+02,	 5.2229893456403387e+00 
-8.8888889999999998e-02,	 1.0000000000000000e-04,	 1.1586407740522199e-02,	 1.7360000000000000e+03,	 1.2398566745250476e-15,	 3.0000000000000000e+02,	 1.0000000000000000e+03,	 3.3237670711487283e+02,	 5.2229893456403387e+00 
-8.3333329999999997e-02,	 1.0000000000000000e-04,	 1.1586407740522199e-02,	 1.7360000000000000e+03,	 -3.0496787771825301e-15,	 3.0000000000000000e+02,	 1.0000000000000000e+03,	 3.3237670711487283e+02,	 5.2229893456403387e+00 
-7.7777780000000005e-02,	 1.0000000000000000e-04,	 1.1586407740522199e-02,	 1.7360000000000000e+03,	 -2.3142145952735818e-15,	 3.0000000000000000e+02,	 1.0000000000000000e+03,	 3.3237670711487283e+02,	 5.2229893456403387e+00 
-5.0000000000000000e-01,	 6.1388000000000007e-03,	 1.1586407740522199e-02,	 1.7360000000000000e+03,	 6.1838388381654899e-16,	 3.0000000000000000e+02,	 1.0000000000000000e+03,	 3.3237670711487283e+02,	 5.2229893456403387e+00 
-4.9446560000000001e-01,	 6.1388000000000007e-03,	 1.1586407740522199e-02,	 1.7360000000000000e+03,	 -8.3918810238605812e-15,	 3.0000000000000000e+02,	 1.0000000000000000e+03,	 3.3237670711487283e+02,	 5.2229893456403387e+00 
-4.8893120000000001e-01,	 6.1388000000000007e-03,	 1.1586407740522199e-02,	 1.7360000000000000e+03,	 -5.5194083384617139e-15,	 3.0000000000000000e+02,	 1.0000000000000000e+03,	 3.3237670711487283e+02,	 5.2229893456403387e+00 
-4.8339680000000002e-01,	 6.1388000000000007e-03,	 1.1586407740522199e-02,	 1.7360000000000000e+03,	 -7.3313456841677189e-15,	 3.0000000000000000e+02,	 1.0000000000000000e+03,	 3.3237670711487283e+02,	 5.2229893456403387e+00 
-4.7786240000000002e-01,	 6.1388000000000007e-03,	 1.1586407740522199e-02,	 1.7360000000000000e+03,	 -6.6863895674690024e-15,	 3.0000000000000000e+02,	 1.0000000000000000e+03,	 3.3237670711487283e+02,	 5.2229893456403387e+00 
-4.7232800000000003e-01,	 6.1388000000000007e-03,	 1.1586407740522199e-02,	 1.7360000000000000e+03,	 -1.3669944186169053e-15,	 3.0000000000000000e+02,	 1.0000000000000000e+03,	 3.3237670711487283e+02,	 5.2229893456403387e+00 
-4.6679359999999998e-01,	 6.1388000000000007e-03,	 1.1586407740522199e-02,	 1.7360000000000000e+03,	 -8.9257567170648930e-15,	 3.0000000000000000e+02,	 1.0000000000000000e+03,	 3.3237670711487283e+02,	 5.2229893456403387e+00 
-4.6125919999999998e-01,	 6.1388000000000007e-03,	 1.1586407740522199e-02,	 1.7360000000000000e+03,	 -1.5661641544535579e-14,	 3.0000000000000000e+02,	 1.0000000000000000e+03,	 3.3237670711487283e+02,	 5.2229893456403387e+00 
-4.5572479999999999e-01,	 6.1388000000000007e-03,	 1.1586407740522199e-02,	 1.7360000000000000e+03,	 -1.5595149344478783e-14,	 3.0000000000000000e+02,	 1.0000000000000000e+03,	 3.3237670711487283e+02,	 5.2229893456403387e+00 
-4.5019039999999999e-01,	 6.1388000000000007e-03,	 1.1586407740522199e-02,	 1.7360000000000000e+03,	 -1.0127749600042433e-14,	 3.0000000000000000e+02,	 1.0000000000000000e+03,	 3.3237670711487283e+02,	 5.2229893456403387e+00 
-4.4465600000000000e-01,	 6.1388000000000007e-03,	 1.1586407740522199e-02,	 1.7360000000000000e+03,	 -3.0032182589581737e-15,	 3.0000000000000000e+02,	 1.0000000000000000e+03,	 3.3237670711487283e+02,	 5.2229893456403387e+00 
-4.3912160000000000e-01,	 6.1388000000000007e-03,	 1.1586407740522199e-02,	 1.7360000000000000e+03,	 -1.0032539676504345e-14,	 3.0000000000000000e+02,	 1.0000000000000000e+03,	 3.3237670711487283e+02,	 5.2229893456403387e+00 
-4.3358710000000000e-01,	 6.1388000000000007e-03,	 1.1586407740522199e-02,	 1.7360000000000000e+03,	 -1.7359321036687561e-14,	 3.0000000000000000e+02,	 1.0000000000000000e+03,	 3.3237670711487283e+02,	 5.2229893456403387e+00 
-4.2805270000000001e-01,	 6.1388000000000007e-03,	 1.1586407740522199e-02,	 1.7360000000000000e+03,	 -7.6403660440118766e-15,	 3.0000000000000000e+02,	 1.0000000000000000e+03,	 3.3237670711487283e+02,	 5.2229893456403387e+00 
-4.2251830000000001e-01,	 6.1388000000000007e-03,	 1.1586407740522199e-02,	 1.7360000000000000e+03,	 -9.1673252070185293e-15,	 3.0000000000000000e+02,	 1.0000000000000000e+03,	 3.3237670711487283e+02,	 5.2229893456403387e+00 
-4.1698390000000002e-01,	 6.1388000000000007e-03,	 1.1586407740522199e-02,	 1.7360000000000000e+03,	 -2.2899519814381692e-14,	 3.0000000000000000e+02,	 1.0000000000000000e+03,	 3.3237670711487283e+02,	 5.2229893456403387e+00 
-4.1144950000000002e-01,	 6.1388000000000007e-03,	 1.1586407740522199e-02,	 1.7360000000000000e+03,	 -6.3954513004544415e-15,	 3.0000000000000000e+02,	 1.0000000000000000e+03,	 3.3237670711487283e+02,	 5.2229893456403387e+00 
-4.0591509999999997e-01,	 6.1388000000000007e-03,	 1.1586407740522199e-02,	 1.7360000000000000e+03,	 -5.2572976980884292e-15,	 3.0000000000000000e+02,	 1.0000000000000000e+03,	 3.3237670711487283e+02,	 5.2229893456403387e+00 
-4.0038069999999998e-01,	 6.1388000000000007e-03,	 1.1586407740522199e-02,	 1.7360000000000000e+03,	 -7.5694243342308557e-15,	 3.0000000000000000e+02,	 1.0000000000000000e+03,	 3.3237670711487283e+02,	 5.2229893456403387e+00 
-3.9484629999999998e-01,	 6.1388000000000007e-03,	 1.1586407740522199e-02,	 1.7360000000000000e+03,	 -6.2782457352155931e-15,	 3.0000000000000000e+02,	 1.0000000000000000e+03,	 3.3237670711487283e+02,	 5.2229893456403387e+00 
-3.8931189999999999e-01,	 6.1388000000000007e-03,	 1.1586407740522199e-02,	 1.7360000000000000e+03,	 -1.0684492796460768e-14,	 3.0000000000000000e+02,	 1.0000000000000000e+03,	 3.3237670711487283e+02,	 5.2229893456403387e+00 
-3.8377749999999999e-01,	 6.1388000000000007e-03,	 1.1586407740522199e-02,	 1.7360000000000000e+03,	 -1.2861635316258455e-14,	 3.0000000000000000e+02,	 1.0000000000000000e+03,	 3.3237670711487283e+02,	 5.2229893456403387e+00 
-3.7824310000000000e-01,	 6.1388000000000007e-03,	 1.1586407740522199e-02,	 1.7360000000000000e+03,	 -2.3183823058565502e-14,	 3.0000000000000000e+02,	 1.0000000000000000e+03,	 3.3237670711487283e+02,	 5.2229893456403387e+00 
-3.7270870000000000e-01,	 6.1388000000000007e-03,	 1.1586407740522199e-02,	 1.7360000000000000e+03,	 -1.3906024697616755e-14,	 3.0000000000000000e+02,	 1.0000000000000000e+03,	 3.3237670711487283e+02,	 5.2229893456403387e+00 
-3.6717430000000001e-01,	 6.1388000000000007e-03,	 1.1586407740522199e-02,	 1.7360000000000000e+03,	 -8.4069354926878133e-15,	 3.0000000000000000e+02,	 1.0000000000000000e+03,	 3.3237670711487283e+02,	 5.2229893456403387e+00 
-3.6163990000000001e-01,	 6.1388000000000007e-03,	 1.1586407740522199e-02,	 1.7360000000000000e+03,	 -1.9815803433423297e-14,	 3.0000000000000000e+02,	 1.0000000000000000e+03,	 3.3237670711487283e+02,	 5.2229893456403387e+00 
-3.5610550000000002e-01,	 6.1388000000000007e-03,	 1.1586407740522199e-02,	 1.7360000000000000e+03,	 -8.9978119203286038e-15,	 3.0000000000000000e+02,	 1.0000000000000000e+03,	 3.3237670711487283e+02,	 5.2229893456403387e+00 
-3.5057110000000002e-01,	 6.1388000000000007e-03,	 1.1586407740522199e-02,	 1.7360000000000000e+03,	 -4.5718695953589088e-15,	 3.0000000000000000e+02,	 1.0000000000000000e+03,	 3.3237670711487283e+02,	 5.2229893456403387e+00 
-3.4503669999999997e-01,	 6.1388000000000007e-03,	 1.1586407740522199e-02,	 1.7360000000000000e+03,	 -6.7038498581170319e-15,	 3.0000000000000000e+02,	 1.0000000000000000e+03,	 3.3237670711487283e+02,	 5.2229893456403387e+00 
-3.3950229999999998e-01,	 6.1388000000000007e-03,	 1.1586407740522199e-02,	 1.7360000000000000e+03,	 -2.2911206781665191e-15,	 3.0000000000000000e+02,	 1.0000000000000000e+03,	 3.3237670711487283e+02,	 5.2229893456403387e+00 
-3.3396789999999998e-01,	 6.1388000000000007e-03,	 1.1586407740522199e-02,	 1.7360000000000000e+03,	 -9.2420591943870845e-15,	 3.0000000000000000e+02,	 1.0000000000000000e+03,	 3.3237670711487283e+02,	 5.2229893456403387e+00 
-3.2843349999999999e-01,	 6.1388000000000007e-03,	 1.1586407740522199e-02,	 1.7360000000000000e+03,	 -8.6538488881493207e-15,	 3.0000000000000000e+02,	 1.0000000000000000e+03,	 3.3237670711487283e+02,	 5.2229893456403387e+00 
-3.2289909999999999e-01,	 6.1388000000000007e-03,	 1.1586407740522199e-02,	 1.7360000000000000e+03,	 2.7356191506165341e-15,	 3.0000000000000000e+02,	 1.0000000000000000e+03,	 3.3237670711487283e+02,	 5.2229893456403387e+00 
-3.1736470000000000e-01,	 6.1388000000000007e-03,	 1.1586407740522199e-02,	 1.7360000000000000e+03,	 -7.7939918761799757e-15,	 3.0000000000000000e+02,	 1.0000000000000000e+03,	 3.3237670711487283e+02,	 5.2229893456403387e+00 
-3.1183020000000000e-01,	 6.1388000000000007e-03,	 1.1586407740522199e-02,	 1.7360000000000000e+03,	 -6.8871739576649184e-15,	 3.0000000000000000e+02,	 1.0000000000000000e+03,	 3.3237670711487283e+02,	 5.2229893456403387e+00 
-3.0629580000000001e-01,	 6.1388000000000007e-03,	 1.1586407740522199e-02,	 1.7360000000000000e+03,	 -3.8767225131088542e-15,	 3.0000000000000000e+02,	 1.0000000000000000e+03,	 3.3237670711487283e+02,	 5.2229893456403387e+00 
-3.0076140000000001e-01,	 6.1388000000000007e-03,	 1.1586407740522199e-02,	 1.7360000000000000e+03,	 -8.7921464376433803e-15,	 3.0000000000000000e+02,	 1.0000000000000000e+03,	 3.3237670711487283e+02,	 5.2229893456403387e+00 
-2.9522700000000002e-01,	 6.1388000000000007e-03,	 1.1586407740522199e-02,	 1.7360000000000000e+03,	 -5.3917422278647412e-16,	 3.0000000000000000e+02,	 1.0000000000000000e+03,	 3.3237670711487283e+02,	 5.2229893456403387e+00 
-2.8969260000000002e-01,	 6.1388000000000007e-03,	 1.1586407740522199e-02,	 1.7360000000000000e+03,	 2.9005687670126362e-15,	 3.0000000000000000e+02,	 1.0000000000000000e+03,	 3.3237670711487283e+02,	 5.2229893456403387e+00 
-2.8415820000000003e-01,	 6.1388000000000007e-03,	 1.1586407740522199e-02,	 1.7360000000000000e+03,	 -2.2847170070169362e-15,	 3.0000000000000000e+02,	 1.0000000000000000e+03,	 3.3237670711487283e+02,	 5.2229893456403387e+00 
-2.7862379999999998e-01,	 6.1388000000000007e-03,	 1.1586407740522199e-02,	 1.7360000000000000e+03,	 -2.0394461109892253e-14,	 3.0000000000000000e+02,	 1.0000000000000000e+03,	 3.3237670711487283e+02,	 5.2229893456403387e+00 
-2.7308939999999998e-01,	 6.1388000000000007e-03,	 1.1586407740522199e-02,	 1.7360000000000000e+03,	 -1.4993232693630759e-14,	 3.0000000000000000e+02,	 1.0000000000000000e+03,	 3.3237670711487283e+02,	 5.2229893456403387e+00 
-2.6755499999999999e-01,	 6.1388000000000007e-03,	 1.1586407740522199e-02,	 1.7360000000000000e+03,	 -3.7667767739115864e-15,	 3.0000000000000000e+02,	 1.0000000000000000e+03,	 3.3237670711487283e+02,	 5.2229893456403387e+00 
-2.6202059999999999e-01,	 6.1388000000000007e-03,	 1.1586407740522199e-02,	 1.7360000000000000e+03,	 -4.6128016512143891e-15,	 3.0000000000000000e+02,	 1.0000000000000000e+03,	 3.3237670711487283e+02,	 5.2229893456403387e+00 
-2.5648620000000000e-01,	 6.1388000000000007e-03,	 1.1586407740522199e-02,	 1.7360000000000000e+03,	 -1.5768270420203177e-14,	 3.0000000000000000e+02,	 1.0000000000000000e+03,	 3.3237670711487283e+02,	 5.2229893456403387e+00 
-2.5095180000000000e-01,	 6.1388000000000007e-03,	 1.1586407740522199e-02,	 1.7360000000000000e+03,	 -1.5231821130939136e-14,	 3.0000000000000000e+02,	 1.0000000000000000e+03,	 3.3237670711487283e+02,	 5.2229893456403387e+00 
-2.4541740000000001e-01,	 6.1388000000000007e-03,	 1.1586407740522199e-02,	 1.7360000000000000e+03,	 -9.3740499302324017e-15,	 3.0000000000000000e+02,	 1.0000000000000000e+03,	 3.3237670711487283e+02,	 5.2229893456403387e+00 
-2.3988300000000001e-01,	 6.1388000000000007e-03,	 1.1586407740522199e-02,	 1.7360000000000000e+03,	 -1.5263698739938601e-14,	 3.0000000000000000e+02,	 1.0000000000000000e+03,	 3.3237670711487283e+02,	 5.2229893456403387e+00 
-2.3434859999999999e-01,	 6.1388000000000007e-03,	 1.1586407740522199e-02,	 1.7360000000000000e+03,	 -6.9577045147547812e-15,	 3.0000000000000000e+02,	 1.0000000000000000e+03,	 3.3237670711487283e+02,	 5.2229893456403387e+00 
-2.2881420000000000e-01,	 6.1388000000000007e-03,	 1.1586407740522199e-02,	 1.7360000000000000e+03,	 4.3279587140314315e-16,	 3.0000000000000000e+02,	 1.0000000000000000e+03,	 3.3237670711487283e+02,	 5.2229893456403387e+00 
-2.2327980000000000e-01,	 6.1388000000000007e-03,	 1.1586407740522199e-02,	 1.7360000000000000e+03,	 2.9956613884197665e-15,	 3.0000000000000000e+02,	 1.0000000000000000e+03,	 3.3237670711487283e+02,	 5.2229893456403387e+00 
-2.1774540000000001e-01,	 6.1388000000000007e-03,	 1.1586407740522199e-02,	 1.7360000000000000e+03,	 -1.4483114070595774e-14,	 3.0000000000000000e+02,	 1.0000000000000000e+03,	 3.3237670711487283e+02,	 5.2229893456403387e+00 
-2.1221100000000001e-01,	 6.1388000000000007e-03,	 1.1586407740522199e-02,	 1.7360000000000000e+03,	 -2.7431154504695953e-14,	 3.0000000000000000e+02,	 1.0000000000000000e+03,	 3.3237670711487283e+02,	 5.2229893456403387e+00 
-2.0667659999999999e-01,	 6.1388000000000007e-03,	 1.1586407740522199e-02,	 1.7360000000000000e+03,	 -3.1298303260845882e-14,	 3.0000000000000000e+02,	 1.0000000000000000e+03,	 3.3237670711487283e+02,	 5.2229893456403387e+00 
-2.0114219999999999e-01,	 6.1388000000000007e-03,	 1.1586407740522199e-02,	 1.7360000000000000e+03,	 -1.8242941123504278e-14,	 3.0000000000000000e+02,	 1.0000000000000000e+03,	 3.3237670711487283e+02,	 5.2229893456403387e+00 