TITLE = "Final State"
VARIABLES = "X", "Y", "rho", "u", "v", "T", "p", "c", "M"
ZONE I=82, J=25, DATAPACKING=POINT
8.4940000000000004e-01,	 2.6635680000000000e-01,	 2.7189454837276767e-02,	 1.6045069608397234e+03,	 3.6465898975682461e+02,	 4.5234609136375434e+02,	 3.5383539912717165e+03,	 4.0813644241497616e+02,	 4.0315527152370318e+00 
8.5141040000000001e-01,	 2.6661879999999999e-01,	 2.7198996834041936e-02,	 1.6043699678721255e+03,	 3.6511041578100446e+02,	 4.5241391062871077e+02,	 3.5401264419602990e+03,	 4.0816703677253821e+02,	 4.0311685177311931e+00 
8.5342070000000003e-01,	 2.6688079999999997e-01,	 2.7210432832847055e-02,	 1.6042025233429242e+03,	 3.6563810639298561e+02,	 4.5249557732572191e+02,	 3.5422542199799423e+03,	 4.0820387488558396e+02,	 4.0306918338408932e+00 
8.5538060000000005e-01,	 2.6713609999999999e-01,	 2.7221541277963286e-02,	 1.6040391455999716e+03,	 3.6615402001449559e+02,	 4.5257487760999715e+02,	 3.5443213542775102e+03,	 4.0823964237903431e+02,	 4.0302295502664709e+00 
8.5734049999999995e-01,	 2.6739140000000000e-01,	 2.7232414850174205e-02,	 1.6038781979865403e+03,	 3.6666463124708679e+02,	 4.5265256456573582e+02,	 3.5463457692003662e+03,	 4.0827467916046561e+02,	 4.0297779011185897e+00 
8.5925130000000005e-01,	 2.6764019999999999e-01,	 2.7242947038409186e-02,	 1.6037211095345028e+03,	 3.6716397954984484e+02,	 4.5272793574140451e+02,	 3.5483080555606052e+03,	 4.0830866865275198e+02,	 4.0293401454645066e+00 
8.6116210000000004e-01,	 2.6788899999999999e-01,	 2.7253250140677390e-02,	 1.6035662258946754e+03,	 3.6765845905383685e+02,	 4.5280183090981166e+02,	 3.5502293832289006e+03,	 4.0834198977606411e+02,	 4.0289120607055562e+00 
8.6302509999999999e-01,	 2.6813139999999996e-01,	 2.7263230594598079e-02,	 1.6034150617964751e+03,	 3.6814196314353990e+02,	 4.5287353606995714e+02,	 3.5520919340929404e+03,	 4.0837432077239470e+02,	 4.0284970732137175e+00 
8.6488799999999999e-01,	 2.6837390000000000e-01,	 2.7272996763945602e-02,	 1.6032660216521463e+03,	 3.6862083863870504e+02,	 4.5294382653861840e+02,	 3.5539158734054481e+03,	 4.0840601141710926e+02,	 4.0280913756982999e+00 
8.6670449999999999e-01,	 2.6861019999999997e-01,	 2.7282457345085078e-02,	 1.6031205030285264e+03,	 3.6908921645953808e+02,	 4.5301207522090920e+02,	 3.5556843546936711e+03,	 4.0843677916422956e+02,	 4.0276978497212346e+00 
8.6852099999999999e-01,	 2.6884649999999999e-01,	 2.7291719585166276e-02,	 1.6029769780255770e+03,	 3.6955323988723495e+02,	 4.5307901240234332e+02,	 3.5574170566437429e+03,	 4.0846695341171039e+02,	 4.0273129517944914e+00 
8.7029219999999996e-01,	 2.6907680000000000e-01,	 2.7300688667168699e-02,	 1.6028368527155260e+03,	 3.7000709831387451e+02,	 4.5314400296912163e+02,	 3.5590966079986501e+03,	 4.0849624802278623e+02,	 4.0269396432820255e+00 
8.7206329999999999e-01,	 2.6930709999999997e-01,	 2.7309473471933313e-02,	 1.6026986339371597e+03,	 3.7045672485378503e+02,	 4.5320777284901840e+02,	 3.5607428770775682e+03,	 4.0852499036527382e+02,	 4.0265743796846216e+00 
8.7379050000000003e-01,	 2.6953159999999998e-01,	 2.7317986506687104e-02,	 1.6025636865186857e+03,	 3.7089661876904887e+02,	 4.5326967983946952e+02,	 3.5623393879706323e+03,	 4.0855289113242287e+02,	 4.0262202181175430e+00 
8.7551760000000001e-01,	 2.6975610000000000e-01,	 2.7326323647833724e-02,	 1.6024304899954514e+03,	 3.7133264918340365e+02,	 4.5333046502001821e+02,	 3.5639044427419353e+03,	 4.0858028445898924e+02,	 4.0258734583687419e+00 
8.7720189999999998e-01,	 2.6997489999999996e-01,	 2.7334404322828368e-02,	 1.6023004077506810e+03,	 3.7175923990015679e+02,	 4.5338952383168248e+02,	 3.5654227602130172e+03,	 4.0860689802467067e+02,	 4.0255369380335342e+00 
8.7888619999999995e-01,	 2.7019369999999998e-01,	 2.7342322587987543e-02,	 1.6021720157427521e+03,	 3.7218209816669139e+02,	 4.5344751374152276e+02,	 3.5669117570351846e+03,	 4.0863302822652946e+02,	 4.0252074796620496e+00 
8.8052880000000000e-01,	 2.7040700000000001e-01,	 2.7349996343932780e-02,	 1.6020466384570300e+03,	 3.7259582806883566e+02,	 4.5350384351560064e+02,	 3.5683560541754027e+03,	 4.0865840877294903e+02,	 4.0248878612495762e+00 
8.8217140000000005e-01,	 2.7062029999999998e-01,	 2.7357517203796550e-02,	 1.6019228181326789e+03,	 3.7300611003496772e+02,	 4.5355919535719960e+02,	 3.5697729522982904e+03,	 4.0868334715623098e+02,	 4.0245747107688654e+00 
8.8377340000000004e-01,	 2.7082819999999996e-01,	 2.7364808521250387e-02,	 1.6018018827447402e+03,	 3.7340753903760225e+02,	 4.5361299488582927e+02,	 3.5711479133687599e+03,	 4.0870758469754423e+02,	 4.0242707279262291e+00 
8.8537540000000003e-01,	 2.7103610000000000e-01,	 2.7371961789086123e-02,	 1.6016824627821420e+03,	 3.7380564635956046e+02,	 4.5366585445370640e+02,	 3.5724976803898476e+03,	 4.0873139737179883e+02,	 4.0239729879345854e+00 
8.8693800000000000e-01,	 2.7123890000000000e-01,	 2.7378894532279791e-02,	 1.6015658043234366e+03,	 3.7419529007752840e+02,	 4.5371722473138118e+02,	 3.5738071487430961e+03,	 4.0875453780745516e+02,	 4.0236840237000697e+00 
8.8850059999999997e-01,	 2.7144160000000001e-01,	 2.7385692971728617e-02,	 1.6014505067028242e+03,	 3.7458183911074855e+02,	 4.5376776531007738e+02,	 3.5750927522278257e+03,	 4.0877730321560699e+02,	 4.0234005458406568e+00 
8.9002470000000000e-01,	 2.7163919999999997e-01,	 2.7392286856635376e-02,	 1.6013378928583170e+03,	 3.7496008917026467e+02,	 4.5381689236887644e+02,	 3.5763407073038779e+03,	 4.0879943070529600e+02,	 4.0231253823634390e+00 
8.9154889999999998e-01,	 2.7183689999999999e-01,	 2.7398758101031043e-02,	 1.6012266330167395e+03,	 3.7533530311285745e+02,	 4.5386519936889567e+02,	 3.5775663710082590e+03,	 4.0882118766162176e+02,	 4.0228556552884260e+00 
8.9303569999999999e-01,	 2.7202959999999998e-01,	 2.7405034180946149e-02,	 1.6011178935217872e+03,	 3.7570267503174921e+02,	 4.5391217938582531e+02,	 3.5787562661924344e+03,	 4.0884234584840402e+02,	 4.0225936949287684e+00 
8.9452259999999995e-01,	 2.7222229999999997e-01,	 2.7411193320575372e-02,	 1.6010104031223450e+03,	 3.7606721675469248e+02,	 4.5395840969835899e+02,	 3.5799251463197243e+03,	 4.0886316532522216e+02,	 4.0223367026505930e+00 
8.9597309999999997e-01,	 2.7241029999999999e-01,	 2.7417167743080208e-02,	 1.6009053922232745e+03,	 3.7642396099684652e+02,	 4.5400336764127951e+02,	 3.5810600274925437e+03,	 4.0888341078314346e+02,	 4.0220871352219953e+00 
8.9742359999999999e-01,	 2.7259820000000001e-01,	 2.7423033439099145e-02,	 1.6008015141569272e+03,	 3.7677814864274541e+02,	 4.5404764317226784e+02,	 3.5821754767902075e+03,	 4.0890334795769030e+02,	 4.0218420939655175e+00 
8.9883880000000005e-01,	 2.7278150000000001e-01,	 2.7428724952170004e-02,	 1.6007000302355318e+03,	 3.7712473606439238e+02,	 4.5409070934582172e+02,	 3.5832587772716529e+03,	 4.0892273962865488e+02,	 4.0216040799471697e+00 
9.0025409999999995e-01,	 2.7296470000000000e-01,	 2.7434317067827958e-02,	 1.6005996357094625e+03,	 3.7746894106607806e+02,	 4.5413311152483692e+02,	 3.5843239916942348e+03,	 4.0894183142033319e+02,	 4.0213704863577719e+00 
9.0163490000000002e-01,	 2.7314349999999998e-01,	 2.7439742240989377e-02,	 1.6005015373003012e+03,	 3.7780581925242785e+02,	 4.5417436608685966e+02,	 3.5853584697358192e+03,	 4.0896040563634278e+02,	 4.0211435426479669e+00 
9.0301580000000004e-01,	 2.7332220000000002e-01,	 2.7445071722286073e-02,	 1.6004044314885589e+03,	 3.7814042974152426e+02,	 4.5421502974544853e+02,	 3.5863759064010223e+03,	 4.0897871298186840e+02,	 4.0209205128488303e+00 
9.0436329999999998e-01,	 2.7349649999999998e-01,	 2.7450246822548142e-02,	 1.6003095674401816e+03,	 3.7846788688285062e+02,	 4.5425458069094464e+02,	 3.5873645048842222e+03,	 4.0899651858232244e+02,	 4.0207039241841409e+00 
9.0571080000000004e-01,	 2.7367089999999999e-01,	 2.7455328870614727e-02,	 1.6002156733901634e+03,	 3.7879318689390072e+02,	 4.5429354144546949e+02,	 3.5883363977025779e+03,	 4.0901405772444400e+02,	 4.0204912388808260e+00 
9.0702579999999999e-01,	 2.7384090000000000e-01,	 2.7460262195792423e-02,	 1.6001238582162325e+03,	 3.7911165059121186e+02,	 4.5433150472862826e+02,	 3.5892810849455864e+03,	 4.0903114710685321e+02,	 4.0202842547449471e+00 
9.0834079999999995e-01,	 2.7401100000000000e-01,	 2.7465112934603301e-02,	 1.6000330113994178e+03,	 3.7942792171624274e+02,	 4.5436889815586881e+02,	 3.5902105815987684e+03,	 4.0904797926748881e+02,	 4.0200810454396825e+00 
9.0962430000000005e-01,	 2.7417690000000000e-01,	 2.7469825528084163e-02,	 1.5999441814774702e+03,	 3.7973761730302044e+02,	 4.5440531757195134e+02,	 3.5911144254197170e+03,	 4.0906437232399895e+02,	 4.0198834136712103e+00 
9.1090780000000005e-01,	 2.7434280000000000e-01,	 2.7474452967069792e-02,	 1.5998562295799115e+03,	 3.8004534585827992e+02,	 4.5444119995882045e+02,	 3.5920029901072830e+03,	 4.0908052301121324e+02,	 4.0196893101862843e+00 
9.1216059999999999e-01,	 2.7450469999999999e-01,	 2.7478944374067209e-02,	 1.5997702459097613e+03,	 3.8034653344994479e+02,	 4.5447615675703207e+02,	 3.5928665468904219e+03,	 4.0909625647717763e+02,	 4.0195004557003511e+00 
9.1341340000000004e-01,	 2.7466649999999998e-01,	 2.7483364943619706e-02,	 1.5996850873003236e+03,	 3.8064584438468023e+02,	 4.5451063209703216e+02,	 3.5937171245321683e+03,	 4.0911177265428336e+02,	 4.0193147960993070e+00 
9.1463640000000002e-01,	 2.7482439999999997e-01,	 2.7487652890992018e-02,	 1.5996018553895390e+03,	 3.8093889417418376e+02,	 4.5454416840365980e+02,	 3.5945430210167115e+03,	 4.0912686563980117e+02,	 4.0191344873336616e+00 
9.1585939999999999e-01,	 2.7498240000000002e-01,	 2.7491866879432204e-02,	 1.5995194431177076e+03,	 3.8123001936868877e+02,	 4.5457723193455973e+02,	 3.5953555886748745e+03,	 4.0914174530796288e+02,	 4.0189572830805327e+00 
9.1705340000000002e-01,	 2.7513650000000001e-01,	 2.7495959907717804e-02,	 1.5994388293625525e+03,	 3.8151514997340075e+02,	 4.5460945173334062e+02,	 3.5961457420526717e+03,	 4.0915624474854218e+02,	 4.0187848385071776e+00 
9.1824740000000005e-01,	 2.7529060000000000e-01,	 2.7499984021838314e-02,	 1.5993590044928310e+03,	 3.8179844454083513e+02,	 4.5464121099045394e+02,	 3.5969233139103540e+03,	 4.0917053643493830e+02,	 4.0186154102607752e+00 
9.1941329999999999e-01,	 2.7544099999999999e-01,	 2.7503886662926927e-02,	 1.5992809470111690e+03,	 3.8207590725824582e+02,	 4.5467212136853550e+02,	 3.5976783529367794e+03,	 4.0918444564588253e+02,	 4.0184507678199255e+00 
9.2057920000000004e-01,	 2.7559139999999999e-01,	 2.7507722502286606e-02,	 1.5992036514028300e+03,	 3.8235155874559530e+02,	 4.5470259228886482e+02,	 3.5984212449235315e+03,	 4.0919815664460822e+02,	 4.0182889878382353e+00 
9.2171780000000003e-01,	 2.7573829999999999e-01,	 2.7511443754291931e-02,	 1.5991281040271938e+03,	 3.8262142911877982e+02,	 4.5473223471344011e+02,	 3.5991426559901256e+03,	 4.0921149440430202e+02,	 4.0181318726574276e+00 
9.2285629999999996e-01,	 2.7588509999999999e-01,	 2.7515101507503366e-02,	 1.5990532216750471e+03,	 3.8288973456803001e+02,	 4.5476148828764440e+02,	 3.5998527447455103e+03,	 4.0922465677259584e+02,	 4.0179772962502698e+00 
9.2396829999999996e-01,	 2.7602840000000001e-01,	 2.7518648501493329e-02,	 1.5989799922268014e+03,	 3.8315250584082821e+02,	 4.5478996350072589e+02,	 3.6005422410643268e+03,	 4.0923746851808676e+02,	 4.0178270638175970e+00 
9.2508029999999997e-01,	 2.7617169999999996e-01,	 2.7522133793812045e-02,	 1.5989074726035280e+03,	 3.8341358945578116e+02,	 4.5481802600531023e+02,	 3.6012204541409396e+03,	 4.0925009418279672e+02,	 4.0176795030359322e+00 
9.2616650000000000e-01,	 2.7631169999999999e-01,	 2.7525514631322436e-02,	 1.5988365819011296e+03,	 3.8366924483983286e+02,	 4.5484532359062121e+02,	 3.6018789976049311e+03,	 4.0926237532723303e+02,	 4.0175362176252110e+00 
9.2725270000000004e-01,	 2.7645159999999996e-01,	 2.7528837800384492e-02,	 1.5987662917447901e+03,	 3.8392347020380714e+02,	 4.5487227039338643e+02,	 3.6025272693040929e+03,	 4.0927449829365696e+02,	 4.0173952088616911e+00 
9.2831390000000003e-01,	 2.7658820000000001e-01,	 2.7532058853900858e-02,	 1.5986975736207260e+03,	 3.8417243358835083e+02,	 4.5489847909974804e+02,	 3.6031563822040393e+03,	 4.0928628885700823e+02,	 4.0172583049720414e+00 
9.2937510000000001e-01,	 2.7672490000000000e-01,	 2.7535221037112381e-02,	 1.5986294935937494e+03,	 3.8441985717904618e+02,	 4.5492431343931332e+02,	 3.6037748731784004e+03,	 4.0929791067081146e+02,	 4.0171238004139180e+00 
9.3041189999999996e-01,	 2.7685830000000000e-01,	 2.7538292158799674e-02,	 1.5985628949121146e+03,	 3.8466221768420428e+02,	 4.5494948158333392e+02,	 3.6043762144727357e+03,	 4.0930923247312711e+02,	 4.0169929703055773e+00 
9.3144879999999997e-01,	 2.7699180000000001e-01,	 2.7541310457224716e-02,	 1.5984968930116115e+03,	 3.8490317965055050e+02,	 4.5497429448851960e+02,	 3.6049678713160697e+03,	 4.0932039416592266e+02,	 4.0168644300496688e+00 
9.3246200000000001e-01,	 2.7712209999999998e-01,	 2.7544240513504653e-02,	 1.5984323111299682e+03,	 3.8513925209197623e+02,	 4.5499847662176114e+02,	 3.6055430219085233e+03,	 4.0933127182308857e+02,	 4.0167393511746914e+00 
9.3347530000000001e-01,	 2.7725250000000001e-01,	 2.7547121115632893e-02,	 1.5983682885184321e+03,	 3.8537400066561213e+02,	 4.5502233093065308e+02,	 3.6061091413248678e+03,	 4.0934200173442150e+02,	 4.0166163877636594e+00 
9.3446560000000001e-01,	 2.7737980000000001e-01,	 2.7549915870234344e-02,	 1.5983056200442488e+03,	 3.8560404408058741e+02,	 4.5504559525286766e+02,	 3.6066593854602816e+03,	 4.0935246599282885e+02,	 4.0164966452325395e+00 
9.3545599999999995e-01,	 2.7750720000000001e-01,	 2.7552661263675539e-02,	 1.5982434803840656e+03,	 3.8583285039974214e+02,	 4.5506850594639127e+02,	 3.6072004015119455e+03,	 4.0936277092814106e+02,	 4.0163791029295375e+00 
9.3642409999999998e-01,	 2.7763159999999998e-01,	 2.7555365226217026e-02,	 1.5981826782462761e+03,	 3.8605637364822167e+02,	 4.5509124979865527e+02,	 3.6077347067056598e+03,	 4.0937300056382617e+02,	 4.0162625343838023e+00 
9.3739229999999996e-01,	 2.7775600000000000e-01,	 2.7557988189057518e-02,	 1.5981225126909640e+03,	 3.8627931437368613e+02,	 4.5511350141174353e+02,	 3.6082545391301105e+03,	 4.0938300855483425e+02,	 4.0161494028559659e+00 
9.3833889999999998e-01,	 2.7787760000000000e-01,	 2.7560490119792964e-02,	 1.5980638640830130e+03,	 3.8649819658229330e+02,	 4.5513501425415285e+02,	 3.6087526995541598e+03,	 4.0939268404023341e+02,	 4.0160408888952306e+00 
9.3928550000000000e-01,	 2.7799920000000000e-01,	 2.7562908134109582e-02,	 1.5980061214668453e+03,	 3.8671598765919907e+02,	 4.5515647394819246e+02,	 3.6092394810179098e+03,	 4.0940233539412850e+02,	 4.0159342170144336e+00 
9.4021120000000002e-01,	 2.7811799999999998e-01,	 2.7565009398214588e-02,	 1.5979506462625432e+03,	 3.8693262863212931e+02,	 4.5517611880685297e+02,	 3.6096704212218738e+03,	 4.0941117033847701e+02,	 4.0158403550918962e+00 
9.4113680000000000e-01,	 2.7823690000000001e-01,	 2.7566623297057294e-02,	 1.5978972333101633e+03,	 3.8715391557540710e+02,	 4.5519321042504697e+02,	 3.6100173122913247e+03,	 4.0941885685083105e+02,	 4.0157654032803629e+00 
9.4204230000000000e-01,	 2.7835309999999996e-01,	 2.7560598334940799e-02,	 1.5978571068620754e+03,	 3.8739329615089093e+02,	 4.5517850517576068e+02,	 3.6091117088210090e+03,	 4.0941224355471843e+02,	 4.0158727417011173e+00 
9.4294770000000006e-01,	 2.7846929999999998e-01,	 2.7555849255951701e-02,	 1.5978280550678446e+03,	 3.8764446716227951e+02,	 4.5516090792444413e+02,	 3.6083503034630853e+03,	 4.0940432951693623e+02,	 4.0160260079584464e+00 
9.4383349999999999e-01,	 2.7858289999999997e-01,	 2.7556507409013522e-02,	 1.5977738212723957e+03,	 3.8798656615521247e+02,	 4.5515876360215810e+02,	 3.6084194866869670e+03,	 4.0940336513725589e+02,	 4.0161038291623017e+00 
9.4471930000000004e-01,	 2.7869650000000001e-01,	 2.7544887817866355e-02,	 1.5977115450901993e+03,	 3.8849601849130852e+02,	 4.5501046611956792e+02,	 3.6057227646681881e+03,	 4.0933666485659114e+02,	 4.0169042784178908e+00 
9.4558609999999998e-01,	 2.7880759999999999e-01,	 2.7525273340300048e-02,	 1.5975871531869839e+03,	 3.8927279884785560e+02,	 4.5473827849918132e+02,	 3.6009997502537180e+03,	 4.0921421378307986e+02,	 4.0182598609631990e+00 
9.4645279999999998e-01,	 2.7891879999999997e-01,	 2.7509602718624772e-02,	 1.5973046308260755e+03,	 3.9027847828552962e+02,	 4.5430683055195664e+02,	 3.5955350156063228e+03,	 4.0902003997063827e+02,	 4.0200792387937039e+00 
9.4730119999999995e-01,	 2.7902749999999998e-01,	 2.7537428401625673e-02,	 1.5966925353809688e+03,	 3.9110335033786237e+02,	 4.5386436179002516e+02,	 3.5956664759665059e+03,	 4.0882081043491763e+02,	 4.0210634680126995e+00 
9.4814949999999998e-01,	 2.7913620000000000e-01,	 2.7721689319655251e-02,	 1.5955055864563683e+03,	 3.8992980558386409e+02,	 4.5425460857299805e+02,	 3.6228384767439302e+03,	 4.0899653113438364e+02,	 4.0158349909631630e+00 
9.4898000000000005e-01,	 2.7924250000000000e-01,	 2.8253370178595201e-02,	 1.5934038998550182e+03,	 3.8333900714830509e+02,	 4.5714801991647971e+02,	 3.7158402967700126e+03,	 4.1029703169649764e+02,	 3.9943426193702178e+00 
9.4981050000000000e-01,	 2.7934890000000001e-01,	 2.9446162224483603e-02,	 1.5899394329250163e+03,	 3.6635794641285344e+02,	 4.6519017193213818e+02,	 3.9408433211045126e+03,	 4.1389027202281176e+02,	 3.9421128035795787e+00 
9.5062369999999996e-01,	 2.7945300000000001e-01,	 3.1523974160013457e-02,	 1.5847645966228674e+03,	 3.3694880335959016e+02,	 4.7983292835224506e+02,	 4.3517200422115829e+03,	 4.2035379974644144e+02,	 3.8543467124069219e+00 
9.5143690000000003e-01,	 2.7955710000000000e-01,	 3.4528899869063205e-02,	 1.5779051289701683e+03,	 2.9601378880633143e+02,	 5.0077823011488454e+02,	 4.9745994765254200e+03,	 4.2943028974182613e+02,	 3.7385136961831256e+00 
9.5223340000000001e-01,	 2.7965899999999999e-01,	 3.8113984981767893e-02,	 1.5697615059817067e+03,	 2.4933633115099286e+02,	 5.2527843260924021e+02,	 5.7597530773625958e+03,	 4.3980963398133485e+02,	 3.6139274010290130e+00 
9.5302989999999999e-01,	 2.7976089999999998e-01,	 4.1875805361889569e-02,	 1.5610438959348576e+03,	 2.0270264256392863e+02,	 5.5023430733780037e+02,	 6.6288894347948481e+03,	 4.5013604025620708e+02,	 3.4970526293188917e+00 
9.5381020000000005e-01,	 2.7986069999999996e-01,	 4.4914031225129922e-02,	 1.5545303820570175e+03,	 1.6906871553473579e+02,	 5.6774178652778994e+02,	 7.3360593144955037e+03,	 4.5724122918296791e+02,	 3.4198517152970496e+00 
8.4940000000000004e-01,	 2.6784360000000002e-01,	 2.7152693510685215e-02,	 1.6049664264990515e+03,	 3.6303566037176995e+02,	 4.5213861890470577e+02,	 3.5319492801112910e+03,	 4.0804283402015670e+02,	 4.0326960446434432e+00 
8.5140930000000004e-01,	 2.6809469999999996e-01,	 2.7162672905560722e-02,	 1.6048265890140553e+03,	 3.6349658703251873e+02,	 4.5220903034011951e+02,	 3.5337976046738158e+03,	 4.0807460498814777e+02,	 4.0322972108078599e+00 
8.5341869999999997e-01,	 2.6834569999999996e-01,	 2.7174677223445087e-02,	 1.6046554341374579e+03,	 3.6403671168041120e+02,	 4.5229400646712969e+02,	 3.5360236785202478e+03,	 4.0811294452610525e+02,	 4.0318019825208555e+00 
8.5537759999999996e-01,	 2.6859040000000001e-01,	 2.7186302978551062e-02,	 1.6044883989084030e+03,	 3.6456475777308589e+02,	 4.5237643145869475e+02,	 3.5381811174540753e+03,	 4.0815012960164154e+02,	 4.0313220101011646e+00 
8.5733649999999995e-01,	 2.6883509999999999e-01,	 2.7197674845857712e-02,	 1.6043237783444313e+03,	 3.6508742248443338e+02,	 4.5245719541035231e+02,	 3.5402930623617217e+03,	 4.0818656203257302e+02,	 4.0308528538243324e+00 
8.5924639999999997e-01,	 2.6907349999999997e-01,	 2.7208688131469629e-02,	 1.6041630787055578e+03,	 3.6559859724311457e+02,	 4.5253554848894561e+02,	 3.5423399794503039e+03,	 4.0822190381693542e+02,	 4.0303981036765464e+00 
8.6115629999999999e-01,	 2.6931189999999999e-01,	 2.7219467539887819e-02,	 1.6040046875990415e+03,	 3.6610464669936567e+02,	 4.5261233832466883e+02,	 3.5443446974203675e+03,	 4.0825653751956457e+02,	 4.0299535657565588e+00 
8.6301839999999996e-01,	 2.6954430000000001e-01,	 2.7229906662515239e-02,	 1.6038500663464069e+03,	 3.6659957320217558e+02,	 4.5268685193778197e+02,	 3.5462877426919954e+03,	 4.0829014179321717e+02,	 4.0295226094742631e+00 
8.6488050000000005e-01,	 2.6977659999999998e-01,	 2.7240124040792534e-02,	 1.6036976028724730e+03,	 3.6708971996567334e+02,	 4.5275991404248055e+02,	 3.5481909767084485e+03,	 4.0832308877789319e+02,	 4.0291011469670153e+00 
8.6669620000000003e-01,	 2.7000310000000000e-01,	 2.7250024761726784e-02,	 1.6035487760585929e+03,	 3.6756908789233012e+02,	 4.5283082536761151e+02,	 3.5500365256966875e+03,	 4.0835506333744894e+02,	 4.0286925188330329e+00 
8.6851179999999994e-01,	 2.7022950000000001e-01,	 2.7259717738800475e-02,	 1.6034019699422338e+03,	 3.6804400510775872e+02,	 4.5290038629815376e+02,	 3.5518448198868982e+03,	 4.0838642655945216e+02,	 4.0282927421047061e+00 
8.7028220000000001e-01,	 2.7045019999999997e-01,	 2.7269112423175937e-02,	 1.6032586675950495e+03,	 3.6850849198809215e+02,	 4.5296790574185900e+02,	 3.5535986138209823e+03,	 4.0841686702445162e+02,	 4.0279051329166560e+00 
8.7205270000000001e-01,	 2.7067099999999999e-01,	 2.7278310189412059e-02,	 1.6031172911896256e+03,	 3.6896870753575564e+02,	 4.5303415661089832e+02,	 3.5553171518410568e+03,	 4.0844673336015506e+02,	 4.0275258420968179e+00 
8.7377910000000003e-01,	 2.7088609999999996e-01,	 2.7287221218532654e-02,	 1.6029792277503684e+03,	 3.6941897133449839e+02,	 4.5309849554714992e+02,	 3.5569836537970186e+03,	 4.0847573569364346e+02,	 4.0271579001255970e+00 
8.7550559999999999e-01,	 2.7110119999999999e-01,	 2.7295953819228651e-02,	 1.6028429975080089e+03,	 3.6986518300816766e+02,	 4.5316164480309601e+02,	 3.5586178811718323e+03,	 4.0850419974762286e+02,	 4.0267977871476894e+00 
8.7718920000000000e-01,	 2.7131089999999997e-01,	 2.7304420859879591e-02,	 1.6027099781556383e+03,	 3.7030171147196086e+02,	 4.5322298070892168e+02,	 3.5602035551149311e+03,	 4.0853184454902174e+02,	 4.0264484430767444e+00 
8.7887280000000001e-01,	 2.7152060000000000e-01,	 2.7312716206455406e-02,	 1.6025786506840725e+03,	 3.7073451759013335e+02,	 4.5328321268947957e+02,	 3.5617584634793047e+03,	 4.0855898997818258e+02,	 4.0261063567798958e+00 
8.8051480000000004e-01,	 2.7172499999999999e-01,	 2.7320757169846950e-02,	 1.6024503996438598e+03,	 3.7115794788786121e+02,	 4.5334173160640745e+02,	 3.5632670169947396e+03,	 4.0858536163427959e+02,	 4.0257744001935798e+00 
8.8215679999999996e-01,	 2.7192939999999999e-01,	 2.7328642480573075e-02,	 1.6023237765427295e+03,	 3.7157777908779599e+02,	 4.5339921225291420e+02,	 3.5647473747184927e+03,	 4.0861126373493727e+02,	 4.0254492935192516e+00 
8.8375820000000005e-01,	 2.7212870000000000e-01,	 2.7336287925989897e-02,	 1.6022001055686319e+03,	 3.7198858091585276e+02,	 4.5345506642753469e+02,	 3.5661839099070889e+03,	 4.0863643133715584e+02,	 4.0251337876703728e+00 
8.8535969999999997e-01,	 2.7232800000000001e-01,	 2.7343781861972515e-02,	 1.6020779248037447e+03,	 3.7239606461251378e+02,	 4.5350996959726638e+02,	 3.5675934418475022e+03,	 4.0866116891089160e+02,	 4.0248245421558551e+00 
8.8692170000000004e-01,	 2.7252219999999999e-01,	 2.7351050073928559e-02,	 1.6019585782374174e+03,	 3.7279482876069875e+02,	 4.5356333192716056e+02,	 3.5689616318987855e+03,	 4.0868521079764770e+02,	 4.0245243715319923e+00 
8.8848369999999999e-01,	 2.7271649999999997e-01,	 2.7358185159305003e-02,	 1.6018406899682154e+03,	 3.7319030938732851e+02,	 4.5361579600123258e+02,	 3.5703056017912718e+03,	 4.0870884660511354e+02,	 4.0242301433977055e+00 
8.9000740000000000e-01,	 2.7290589999999998e-01,	 2.7365105983634491e-02,	 1.6017255051146972e+03,	 3.7357742671785604e+02,	 4.5366680599644360e+02,	 3.5716103746665081e+03,	 4.0873182601899020e+02,	 4.0239444574503684e+00 
8.9153110000000002e-01,	 2.7309539999999999e-01,	 2.7371891402033995e-02,	 1.6016116732092430e+03,	 3.7396148438846564e+02,	 4.5371696796973413e+02,	 3.5728909979847276e+03,	 4.0875442214895963e+02,	 4.0236643395801517e+00 
8.9301750000000002e-01,	 2.7327999999999997e-01,	 2.7378477907622080e-02,	 1.6015004318442004e+03,	 3.7433743458632239e+02,	 4.5376576387815714e+02,	 3.5741350899536760e+03,	 4.0877640171829091e+02,	 4.0233922156986592e+00 
8.9450390000000002e-01,	 2.7346470000000000e-01,	 2.7384943985215043e-02,	 1.6013904841892099e+03,	 3.7471048326653715e+02,	 4.5381376286901093e+02,	 3.5753573653443150e+03,	 4.0879802117207845e+02,	 4.0231253572706942e+00 
8.9595400000000003e-01,	 2.7364479999999997e-01,	 2.7391215809659718e-02,	 1.6012830533911163e+03,	 3.7507559884878697e+02,	 4.5386044504975911e+02,	 3.5765440782671949e+03,	 4.0881904641848530e+02,	 4.0228661670179777e+00 
8.9740410000000004e-01,	 2.7382489999999998e-01,	 2.7397378626364363e-02,	 1.6011768222807327e+03,	 3.7543800402405424e+02,	 4.5390639935764614e+02,	 3.5777109876308386e+03,	 4.0883974278121383e+02,	 4.0226117975524929e+00 
8.9881889999999998e-01,	 2.7400059999999998e-01,	 2.7403357945371278e-02,	 1.6010730099284026e+03,	 3.7579274145214424e+02,	 4.5395110235647553e+02,	 3.5788442302853382e+03,	 4.0885987458878890e+02,	 4.0223646933466197e+00 
9.0023379999999997e-01,	 2.7417619999999998e-01,	 2.7409230201304254e-02,	 1.6009702913437775e+03,	 3.7614501632640633e+02,	 4.5399513043947621e+02,	 3.5799583210380852e+03,	 4.0887970148197314e+02,	 4.0221220420737280e+00 
9.0161429999999998e-01,	 2.7434749999999997e-01,	 2.7414929589634648e-02,	 1.6008699241713234e+03,	 3.7648979735791733e+02,	 4.5403795823617855e+02,	 3.5810405131099787e+03,	 4.0889898693526300e+02,	 4.0218863417477326e+00 
9.0299479999999999e-01,	 2.7451880000000001e-01,	 2.7420532850911575e-02,	 1.6007706105020407e+03,	 3.7683217219010123e+02,	 4.5408015518946314e+02,	 3.5821053114312172e+03,	 4.0891798742879519e+02,	 4.0216548168331983e+00 
9.0434199999999998e-01,	 2.7468589999999998e-01,	 2.7425969877177964e-02,	 1.6006735165083260e+03,	 3.7716739541033849e+02,	 4.5412123076169098e+02,	 3.5831396795223859e+03,	 4.0893648213760832e+02,	 4.0214297479828218e+00 
9.0568919999999997e-01,	 2.7485290000000001e-01,	 2.7431313622278380e-02,	 1.6005774367710983e+03,	 3.7750031180519125e+02,	 4.5416169299191483e+02,	 3.5841571476650029e+03,	 4.0895469986495692e+02,	 4.0212087226836051e+00 
9.0700389999999997e-01,	 2.7501589999999998e-01,	 2.7436507447060735e-02,	 1.6004835293871890e+03,	 3.7782618792070900e+02,	 4.5420108726446244e+02,	 3.5851467202703675e+03,	 4.0897243597503802e+02,	 4.0209938448598859e+00 
9.0831870000000003e-01,	 2.7517890000000000e-01,	 2.7441609453534407e-02,	 1.6003905564214640e+03,	 3.7814994629368482e+02,	 4.5423990858526355e+02,	 3.5861198882810286e+03,	 4.0898991337804330e+02,	 4.0207827323907601e+00 
9.0960189999999996e-01,	 2.7533789999999997e-01,	 2.7446562448222717e-02,	 1.6002996335872533e+03,	 3.7846697181070829e+02,	 4.5427772415761518e+02,	 3.5870657538723131e+03,	 4.0900693727388631e+02,	 4.0205773535671909e+00 
9.1088510000000000e-01,	 2.7549679999999999e-01,	 2.7451436381459138e-02,	 1.6002096150571601e+03,	 3.7878191957276084e+02,	 4.5431500574567497e+02,	 3.5879971764246880e+03,	 4.0902372008591919e+02,	 4.0203755041923683e+00 
9.1213770000000005e-01,	 2.7565200000000001e-01,	 2.7456172804915031e-02,	 1.6001216463624780e+03,	 3.7909017756891211e+02,	 4.5435129387362139e+02,	 3.5889028817510625e+03,	 4.0904005501710543e+02,	 4.0201793384821656e+00 
9.1339029999999999e-01,	 2.7580709999999997e-01,	 2.7460827104321059e-02,	 1.6000344747683098e+03,	 3.7939663541906759e+02,	 4.5438708994244513e+02,	 3.5897940629476166e+03,	 4.0905616781107875e+02,	 4.0199864046573017e+00 
9.1461309999999996e-01,	 2.7595839999999999e-01,	 2.7465346278917183e-02,	 1.5999492437370664e+03,	 3.7969667777113938e+02,	 4.5442194915829464e+02,	 3.5906602718984900e+03,	 4.0907185829182771e+02,	 4.0197987808563846e+00 
9.1583590000000004e-01,	 2.7610980000000002e-01,	 2.7469790961277316e-02,	 1.5998648686076547e+03,	 3.7999471682465946e+02,	 4.5445630501729840e+02,	 3.5915128540945070e+03,	 4.0908732161780591e+02,	 4.0196144517281667e+00 
9.1702980000000001e-01,	 2.7625749999999999e-01,	 2.7474110883998225e-02,	 1.5997823433203494e+03,	 3.8028662438894457e+02,	 4.5448977901420949e+02,	 3.5923422409890859e+03,	 4.0910238746180090e+02,	 4.0194351171015610e+00 
9.1822360000000003e-01,	 2.7640519999999996e-01,	 2.7478356459775234e-02,	 1.5997005817750498e+03,	 3.8057677514154113e+02,	 4.5452278827500919e+02,	 3.5931583153338220e+03,	 4.0911724359590386e+02,	 4.0192588147134103e+00 
9.1938940000000002e-01,	 2.7654930000000000e-01,	 2.7482480198469442e-02,	 1.5996206253579073e+03,	 3.8086091804274673e+02,	 4.5455493633742356e+02,	 3.5939517282592356e+03,	 4.0913171162090265e+02,	 4.0190873634317184e+00 
9.2055509999999996e-01,	 2.7669349999999998e-01,	 2.7486534895781848e-02,	 1.5995414414566205e+03,	 3.8114322218849185e+02,	 4.5458663494754944e+02,	 3.5947326339816614e+03,	 4.0914597687190940e+02,	 4.0189188403420406e+00 
9.2169350000000005e-01,	 2.7683419999999997e-01,	 2.7490469394366106e-02,	 1.5994640014090712e+03,	 3.8141971862793633e+02,	 4.5461749598039182e+02,	 3.5954912685269869e+03,	 4.0915986471216468e+02,	 4.0187550167161197e+00 
9.2283199999999999e-01,	 2.7697489999999997e-01,	 2.7494340760005113e-02,	 1.5993872729033174e+03,	 3.8169454886654478e+02,	 4.5464793561540984e+02,	 3.5962383819575925e+03,	 4.0917356245651268e+02,	 4.0185939397473271e+00 
9.2394390000000004e-01,	 2.7711219999999998e-01,	 2.7498100283426193e-02,	 1.5993122344648939e+03,	 3.8196373857232993e+02,	 4.5467757279699504e+02,	 3.5969645851116588e+03,	 4.0918689865865940e+02,	 4.0184373600815846e+00 
9.2505579999999998e-01,	 2.7724959999999998e-01,	 2.7501793296774348e-02,	 1.5992378909424669e+03,	 3.8223125999203404e+02,	 4.5470679745056077e+02,	 3.5976788878195052e+03,	 4.0920004880496225e+02,	 4.0182834375402257e+00 