TITLE = "Final State"
VARIABLES = "X", "Y", "rho", "u", "v", "T", "p", "c", "M"
ZONE I=51, J=48, DATAPACKING=POINT
5.6100000000000005e-01,	 0.0000000000000000e+00,	 4.7943754454474595e-02,	 4.3413267996685242e+01,	 2.2165540476199554e+00,	 7.9642852046307883e+02,	 1.0985220579362938e+04,	 5.4155597966094354e+02,	 8.0268371456166734e-02 
5.7074999999999998e-01,	 0.0000000000000000e+00,	 4.7947573911741356e-02,	 3.6601733024270899e+01,	 1.6769511891662767e+00,	 7.9714077098520568e+02,	 1.0995920648526226e+04,	 5.4179808382925501e+02,	 6.7626906995009173e-02 
5.8050000000000002e-01,	 0.0000000000000000e+00,	 4.7936130995756707e-02,	 3.1273654615155809e+01,	 1.0617069835624353e+00,	 7.9775771159839860e+02,	 1.1001804592206419e+04,	 5.4200770338788573e+02,	 5.7732890392003536e-02 
5.9025000000000005e-01,	 0.0000000000000000e+00,	 4.7930009049968914e-02,	 2.7083397094930525e+01,	 2.1029267672913581e+00,	 7.9826708688271287e+02,	 1.1007423398012383e+04,	 5.4218071410739356e+02,	 5.0103067097052041e-02 
5.9999999999999998e-01,	 0.0000000000000000e+00,	 4.7962578906523723e-02,	 1.6338490428584659e+01,	 1.1801848974948880e+01,	 7.9950815231685738e+02,	 1.1032028131777679e+04,	 5.4260201446241865e+02,	 3.7145357783179310e-02 
5.9999999999999998e-01,	 1.0000000000000000e-02,	 4.7887888456567843e-02,	 4.2492669463632353e+00,	 2.7881257345450202e+01,	 7.9997256301664811e+02,	 1.1021246539907388e+04,	 5.4275958233569338e+02,	 5.1962611196726384e-02 
5.9999999999999998e-01,	 2.0000000000000000e-02,	 4.7758222207688862e-02,	 2.4087930902741315e+00,	 3.6357803614011758e+01,	 7.9979961023223791e+02,	 1.0989027937596307e+04,	 5.4270090728879131e+02,	 6.7141053129865805e-02 
5.9999999999999998e-01,	 2.9999999999999999e-02,	 4.7674297938153580e-02,	 1.9308663431913149e+00,	 4.4301350189399798e+01,	 7.9946631855845271e+02,	 1.0965145918113150e+04,	 5.4258781862310559e+02,	 8.1725772185395021e-02 
5.9999999999999998e-01,	 4.0000000000000001e-02,	 4.7580418633158941e-02,	 1.6938944820919555e+00,	 5.3266732735344291e+01,	 7.9913309585170271e+02,	 1.0938992221392526e+04,	 5.4247472979045506e+02,	 9.8241735738429634e-02 
5.9999999999999998e-01,	 5.0000000000000003e-02,	 4.7472309743816735e-02,	 1.5022426094824777e+00,	 6.2889305491737687e+01,	 7.9869166429263987e+02,	 1.0908108571764520e+04,	 5.4232488081938379e+02,	 1.1599549875256233e-01 
5.9999999999999998e-01,	 5.9999999999999998e-02,	 4.7343512921123418e-02,	 1.3891240698497083e+00,	 7.2302530441623603e+01,	 7.9816316270450284e+02,	 1.0871315439298896e+04,	 5.4214542045688961e+02,	 1.3338833247911955e-01 
5.9999999999999998e-01,	 7.0000000000000007e-02,	 4.7202864880534032e-02,	 1.2354109696967825e+00,	 8.0554393951234758e+01,	 7.9775064160949341e+02,	 1.0833416933462500e+04,	 5.4200530165808493e+02,	 1.4864036661603977e-01 
5.9999999999999998e-01,	 8.0000000000000002e-02,	 4.7091307665171195e-02,	 7.3896626423067135e-01,	 8.8896273864433354e+01,	 7.9712226735481522e+02,	 1.0799300576853524e+04,	 5.4179179554866971e+02,	 1.6408396350176288e-01 
5.9999999999999998e-01,	 8.9999999999999997e-02,	 4.6989723022039305e-02,	 9.3270540059843676e-01,	 9.9501477388533232e+01,	 7.9605775441579954e+02,	 1.0761613730866078e+04,	 5.4142990811839820e+02,	 1.8378343584306681e-01 
5.9999999999999998e-01,	 1.0000000000000001e-01,	 4.6840859204567889e-02,	 9.2207552306137441e-01,	 1.1189633655356556e+02,	 7.9475811984320615e+02,	 1.0710007227711831e+04,	 5.4098776151836319e+02,	 2.0684411664134247e-01 
5.9999999999999998e-01,	 1.1000000000000000e-01,	 4.6639387086211903e-02,	 9.3786803847100897e-01,	 1.2542079832446220e+02,	 7.9325056655124524e+02,	 1.0643713179063667e+04,	 5.4047442608690108e+02,	 2.3206334805673037e-01 
5.9999999999999998e-01,	 1.2000000000000000e-01,	 4.6385327010520019e-02,	 9.6497304200113199e-01,	 1.4010458039844008e+02,	 7.9145126704724089e+02,	 1.0561722165326939e+04,	 5.3986110950625857e+02,	 2.5952583178761263e-01 
5.9999999999999998e-01,	 1.3000000000000000e-01,	 4.6067873851394076e-02,	 9.9859391979406609e-01,	 1.5628520991605834e+02,	 7.8925448796808371e+02,	 1.0460324719167184e+04,	 5.3911136045082969e+02,	 2.8990003112029400e-01 
5.9999999999999998e-01,	 1.4000000000000001e-01,	 4.5667550571202087e-02,	 1.0482208464448219e+00,	 1.7450051805432696e+02,	 7.8651192348889299e+02,	 1.0333393474252565e+04,	 5.3817387173811449e+02,	 3.2425146501881097e-01 
5.9999999999999998e-01,	 1.4999999999999999e-01,	 4.5153579943489675e-02,	 1.1192113189533659e+00,	 1.9553517892620840e+02,	 7.8297351345551692e+02,	 1.0171129805775696e+04,	 5.3696192162280727e+02,	 3.6415688732657481e-01 
5.9999999999999998e-01,	 1.6000000000000000e-01,	 4.4471388351790736e-02,	 1.1458978259286430e+00,	 2.2054628373147210e+02,	 7.7828357272456333e+02,	 9.9574581370329306e+03,	 5.3535132943324788e+02,	 4.1197107109049552e-01 
5.9999999999999998e-01,	 1.7000000000000001e-01,	 4.3522957264737948e-02,	 6.5068613095034111e-01,	 2.5161756835837070e+02,	 7.7180661489210092e+02,	 9.6639979847849463e+03,	 5.3311905035128086e+02,	 4.7197414823638961e-01 
5.9999999999999998e-01,	 1.7999999999999999e-01,	 4.2120482282800284e-02,	 -5.1497851401378636e-02,	 2.9467393630336079e+02,	 7.6261749853833794e+02,	 9.2412355221469206e+03,	 5.2993589418340116e+02,	 5.5605582493590655e-01 
5.9999999999999998e-01,	 1.9000000000000000e-01,	 3.8843892830868129e-02,	 5.9019236469188865e+00,	 3.9021911210721510e+02,	 7.4069363698124891e+02,	 8.2773496035878470e+03,	 5.2226300163482733e+02,	 7.4725519626905557e-01 
5.9999999999999998e-01,	 2.0000000000000001e-01,	 2.1564309606680519e-02,	 2.8972535687313194e+02,	 4.6015062781014342e+02,	 6.1883950062709619e+02,	 3.8392246291874453e+03,	 4.7737422581173024e+02,	 1.1390729912644848e+00 
6.0700529999999997e-01,	 2.0000000000000001e-01,	 3.2399113994923639e-03,	 6.9900204576851081e+02,	 2.8184039498444531e+02,	 4.8297591706868445e+02,	 4.5018243630376037e+02,	 4.2172824776753521e+02,	 1.7871292088971586e+00 
6.1401050000000001e-01,	 2.0000000000000001e-01,	 1.2979916095494561e-03,	 8.3698380950885200e+02,	 5.9104131582717066e+01,	 4.2079817047584709e+02,	 1.5713598980903646e+02,	 3.9364693566126715e+02,	 2.1315244090719725e+00 
6.2101580000000001e-01,	 2.0000000000000001e-01,	 1.2401847842343431e-03,	 8.7284879255142357e+02,	 -2.0278131384147798e+01,	 3.8564801138712596e+02,	 1.3759651438234602e+02,	 3.7684738126544573e+02,	 2.3168114101679853e+00 
6.2802100000000005e-01,	 2.0000000000000001e-01,	 1.3957604257234942e-03,	 8.7254937608770501e+02,	 -1.6062764051010252e+01,	 3.8799068756452334e+02,	 1.5579808668330853e+02,	 3.7799025597343234e+02,	 2.3087823019449250e+00 
6.3502630000000004e-01,	 2.0000000000000001e-01,	 1.5483191847478249e-03,	 8.6415633370578109e+02,	 -1.0173349997609794e+01,	 3.9700947987952884e+02,	 1.7684439905516558e+02,	 3.8235818560408745e+02,	 2.2602267911606426e+00 
6.4203149999999998e-01,	 2.0000000000000001e-01,	 1.6715630367258255e-03,	 8.5749709026163794e+02,	 -7.4024021725406239e+00,	 4.0420190205222036e+02,	 1.9437976347686424e+02,	 3.8580613550360528e+02,	 2.2226941503097177e+00 
6.4903679999999997e-01,	 2.0000000000000001e-01,	 1.7970439210830678e-03,	 8.5091260002328772e+02,	 -3.8967907120878715e+00,	 4.1065125645704268e+02,	 2.1230576396867846e+02,	 3.8887187269737137e+02,	 2.1881796614247033e+00 
6.5604200000000001e-01,	 2.0000000000000001e-01,	 1.9214933965291323e-03,	 8.4510315354497538e+02,	 -2.7899648103857535e+00,	 4.1632908011623755e+02,	 2.3014713911387111e+02,	 3.9155099058033039e+02,	 2.1583593942076789e+00 
6.6304730000000001e-01,	 2.0000000000000001e-01,	 2.0455718258815363e-03,	 8.3970708101191849e+02,	 -2.4959509344946191e+00,	 4.2157217663649601e+02,	 2.4809419980597150e+02,	 3.9400880174783634e+02,	 2.1311980513362934e+00 
6.7005250000000005e-01,	 2.0000000000000001e-01,	 2.1744658395905321e-03,	 8.3405455077722957e+02,	 -2.5797270971509088e+00,	 4.2695628817703164e+02,	 2.6709511248896177e+02,	 3.9651686209507881e+02,	 2.1034629798670141e+00 
6.7705780000000004e-01,	 2.0000000000000001e-01,	 2.3112786387355809e-03,	 8.2818453048279707e+02,	 -2.7133479069081741e+00,	 4.3252680664720316e+02,	 2.8760423169178620e+02,	 3.9909516646824147e+02,	 2.0751666391165728e+00 
6.8406310000000004e-01,	 2.0000000000000001e-01,	 2.4517526865709478e-03,	 8.2261483516589078e+02,	 -2.6673678119875310e+00,	 4.3784397321253925e+02,	 3.0883461657931707e+02,	 4.0154076461032605e+02,	 2.0486566550384131e+00 
6.9106829999999997e-01,	 2.0000000000000001e-01,	 2.5933987698925839e-03,	 8.1745892001387938e+02,	 -2.5754682224089969e+00,	 4.4276080860390681e+02,	 3.3034551119588167e+02,	 4.0378905185932547e+02,	 2.0244802907523471e+00 
6.9807359999999996e-01,	 2.0000000000000001e-01,	 2.7365712982429643e-03,	 8.1260024849584784e+02,	 -2.5298130433080255e+00,	 4.4737039016253334e+02,	 3.5221183212257296e+02,	 4.0588553272719764e+02,	 2.0020526008248924e+00 
7.0507880000000001e-01,	 2.0000000000000001e-01,	 2.8809647685573703e-03,	 8.0802220616071531e+02,	 -2.4891004332377209e+00,	 4.5170510335449501e+02,	 3.7438882918834520e+02,	 4.0784716909753541e+02,	 1.9811981084926555e+00 
7.1208410000000000e-01,	 2.0000000000000001e-01,	 3.0254547458306320e-03,	 8.0376336433321501e+02,	 -2.4267415826266658e+00,	 4.5573686845613918e+02,	 3.9667493796729150e+02,	 4.0966327770735631e+02,	 1.9620187395394670e+00 
7.1908930000000004e-01,	 2.0000000000000001e-01,	 3.1697859718947197e-03,	 7.9980082609702504e+02,	 -2.3688907320482899e+00,	 4.5948061274933320e+02,	 4.1901258591611997e+02,	 4.1134246789739422e+02,	 1.9443757857730197e+00 
7.2609460000000003e-01,	 2.0000000000000001e-01,	 3.3144176834268577e-03,	 7.9601994149786231e+02,	 -2.3289247556937562e+00,	 4.6302927999108653e+02,	 4.4151516958948179e+02,	 4.1292785572889716e+02,	 1.9277540551641723e+00 
7.3309979999999997e-01,	 2.0000000000000001e-01,	 3.4594920266805829e-03,	 7.9233788973475134e+02,	 -2.2922399578843455e+00,	 4.6645323604658108e+02,	 4.6424836384757799e+02,	 4.1445177956509826e+02,	 1.9117814050495074e+00 
7.4010509999999996e-01,	 2.0000000000000001e-01,	 3.6049051632008550e-03,	 7.8873288588934929e+02,	 -2.2490823533983959e+00,	 4.6977264285244871e+02,	 4.8720473842423752e+02,	 4.1592384053312401e+02,	 1.8963473974370408e+00 
7.4711030000000000e-01,	 2.0000000000000001e-01,	 3.7504707110554503e-03,	 7.8516830914836305e+02,	 -2.2057343069080826e+00,	 4.7301536383659368e+02,	 5.1037684491397755e+02,	 4.1735688001317817e+02,	 1.8812949899072908e+00 
7.5411560000000000e-01,	 2.0000000000000001e-01,	 3.8962637108593675e-03,	 7.8167267278564373e+02,	 -2.1620204714618318e+00,	 4.7616451595079855e+02,	 5.3374683089779251e+02,	 4.1874387512473510e+02,	 1.8667154534553219e+00 
7.6112080000000004e-01,	 2.0000000000000001e-01,	 4.0420073662550127e-03,	 7.7826497516551490e+02,	 -2.1514005477553315e+00,	 4.7920688979321949e+02,	 5.5725001855120536e+02,	 4.2007949220824162e+02,	 1.8526682763920441e+00 
7.6812610000000003e-01,	 2.0000000000000001e-01,	 4.2002564373304820e-03,	 7.7619521439808659e+02,	 -2.2281052634088341e+00,	 4.8132541465773625e+02,	 5.8162697091359303e+02,	 4.2100703252864838e+02,	 1.8436708946892051e+00 
7.7559060000000002e-01,	 2.0000000000000001e-01,	 4.3586116309092850e-03,	 7.7274017332639130e+02,	 -2.0378504783399509e+00,	 4.8440672089606551e+02,	 6.0741885810561598e+02,	 4.2235246538737709e+02,	 1.8296160759861078e+00 
7.8305499999999995e-01,	 2.0000000000000001e-01,	 4.4909363237453015e-03,	 7.6936044154172589e+02,	 -1.7814460040511104e+00,	 4.8761567284055582e+02,	 6.3000571768486748e+02,	 4.2374909300435490e+02,	 1.8156086153340512e+00 
5.5569170000000001e-01,	 1.3366340000000001e-02,	 4.7867159500584532e-02,	 5.0174532016714672e+01,	 1.4504101834893161e+01,	 7.9631111931702935e+02,	 1.0966053849208922e+04,	 5.4151606293631016e+02,	 9.6449306386778705e-02 
5.6361180000000000e-01,	 1.4776640000000001e-02,	 4.7890679565971490e-02,	 4.4519585512028350e+01,	 1.3874986013858939e+01,	 7.9689197918696971e+02,	 1.0979445133358753e+04,	 5.4171352822524204e+02,	 8.6081712163905547e-02 
5.7038940000000005e-01,	 1.6908920000000001e-02,	 4.7911370417090329e-02,	 3.9644696748015306e+01,	 1.3290363787993495e+01,	 7.9742296373493275e+02,	 1.0991507707483352e+04,	 5.4189397527521965e+02,	 7.7161044243346938e-02 
5.7551169999999996e-01,	 1.9565289999999999e-02,	 4.7911809122454657e-02,	 3.5851612556125019e+01,	 1.3631898248410325e+01,	 7.9775364235448205e+02,	 1.0996166397503359e+04,	 5.4200632103561873e+02,	 7.0766318430795463e-02 
5.7888399999999995e-01,	 2.2321379999999998e-02,	 4.7919055830213733e-02,	 2.9004842471553616e+01,	 2.0047258239320485e+01,	 7.9815044026015084e+02,	 1.1003299833238352e+04,	 5.4214109963456235e+02,	 6.5035956344543747e-02 
5.8154479999999997e-01,	 2.5937050000000000e-02,	 4.7863208380838393e-02,	 2.0358064328199951e+01,	 3.3056738501582821e+01,	 7.9812874260807484e+02,	 1.0990177219634974e+04,	 5.4213373055455634e+02,	 7.1610850639708998e-02 
5.8413769999999998e-01,	 3.1330190000000001e-02,	 4.7754201468922564e-02,	 1.6696171723284589e+01,	 4.2557985950931005e+01,	 7.9823908713082710e+02,	 1.0966663421742691e+04,	 5.4217120534845537e+02,	 8.4320060453209750e-02 
5.8620240000000001e-01,	 3.8438170000000001e-02,	 4.7666382142289548e-02,	 1.4601724096207631e+01,	 5.1272643848589006e+01,	 7.9829987413713798e+02,	 1.0947329467694435e+04,	 5.4219184849761120e+02,	 9.8325522282729977e-02 
5.8753509999999998e-01,	 4.6767980000000001e-02,	 4.7575960401917153e-02,	 1.3040285999137232e+01,	 6.0357529473155594e+01,	 7.9813982740017332e+02,	 1.0924372095871086e+04,	 5.4213749524720970e+02,	 1.1390126244177089e-01 
5.8833919999999995e-01,	 5.5868399999999999e-02,	 4.7473164034542804e-02,	 1.1547680994781230e+01,	 6.9770171780821300e+01,	 7.9774691546273323e+02,	 1.0895401756940073e+04,	 5.4200403585298761e+02,	 1.3047752539028720e-01 
5.8913479999999996e-01,	 6.5401009999999996e-02,	 4.7347851808918526e-02,	 9.9891210551445795e+00,	 7.9059615024419330e+01,	 7.9718071312020561e+02,	 1.0858929162238723e+04,	 5.4181165753036066e+02,	 1.4707726217395886e-01 
5.9113780000000005e-01,	 7.5340509999999999e-02,	 4.7210445949792387e-02,	 8.6317213165227944e+00,	 8.7235856716547190e+01,	 7.9659526977278540e+02,	 1.0819464430417556e+04,	 5.4161266984542260e+02,	 1.6185341049713070e-01 
5.9258359999999999e-01,	 8.3823229999999999e-02,	 4.7100426586011102e-02,	 8.1444492577654994e+00,	 9.5375181518683959e+01,	 7.9594411071129150e+02,	 1.0785427198460691e+04,	 5.4139125998245220e+02,	 1.7680797547028551e-01 
5.9304449999999997e-01,	 9.3505809999999995e-02,	 4.6979447933109209e-02,	 8.4510462626844376e+00,	 1.0586423975113401e+02,	 7.9504625993617253e+02,	 1.0745589490017732e+04,	 5.4108582037044835e+02,	 1.9627389913114057e-01 
5.9325419999999995e-01,	 1.0354729999999999e-01,	 4.6801350454408273e-02,	 8.7620207548776534e+00,	 1.1805271826547053e+02,	 7.9382100936543475e+02,	 1.0688356014334831e+04,	 5.4066872430587546e+02,	 2.1894633523314982e-01 
5.9344019999999997e-01,	 1.1363400000000000e-01,	 4.6575191170623989e-02,	 9.1396091007176885e+00,	 1.3144639944076025e+02,	 7.9230228187254613e+02,	 1.0616356415076498e+04,	 5.4015127669140509e+02,	 2.4393862501946281e-01 
5.9365389999999996e-01,	 1.2368500000000000e-01,	 4.6294345480303707e-02,	 9.6130976749252568e+00,	 1.4611334829114833e+02,	 7.9044110837794108e+02,	 1.0527552218249297e+04,	 5.3951647710437840e+02,	 2.7140828086999497e-01 
5.9389860000000005e-01,	 1.3368279999999999e-01,	 4.5945636872413216e-02,	 1.0220300170744249e+01,	 1.6238684951382518e+02,	 7.8813473772397515e+02,	 1.0417768036753139e+04,	 5.3872879414803890e+02,	 3.0202238292961259e-01 
5.9415600000000002e-01,	 1.4364550000000001e-01,	 4.5506287317346204e-02,	 1.1020113550108258e+01,	 1.8079836953619022e+02,	 7.8523895850383383e+02,	 1.0280238263862635e+04,	 5.3773817973093674e+02,	 3.3684405676590468e-01 
5.9440999999999999e-01,	 1.5360470000000001e-01,	 4.4940679247646956e-02,	 1.2068205854254883e+01,	 2.0213642304525729e+02,	 7.8146010814872272e+02,	 1.0103605549894226e+04,	 5.3644272520358129e+02,	 3.7747992238454980e-01 
5.9464010000000000e-01,	 1.6360410000000000e-01,	 4.4188784958406127e-02,	 1.3410497957358697e+01,	 2.2769198701111199e+02,	 7.7633580678666817e+02,	 9.8694196366050637e+03,	 5.3468101315046601e+02,	 4.2658437867908694e-01 
5.9484720000000002e-01,	 1.7370169999999999e-01,	 4.3133455072516827e-02,	 1.5753535731649022e+01,	 2.6018165085674497e+02,	 7.6906055645531012e+02,	 9.5434350613819151e+03,	 5.3216979664431540e+02,	 4.8980257891145834e-01 
5.9509120000000004e-01,	 1.8398809999999999e-01,	 4.1390317516771115e-02,	 2.4048799255222523e+01,	 3.0644011535996412e+02,	 7.5721150905424008e+02,	 9.0166643216763641e+03,	 5.2805426745091495e+02,	 5.8210365173140510e-01 
5.9569209999999995e-01,	 1.9436090000000000e-01,	 3.7620678212246059e-02,	 5.3484962521055692e+01,	 3.9627349522094931e+02,	 7.3124035364823999e+02,	 7.9143765282248387e+03,	 5.1891954494029665e+02,	 7.7057539449725576e-01 
5.9847349999999999e-01,	 2.0327539999999999e-01,	 2.2887961897727623e-02,	 3.1854681750391461e+02,	 4.8819335581450412e+02,	 6.1441109960947460e+02,	 4.0457226986238693e+03,	 4.7566311974988571e+02,	 1.2255055780173805e+00 
6.0591960000000000e-01,	 2.0406850000000001e-01,	 6.5743585178471911e-03,	 6.7536297427837758e+02,	 4.0017066106723024e+02,	 4.8687180075603567e+02,	 9.2086918916359514e+02,	 4.2342574877244687e+02,	 1.8539661597079633e+00 
6.1326749999999997e-01,	 2.0426340000000001e-01,	 2.9294804805897363e-03,	 8.3077707051275740e+02,	 2.0174410390488609e+02,	 4.2642321752805242e+02,	 3.5938619348766895e+02,	 3.9626925183103299e+02,	 2.1574264495570503e+00 
6.2049270000000001e-01,	 2.0434970000000000e-01,	 1.9276368692749078e-03,	 8.8899740903223267e+02,	 5.8310310174863424e+01,	 3.8610028568885627e+02,	 2.1411903861811061e+02,	 3.7706829313254678e+02,	 2.3627223272769902e+00 
6.2764050000000005e-01,	 2.0443310000000001e-01,	 1.6916021886274986e-03,	 9.0432092379060850e+02,	 -7.7919864752751788e+00,	 3.7002074404906364e+02,	 1.8007534186857498e+02,	 3.6913309972521859e+02,	 2.4499414798028956e+00 
6.3474050000000004e-01,	 2.0452780000000001e-01,	 1.7138528612405703e-03,	 9.0567568772902075e+02,	 -2.6940561851190367e+01,	 3.6667909113694895e+02,	 1.8079633296069622e+02,	 3.6746250107828047e+02,	 2.4657653186341202e+00 
6.4181149999999998e-01,	 2.0462870000000000e-01,	 1.8071821397610450e-03,	 9.0198197172438495e+02,	 -3.0274178775012743e+01,	 3.7081006920736371e+02,	 1.9278950224046531e+02,	 3.6952660580247044e+02,	 2.4422866357946962e+00 
6.4886200000000005e-01,	 2.0473620000000001e-01,	 1.9246376518887685e-03,	 8.9736775719117395e+02,	 -3.2134560551658986e+01,	 3.7637797525597171e+02,	 2.0840259228516047e+02,	 3.7229058590105240e+02,	 2.4119410293084340e+00 
6.5589869999999995e-01,	 2.0484900000000000e-01,	 2.0557283978082023e-03,	 8.9227139658402461e+02,	 -3.0373373810832383e+01,	 3.8208761425769512e+02,	 2.2597408292857963e+02,	 3.7510377380515803e+02,	 2.3801099104658756e+00 
6.6292540000000000e-01,	 2.0496490000000001e-01,	 2.1980581736591224e-03,	 8.8702045361682133e+02,	 -2.8714650907088057e+01,	 3.8757061339600364e+02,	 2.4508682176666042e+02,	 3.7778557716365657e+02,	 2.3491767851995382e+00 
6.6994560000000003e-01,	 2.0508129999999999e-01,	 2.3476388712946059e-03,	 8.8205627788837432e+02,	 -2.8182024274565205e+01,	 3.9261759259105366e+02,	 2.6517402763735424e+02,	 3.8023739980683700e+02,	 2.3209352276941133e+00 
6.7696109999999998e-01,	 2.0519720000000000e-01,	 2.4988501791271371e-03,	 8.7753364796732410e+02,	 -2.7818652488172098e+01,	 3.9722314836012742e+02,	 2.8556482091270777e+02,	 3.8246106337818600e+02,	 2.2955917875093226e+00 
6.8397359999999996e-01,	 2.0531189999999999e-01,	 2.6514665983505010e-03,	 8.7314640879755802e+02,	 -2.6981931612734549e+01,	 4.0166045744077462e+02,	 3.0639041614762471e+02,	 3.8459133291355079e+02,	 2.2714063781089302e+00 
6.9098430000000000e-01,	 2.0542550000000001e-01,	 2.8068178751618064e-03,	 8.6875931424359408e+02,	 -2.6038584636577632e+01,	 4.0605283381458975e+02,	 3.2788890158619893e+02,	 3.8668847324855994e+02,	 2.2476735226424656e+00 
6.9799420000000001e-01,	 2.0553810000000000e-01,	 2.9639784972993149e-03,	 8.6447475963406316e+02,	 -2.5122991073725025e+01,	 4.1031327688557133e+02,	 3.4988115876268455e+02,	 3.8871181254788615e+02,	 2.2248866934645468e+00 
7.0500419999999997e-01,	 2.0565050000000001e-01,	 3.1215065468694508e-03,	 8.6037639646705884e+02,	 -2.4148562259867596e+01,	 4.1436006837745595e+02,	 3.7211063606248428e+02,	 3.9062398083993497e+02,	 2.2034367220654683e+00 
7.1201550000000002e-01,	 2.0576349999999999e-01,	 3.2789269395104223e-03,	 8.5644937646734365e+02,	 -2.3137811520905409e+01,	 4.1820049487268693e+02,	 3.9449928440973986e+02,	 3.9243002202763859e+02,	 2.1832220181706719e+00 
7.1902929999999998e-01,	 2.0587670000000000e-01,	 3.4364548701997575e-03,	 8.5263294584539995e+02,	 -2.2224831652627493e+01,	 4.2189014982954563e+02,	 4.1709978696287590e+02,	 3.9415736542037314e+02,	 2.1639137792136354e+00 
7.2604760000000002e-01,	 2.0598669999999999e-01,	 3.5938641169619237e-03,	 8.4888036106371658e+02,	 -2.1427653744883219e+01,	 4.2547442203421923e+02,	 4.3991122824780371e+02,	 3.9582815500880815e+02,	 2.1452510348060634e+00 
7.3307259999999996e-01,	 2.0609320000000000e-01,	 3.7510998083268685e-03,	 8.4519173110201109e+02,	 -2.0706858370694022e+01,	 4.2896139411308565e+02,	 4.6292087512440708e+02,	 3.9744684845133423e+02,	 2.1271909720928841e+00 
7.4010699999999996e-01,	 2.0619799999999999e-01,	 3.9084386074727260e-03,	 8.4157121002035262e+02,	 -2.0042183295464543e+01,	 4.3235510564092755e+02,	 4.8615395581581396e+02,	 3.9901594381358871e+02,	 2.1097147708105544e+00 
7.4715430000000005e-01,	 2.0630270000000001e-01,	 4.0662935734635834e-03,	 8.3803733787427359e+02,	 -1.9444533706158126e+01,	 4.3565006401048686e+02,	 5.0964345327076069e+02,	 4.0053349907214204e+02,	 2.0928658652519991e+00 
7.5421819999999995e-01,	 2.0641319999999999e-01,	 4.2248144486845256e-03,	 8.3464553946977696e+02,	 -1.8890578819207047e+01,	 4.3881270587335729e+02,	 5.3335549192878591e+02,	 4.0198472496661390e+02,	 2.0768433127120116e+00 
7.6130900000000001e-01,	 2.0653420000000000e-01,	 4.3839812565279893e-03,	 8.3144958560268310e+02,	 -1.8423945267585211e+01,	 4.4181064457941307e+02,	 5.5723039966236638e+02,	 4.0335555381610038e+02,	 2.0618376991870604e+00 
7.6845680000000005e-01,	 2.0667620000000000e-01,	 4.5462578989622499e-03,	 8.2839787236045800e+02,	 -1.7998791155860975e+01,	 4.4458437427893409e+02,	 5.8148457761470615e+02,	 4.0461972524453199e+02,	 2.0478323955337858e+00 
7.7548720000000004e-01,	 2.0666480000000001e-01,	 4.6996117948349290e-03,	 8.2332819594598777e+02,	 -1.6959637886984424e+01,	 4.4876102873729758e+02,	 6.0674618942793734e+02,	 4.0651588526611482e+02,	 2.0257581118779111e+00 
7.8295519999999996e-01,	 2.0665570000000000e-01,	 4.8401198385361749e-03,	 8.1953110371490243e+02,	 -1.6017470593070144e+01,	 4.5231345475484147e+02,	 6.2983321337210066e+02,	 4.0812171870012719e+02,	 2.0084390988149949e+00 
5.4720939999999996e-01,	 2.6208519999999999e-02,	 4.7673891362561394e-02,	 6.1346369083346175e+01,	 2.6618399077759470e+01,	 7.9581975946658883e+02,	 1.0915038151212158e+04,	 5.4134896724743237e+02,	 1.2352916739665086e-01 
5.5357160000000005e-01,	 2.8184780000000000e-02,	 4.7704604962153778e-02,	 5.6974296921161333e+01,	 2.6780365909767106e+01,	 7.9616464817767405e+02,	 1.0926803451287338e+04,	 5.4146625820519512e+02,	 1.1626655430022743e-01 
5.5903760000000002e-01,	 3.0596390000000001e-02,	 4.7741150181892823e-02,	 5.2050044828523738e+01,	 2.8069418670337100e+01,	 7.9646370979813435e+02,	 1.0939281738697753e+04,	 5.4156794356217983e+02,	 1.0919456953055751e-01 
5.6339870000000003e-01,	 3.3303779999999998e-02,	 4.7765728752234643e-02,	 4.7484547688076326e+01,	 2.9847377283743512e+01,	 7.9670864098473953e+02,	 1.0948279424215341e+04,	 5.4165120955470218e+02,	 1.0354648433520501e-01 
5.6665730000000003e-01,	 3.6222320000000002e-02,	 4.7780796025569575e-02,	 4.2323640005854486e+01,	 3.3704974683555001e+01,	 7.9686593870321508e+02,	 1.0953895210546169e+04,	 5.4170467721535420e+02,	 9.9878544438336478e-02 
5.6949059999999996e-01,	 3.9765109999999999e-02,	 4.7789959268203022e-02,	 3.6101867296436545e+01,	 4.1957547750119616e+01,	 7.9683268847841100e+02,	 1.0955538759660372e+04,	 5.4169337544593782e+02,	 1.0218221413711330e-01 
5.7212609999999997e-01,	 4.4566250000000002e-02,	 4.7754954539300308e-02,	 3.0829310667657314e+01,	 5.1617744429747269e+01,	 7.9675971284540083e+02,	 1.0946511555548856e+04,	 5.4166857016205984e+02,	 1.1099688191765379e-01 
5.7442660000000001e-01,	 5.0607020000000003e-02,	 4.7678238350506233e-02,	 2.6815185755528567e+01,	 6.0998900622833474e+01,	 7.9658460711855855e+02,	 1.0926524601095862e+04,	 5.4160904501348602e+02,	 1.2302734931932605e-01 
5.7626980000000005e-01,	 5.7620810000000001e-02,	 4.7576692525598610e-02,	 2.3746782637048678e+01,	 7.0090841216936838e+01,	 7.9631944355914061e+02,	 1.0899623698973293e+04,	 5.4151889329929600e+02,	 1.3666059691754048e-01 
5.7791780000000004e-01,	 6.5395350000000005e-02,	 4.7456409309019371e-02,	 2.1301582026919604e+01,	 7.9218336035695430e+01,	 7.9595829653453347e+02,	 1.0867136607879062e+04,	 5.4139608447100363e+02,	 1.5151997997900954e-01 
5.7983560000000001e-01,	 7.3545059999999995e-02,	 4.7318505948089992e-02,	 1.9017121422048955e+01,	 8.8608889765911812e+01,	 7.9553737027800571e+02,	 1.0829827682705933e+04,	 5.4125291242006199e+02,	 1.6743860209388467e-01 
5.8310689999999998e-01,	 8.1889909999999996e-02,	 4.7174293461679020e-02,	 1.7044051594016004e+01,	 9.7112065239821476e+01,	 7.9508675354035927e+02,	 1.0790705994757296e+04,	 5.4109959959133380e+02,	 1.8221490897347567e-01 
5.8515519999999999e-01,	 8.9916389999999999e-02,	 4.7060828159090087e-02,	 1.6588503597396418e+01,	 1.0505139438814084e+02,	 7.9448283605790448e+02,	 1.0756575308008989e+04,	 5.4089406127594373e+02,	 1.9662457062765104e-01 
5.8608810000000000e-01,	 9.9513950000000004e-02,	 4.6918329621350750e-02,	 1.6637874991334314e+01,	 1.1530270236514868e+02,	 7.9359179177044984e+02,	 1.0711977374679140e+04,	 5.4059065901733959e+02,	 2.1549931859773105e-01 
5.8655590000000002e-01,	 1.0973629999999999e-01,	 4.6702726402680292e-02,	 1.7308193885666380e+01,	 1.2725684038955319e+02,	 7.9236037887117482e+02,	 1.0646207411155359e+04,	 5.4017108011331243e+02,	 2.3775521230959923e-01 
5.8690410000000004e-01,	 1.2006740000000000e-01,	 4.6432387283236336e-02,	 1.8325038680168973e+01,	 1.4063568202165411e+02,	 7.9075364643563580e+02,	 1.0563118549251622e+04,	 5.3962312816633016e+02,	 2.6282147574201070e-01 
5.8727730000000000e-01,	 1.3027800000000000e-01,	 4.6100747313558260e-02,	 1.9610149190497033e+01,	 1.5552245251463589e+02,	 7.8872181586010265e+02,	 1.0460724309597690e+04,	 5.3892940516351803e+02,	 2.9086169302939996e-01 
5.8769859999999996e-01,	 1.4034820000000001e-01,	 4.5691521829881045e-02,	 2.1174593413323080e+01,	 1.7222612260342740e+02,	 7.8615627278008185e+02,	 1.0334142472189022e+04,	 5.3805218028277636e+02,	 3.2250201293543646e-01 
5.8816179999999996e-01,	 1.5030430000000000e-01,	 4.5175734793390709e-02,	 2.3065053753719450e+01,	 1.9125599492140350e+02,	 7.8292781700748753e+02,	 1.0175526420151255e+04,	 5.3694625212048754e+02,	 3.5877291476389106e-01 
5.8865880000000004e-01,	 1.6021400000000000e-01,	 4.4512538346145450e-02,	 2.5379559911446030e+01,	 2.1347687692487892e+02,	 7.7865548974178660e+02,	 9.9714346677525718e+03,	 5.3547922785975095e+02,	 4.0147258425422094e-01 
5.8919259999999996e-01,	 1.7014150000000000e-01,	 4.3627515511524322e-02,	 2.8865924284715767e+01,	 2.4051083589635743e+02,	 7.7284439972835344e+02,	 9.7002400836803881e+03,	 5.3347735060348884e+02,	 4.5407152722296240e-01 
5.8983799999999997e-01,	 1.8014700000000000e-01,	 4.2333596368064205e-02,	 3.6480102809746420e+01,	 2.7583826026787358e+02,	 7.6425226784213885e+02,	 9.3079027756100204e+03,	 5.3050358320349744e+02,	 5.2448294734105894e-01 
5.9084360000000002e-01,	 1.9018119999999999e-01,	 4.0101795071615320e-02,	 5.5553812422784873e+01,	 3.2639579910912045e+02,	 7.4931230176704344e+02,	 8.6448331076220347e+03,	 5.2529272350564167e+02,	 6.3029577070750054e-01 
5.9283310000000000e-01,	 1.9973460000000001e-01,	 3.5891881940025516e-02,	 1.0663978798794190e+02,	 4.0303738655555571e+02,	 7.1933353598342546e+02,	 7.4277362829555714e+03,	 5.1467741088337959e+02,	 8.1003492790327547e-01 
5.9734109999999996e-01,	 2.0667880000000000e-01,	 2.3576278769269227e-02,	 3.4569519342741125e+02,	 4.9161691833416683e+02,	 6.0669520780434129e+02,	 4.1150560977726627e+03,	 4.7266694930846171e+02,	 1.2714932020825263e+00 
6.0478690000000002e-01,	 2.0749080000000000e-01,	 1.0334313369221531e-02,	 6.2040878325547953e+02,	 4.7589329008694483e+02,	 4.9893189801038994e+02,	 1.4833814182420215e+03,	 4.2863791993893386e+02,	 1.8241710175584074e+00 
6.1218320000000004e-01,	 2.0793819999999999e-01,	 5.3638458719749253e-03,	 7.8191151244109290e+02,	 3.2877692717812801e+02,	 4.4223374649979240e+02,	 6.8242999577135197e+02,	 4.0354864521465862e+02,	 2.1019066948447147e+00 
6.1946979999999996e-01,	 2.0826680000000000e-01,	 3.3435925627837079e-03,	 8.7218921369579039e+02,	 1.7705584630117949e+02,	 3.9883755255342953e+02,	 3.8365364668134845e+02,	 3.8323747917630271e+02,	 2.3222652993546999e+00 
6.2667870000000003e-01,	 2.0856130000000001e-01,	 2.5544369653134214e-03,	 9.1522711729360958e+02,	 6.8807732950207253e+01,	 3.6913282609728014e+02,	 2.7127376526310235e+02,	 3.6868993974819199e+02,	 2.4893817065987713e+00 
6.3383259999999997e-01,	 2.0884580000000000e-01,	 2.2445044965395786e-03,	 9.3473643576599795e+02,	 4.0645781479807228e+00,	 3.5283118365721640e+02,	 2.2783339351111994e+02,	 3.6045697553952942e+02,	 2.5932228706801692e+00 
6.4095179999999996e-01,	 2.0911790000000000e-01,	 2.1547921881583569e-03,	 9.4309337854486239e+02,	 -2.9105758777689001e+01,	 3.4457954832755991e+02,	 2.1361159718744048e+02,	 3.5621704961233138e+02,	 2.6487850702533091e+00 