TITLE = "Final State"
VARIABLES = "X", "Y", "rho", "u", "v", "T", "p", "c", "M"
ZONE I=51, J=46, DATAPACKING=POINT
1.5286560000000000e+00,	 7.3998799999999998e-01,	 1.9280308016585399e-02,	 7.8116250464454595e+02,	 -1.1628601314772958e+02,	 4.9118373700099170e+02,	 2.7245067249491244e+03,	 4.2529663157779243e+02,	 1.8569872136245240e+00 
1.5361250000000000e+00,	 7.3998929999999996e-01,	 1.9153938773954198e-02,	 7.8189708096340667e+02,	 -1.1665518205283823e+02,	 4.9043142163134792e+02,	 2.7025038398791876e+03,	 4.2497080666035873e+02,	 1.8602486635303133e+00 
1.5435939999999999e+00,	 7.3999070000000000e-01,	 1.9011102168214750e-02,	 7.8287565043244035e+02,	 -1.1704636300830310e+02,	 4.8954084851421794e+02,	 2.6774795936302526e+03,	 4.2458477965431973e+02,	 1.8643555550762561e+00 
1.5510640000000000e+00,	 7.3999199999999998e-01,	 1.8869827459665492e-02,	 7.8381874805219513e+02,	 -1.1742430236563186e+02,	 4.8865022656126558e+02,	 2.6527478489842833e+03,	 4.2419838016072725e+02,	 1.8683844137117651e+00 
1.5585329999999999e+00,	 7.3999320000000002e-01,	 1.8730009730727686e-02,	 7.8473232060880161e+02,	 -1.1779261404658108e+02,	 4.8776421561256097e+02,	 2.6283177982687594e+03,	 4.2381363161068822e+02,	 1.8723412223571765e+00 
1.5660019999999999e+00,	 7.3999450000000000e-01,	 1.8591502087334802e-02,	 7.8561984887134531e+02,	 -1.1815366475438574e+02,	 4.8688807134467925e+02,	 2.6041953058049517e+03,	 4.2343282386758602e+02,	 1.8762245410872687e+00 
1.5734710000000001e+00,	 7.3999559999999998e-01,	 1.8454132540131986e-02,	 7.8648077773344335e+02,	 -1.1851073716679147e+02,	 4.8602667913563954e+02,	 2.5803800900948481e+03,	 4.2305809379795016e+02,	 1.8800244183621546e+00 
1.5809400000000000e+00,	 7.3999680000000001e-01,	 1.8317665406692239e-02,	 7.8731238197201606e+02,	 -1.1886740464336691e+02,	 4.8518401913184488e+02,	 2.5568576335782527e+03,	 4.2269119131674751e+02,	 1.8837275562766713e+00 
1.5884090000000000e+00,	 7.3999789999999999e-01,	 1.8181762428202373e-02,	 7.8811622256305100e+02,	 -1.1922452830937453e+02,	 4.8436194427177759e+02,	 2.5335876305048073e+03,	 4.2233294464799587e+02,	 1.8873337626834943e+00 
1.5958779999999999e+00,	 7.3999899999999996e-01,	 1.8046121302112170e-02,	 7.8889804569906801e+02,	 -1.1957937536119610e+02,	 4.8356161388576379e+02,	 2.5105312295394624e+03,	 4.2198388168670073e+02,	 1.8908527051714024e+00 
1.6033470000000001e+00,	 7.4000010000000005e-01,	 1.7910733197914176e-02,	 7.8966252558519182e+02,	 -1.1992976433050305e+02,	 4.8278540328506210e+02,	 2.4876967172042646e+03,	 4.2164506249260199e+02,	 1.8942893594256676e+00 
1.6108160000000000e+00,	 7.4000120000000003e-01,	 1.7775780451729596e-02,	 7.9041058009628603e+02,	 -1.2027703737945696e+02,	 4.8203661565741805e+02,	 2.4651232839704521e+03,	 4.2131795533658527e+02,	 1.8976392918666118e+00 
1.6182850000000000e+00,	 7.4000220000000005e-01,	 1.7641398495672322e-02,	 7.9114288731299325e+02,	 -1.2062305362786928e+02,	 4.8131663496620160e+02,	 2.4428332318906523e+03,	 4.2100319278881449e+02,	 1.9009014206961174e+00 
1.6257539999999999e+00,	 7.4000319999999997e-01,	 1.7507584224164426e-02,	 7.9186058024290253e+02,	 -1.2096649847389909e+02,	 4.8062451588545900e+02,	 2.4208176743265217e+03,	 4.2070038882619951e+02,	 1.9040792010486973e+00 
1.6332230000000001e+00,	 7.4000420000000000e-01,	 1.7374274095676538e-02,	 7.9256408670817257e+02,	 -1.2130377978551991e+02,	 4.7995806122097474e+02,	 2.3990532978621841e+03,	 4.2040860699795036e+02,	 1.9071761397411566e+00 
1.6406920000000000e+00,	 7.4000520000000003e-01,	 1.7241418557247090e-02,	 7.9325230374448438e+02,	 -1.2163184889091440e+02,	 4.7931480988915501e+02,	 2.3775178188846126e+03,	 4.2012679168152454e+02,	 1.9101929209648267e+00 
1.6481610000000000e+00,	 7.4000619999999995e-01,	 1.7109051515570038e-02,	 7.9392354233570063e+02,	 -1.2194889914312911e+02,	 4.7869276387823550e+02,	 2.3562031594082941e+03,	 4.1985408673427366e+02,	 1.9131284263813877e+00 
1.6556299999999999e+00,	 7.4000719999999998e-01,	 1.6977261074537807e-02,	 7.9457666468986508e+02,	 -1.2225418283733165e+02,	 4.7809081881943996e+02,	 2.3351133587476547e+03,	 4.1959002530255918e+02,	 1.9159814709630509e+00 
1.6630990000000001e+00,	 7.4000809999999995e-01,	 1.6846110837792628e-02,	 7.9521211143273274e+02,	 -1.2254735259695674e+02,	 4.7750811226195702e+02,	 2.3142503886907930e+03,	 4.1933424502534558e+02,	 1.9187542765866588e+00 
1.6705680000000001e+00,	 7.4000909999999998e-01,	 1.6715600128630857e-02,	 7.9583143639291416e+02,	 -1.2282773252537959e+02,	 4.7694376901480337e+02,	 2.2936074479785848e+03,	 4.1908637655407995e+02,	 1.9214516274098492e+00 
1.6780370000000000e+00,	 7.4000999999999995e-01,	 1.6585690755435190e-02,	 7.9643663133495636e+02,	 -1.2309482487488101e+02,	 4.7639777198771583e+02,	 2.2731768406907640e+03,	 4.1884642642227323e+02,	 1.9240777078465972e+00 
1.6855059999999999e+00,	 7.4001090000000003e-01,	 1.6456376740295094e-02,	 7.9703056249768179e+02,	 -1.2334926567128743e+02,	 4.7587184102632898e+02,	 2.2529635504536277e+03,	 4.1861516470431360e+02,	 1.9266356839441752e+00 
1.6929740000000000e+00,	 7.4001189999999994e-01,	 1.6327671924348069e-02,	 7.9761691552559569e+02,	 -1.2359284947067329e+02,	 4.7536928541773653e+02,	 2.2329825053158261e+03,	 4.1839406213680928e+02,	 1.9291278484917198e+00 
1.7004429999999999e+00,	 7.4001280000000003e-01,	 1.6199591702850121e-02,	 7.9820003624040783e+02,	 -1.2382759107893676e+02,	 4.7489422057657947e+02,	 2.2132521277433498e+03,	 4.1818494682493366e+02,	 1.9315564664956577e+00 
1.7079120000000001e+00,	 7.4001370000000000e-01,	 1.6072117811357620e-02,	 7.9878323303198681e+02,	 -1.2405556925859938e+02,	 4.7445144765114395e+02,	 2.1937888294601194e+03,	 4.1798995166221061e+02,	 1.9339199392070801e+00 
1.7153810000000000e+00,	 7.4001459999999997e-01,	 1.5945066185832864e-02,	 7.9936755021959675e+02,	 -1.2427834795414387e+02,	 4.7404376051476748e+02,	 2.1745765399323568e+03,	 4.1781032764552702e+02,	 1.9362151750907657e+00 
1.7228500000000000e+00,	 7.4001550000000005e-01,	 1.5818089819254200e-02,	 7.9995038225685869e+02,	 -1.2449654199549310e+02,	 4.7367163607697796e+02,	 2.1555661461530890e+03,	 4.1764630485832254e+02,	 1.9384348204625022e+00 
1.7303180000000000e+00,	 7.4001640000000002e-01,	 1.5690900678020141e-02,	 8.0052922342353486e+02,	 -1.2471198955578348e+02,	 4.7333562663313893e+02,	 2.1367169966735150e+03,	 4.1749814526013830e+02,	 1.9405720623592613e+00 
1.7377870000000000e+00,	 7.4001720000000004e-01,	 1.5563515704466450e-02,	 8.0110708298959378e+02,	 -1.2492855077338558e+02,	 4.7303734023933981e+02,	 2.1180346944709991e+03,	 4.1736657514895433e+02,	 1.9426317354705271e+00 
1.7452559999999999e+00,	 7.4001810000000001e-01,	 1.5436174663885957e-02,	 8.0168900658590087e+02,	 -1.2514965287934815e+02,	 4.7277775976317292e+02,	 2.0995521189832093e+03,	 4.1725204393527480e+02,	 1.9446246422462283e+00 
1.7527250000000001e+00,	 7.4001899999999998e-01,	 1.5309055892723538e-02,	 8.0227896490609771e+02,	 -1.2537945062331183e+02,	 4.7255162889206804e+02,	 2.0812661010265724e+03,	 4.1715224561428056e+02,	 1.9465721905022320e+00 
1.7601940000000000e+00,	 7.4001989999999995e-01,	 1.5181947054592923e-02,	 8.0288297799397355e+02,	 -1.2563329419673184e+02,	 4.7234385007289251e+02,	 2.0630781296976379e+03,	 4.1706052555079850e+02,	 1.9485251906096679e+00 
1.7676620000000001e+00,	 7.4002069999999998e-01,	 1.5053311631356335e-02,	 8.0352441990050670e+02,	 -1.2596729856443889e+02,	 4.7211608773346427e+02,	 2.0446114544985214e+03,	 4.1695996095705772e+02,	 1.9506389465577276e+00 
1.7751310000000000e+00,	 7.4002159999999995e-01,	 1.4914705347204070e-02,	 8.0431861758800073e+02,	 -1.2664220155784461e+02,	 4.7171787224575041e+02,	 2.0240766103168196e+03,	 4.1678407737069369e+02,	 1.9535958937993925e+00 
1.7826000000000000e+00,	 7.4002250000000003e-01,	 1.4768672232194951e-02,	 8.0518552324793563e+02,	 -1.2760334320949929e+02,	 4.7121174510549150e+02,	 2.0021079789567139e+03,	 4.1656042425169358e+02,	 1.9570604164910923e+00 
1.7900689999999999e+00,	 7.4002330000000005e-01,	 1.4654160318009516e-02,	 8.0570765855113109e+02,	 -1.2767856872265058e+02,	 4.7118886176870268e+02,	 1.9864877521586318e+03,	 4.1655030946963285e+02,	 1.9583742299894280e+00 
1.7975369999999999e+00,	 7.4002420000000002e-01,	 1.4624871499808350e-02,	 8.0501221476245792e+02,	 -1.2567196256809964e+02,	 4.7276511579883788e+02,	 1.9891494766948936e+03,	 4.1724646440543523e+02,	 1.9527130315868861e+00 
1.8050060000000001e+00,	 7.4002509999999999e-01,	 1.4959590577634994e-02,	 7.9883490784653759e+02,	 -1.1264431930384876e+02,	 4.7912817785413102e+02,	 2.0620602851846584e+03,	 4.2004499079559542e+02,	 1.9205986596339248e+00 
1.8124750000000001e+00,	 7.4002590000000001e-01,	 1.6261377448350510e-02,	 7.7918274794649051e+02,	 -7.4260099357504927e+01,	 4.9938492998826132e+02,	 2.3362682148543167e+03,	 4.2883247817912871e+02,	 1.8252195719697026e+00 
1.8199440000000000e+00,	 7.4002679999999998e-01,	 1.8419943656456786e-02,	 7.5031786596168718e+02,	 -2.0383681898577336e+01,	 5.2897287401394885e+02,	 2.8031842003550410e+03,	 4.4135358077982420e+02,	 1.7006652411110856e+00 
1.8274120000000000e+00,	 7.4002760000000001e-01,	 2.0194307474086893e-02,	 7.2745008284292726e+02,	 1.6701524837504639e+01,	 5.4961276590648754e+02,	 3.1931234813994552e+03,	 4.4988173291057177e+02,	 1.6174068193712097e+00 
1.8348810000000000e+00,	 7.4002849999999998e-01,	 2.1011419281717004e-02,	 7.1630829616478400e+02,	 3.2042871899312516e+01,	 5.5722044319837005e+02,	 3.3683124302734200e+03,	 4.5298463814472018e+02,	 1.5828895069639477e+00 
1.8423499999999999e+00,	 7.4002939999999995e-01,	 2.1279822672920799e-02,	 7.1156844816168382e+02,	 3.7565495422133125e+01,	 5.5882967487554765e+02,	 3.4211916388106433e+03,	 4.5363826786721518e+02,	 1.5707655138042287e+00 
1.8498190000000001e+00,	 7.4003019999999997e-01,	 2.1360380009044406e-02,	 7.0999502839959291e+02,	 4.0509044481039453e+01,	 5.5866560732245830e+02,	 3.4331347378865439e+03,	 4.5357167084530550e+02,	 1.5678883070837979e+00 
1.8572869999999999e+00,	 7.4003110000000005e-01,	 2.1394267004221978e-02,	 7.1029113731492919e+02,	 4.2769395909640721e+01,	 5.5810682432770705e+02,	 3.4351419018871925e+03,	 4.5334478060872351e+02,	 1.5696168978906118e+00 
1.8647560000000001e+00,	 7.4003189999999996e-01,	 2.1423140866088153e-02,	 7.1079310379027061e+02,	 4.4981632813233432e+01,	 5.5748662148703261e+02,	 3.4359555007736999e+03,	 4.5309281820287401e+02,	 1.5718964317332831e+00 
1.8722250000000000e+00,	 7.4003280000000005e-01,	 2.1445229595774457e-02,	 7.1155746501600061e+02,	 4.7133171258293849e+01,	 5.5672525440981394e+02,	 3.4348008373146586e+03,	 4.5278331497495532e+02,	 1.5749626154334404e+00 
1.8796930000000001e+00,	 7.4003359999999996e-01,	 2.1463458767704585e-02,	 7.1252543182353975e+02,	 4.9236989784076904e+01,	 5.5581595146978134e+02,	 3.4321056833635630e+03,	 4.5241339691504902e+02,	 1.5786990392172204e+00 
1.8871620000000000e+00,	 7.4003450000000004e-01,	 2.1480574636545555e-02,	 7.1365253545319877e+02,	 5.1302516884114567e+01,	 5.5477141491328348e+02,	 3.4283875414318532e+03,	 4.5198809015733377e+02,	 1.5829933867887547e+00 
1.8946310000000000e+00,	 7.4003540000000001e-01,	 2.1492852209603661e-02,	 7.1494673137203449e+02,	 5.3335018153016065e+01,	 5.5359266268170722e+02,	 3.4230584519957092e+03,	 4.5150765329255256e+02,	 1.5878653703244840e+00 
1.9020999999999999e+00,	 7.4003620000000003e-01,	 2.1513404523206471e-02,	 7.1607472092650494e+02,	 5.5127940617013124e+01,	 5.5249430411570609e+02,	 3.4195336833171446e+03,	 4.5105952278230518e+02,	 1.5922369391036795e+00 
1.5286550000000001e+00,	 7.4574759999999995e-01,	 1.9231120780300984e-02,	 7.7761457936169495e+02,	 -1.1296545128022355e+02,	 4.9449829668811367e+02,	 2.7358944153164593e+03,	 4.2672919214742274e+02,	 1.8413951972374396e+00 
1.5361240000000000e+00,	 7.4574910000000005e-01,	 1.9104011754397732e-02,	 7.7829731798377679e+02,	 -1.1332237029017367e+02,	 4.9374786930658752e+02,	 2.7136869655618152e+03,	 4.2640527712493889e+02,	 1.8444989464250214e+00 
1.5435930000000000e+00,	 7.4575049999999998e-01,	 1.8960103180274804e-02,	 7.7921380815707494e+02,	 -1.1369914589265325e+02,	 4.9285844419745092e+02,	 2.6883934936311903e+03,	 4.2602104609011752e+02,	 1.8484188579830270e+00 
1.5510630000000001e+00,	 7.4575179999999996e-01,	 1.8817914184329765e-02,	 7.8009955474214303e+02,	 -1.1406297729362481e+02,	 4.9196810111501338e+02,	 2.6634120817941398e+03,	 4.2563607110064021e+02,	 1.8522733871588435e+00 
1.5585320000000000e+00,	 7.4575309999999995e-01,	 1.8677296026768882e-02,	 7.8096074336948232e+02,	 -1.1441761543899239e+02,	 4.9108330308636391e+02,	 2.6387552354324725e+03,	 4.2525314847150196e+02,	 1.8560658245932256e+00 
1.5660010000000000e+00,	 7.4575440000000004e-01,	 1.8538032013591617e-02,	 7.8180092437936105e+02,	 -1.1476696903676233e+02,	 4.9021000924613679e+02,	 2.6144223036461608e+03,	 4.2487486621058525e+02,	 1.8597942110228016e+00 
1.5734699999999999e+00,	 7.4575559999999996e-01,	 1.8399892997349343e-02,	 7.8261886452522560e+02,	 -1.1511505677894021e+02,	 4.8935373013433184e+02,	 2.5904077933303311e+03,	 4.2450362686630507e+02,	 1.8634462049263418e+00 
1.5809390000000001e+00,	 7.4575680000000000e-01,	 1.8262590718942741e-02,	 7.8341244231424548e+02,	 -1.1546455948462317e+02,	 4.8851846516149294e+02,	 2.5666893448743581e+03,	 4.2414118511853104e+02,	 1.8670096765863486e+00 
1.5884080000000000e+00,	 7.4575800000000003e-01,	 1.8125725669226628e-02,	 7.8418452010777321e+02,	 -1.1581506935356752e+02,	 4.8770563113273073e+02,	 2.5432151981359762e+03,	 4.2378817910111337e+02,	 1.8704879112481652e+00 
1.5958779999999999e+00,	 7.4575919999999996e-01,	 1.7989008042286869e-02,	 7.8494105633397885e+02,	 -1.1616404646479313e+02,	 4.8691598761737055e+02,	 2.5199457310462185e+03,	 4.2344496269110658e+02,	 1.8738919469243289e+00 
1.6033470000000001e+00,	 7.4576030000000004e-01,	 1.7852519630657079e-02,	 7.8568447233848974e+02,	 -1.1651013796828616e+02,	 4.8615265429735189e+02,	 2.4969055692114962e+03,	 4.2311291728922367e+02,	 1.8772204307865279e+00 
1.6108160000000000e+00,	 7.4576149999999997e-01,	 1.7716521096075112e-02,	 7.8641417274072774e+02,	 -1.1685428719199948e+02,	 4.8541943151535565e+02,	 2.4741472339780867e+03,	 4.2279372424200579e+02,	 1.8804643754074055e+00 
1.6182850000000000e+00,	 7.4576260000000005e-01,	 1.7581152120173135e-02,	 7.8713139965729943e+02,	 -1.1719709273504751e+02,	 4.8471710481500531e+02,	 2.4516903328596400e+03,	 4.2248775502646009e+02,	 1.8836247532571488e+00 
1.6257539999999999e+00,	 7.4576359999999997e-01,	 1.7446359654613521e-02,	 7.8783813188675720e+02,	 -1.1753676848317514e+02,	 4.8404368217303596e+02,	 2.4295134888096668e+03,	 4.2219416964929786e+02,	 1.8867088514238068e+00 
1.6332220000000000e+00,	 7.4576469999999995e-01,	 1.7312036945153805e-02,	 7.8853506812548494e+02,	 -1.1787057877912748e+02,	 4.8339592645669586e+02,	 2.4075820350216677e+03,	 4.2191158126767937e+02,	 1.8897231262706489e+00 
1.6406909999999999e+00,	 7.4576580000000003e-01,	 1.7178113159236747e-02,	 7.8922109414693716e+02,	 -1.1819629651944658e+02,	 4.8277066829878493e+02,	 2.3858672321685754e+03,	 4.2163862797576076e+02,	 1.8926699098735609e+00 
1.6481600000000001e+00,	 7.4576679999999995e-01,	 1.7044621114325441e-02,	 7.8989405377350067e+02,	 -1.1851231507815353e+02,	 4.8216596097664751e+02,	 2.3643612708734126e+03,	 4.2137447785836423e+02,	 1.8955469722188609e+00 
1.6556290000000000e+00,	 7.4576779999999998e-01,	 1.6911673952957444e-02,	 7.9055287745351052e+02,	 -1.1881771176713977e+02,	 4.8158116520290810e+02,	 2.3430741233433846e+03,	 4.2111886796858539e+02,	 1.8983523348914488e+00 
1.6630980000000000e+00,	 7.4576889999999996e-01,	 1.6779396981702437e-02,	 7.9119852191280768e+02,	 -1.1911171392287915e+02,	 4.8101665669677396e+02,	 2.3220223841246930e+03,	 4.2087197823705719e+02,	 1.9010868426604672e+00 
1.6705669999999999e+00,	 7.4576989999999999e-01,	 1.6647841497931033e-02,	 7.9183327986030804e+02,	 -1.1939317782152253e+02,	 4.8047253751589301e+02,	 2.3012109901553786e+03,	 4.2063386869222114e+02,	 1.9037548968441746e+00 
1.6780360000000001e+00,	 7.4577090000000001e-01,	 1.6516948164972234e-02,	 7.9245906873034539e+02,	 -1.1966114328058364e+02,	 4.7994874268676557e+02,	 2.2806287857095622e+03,	 4.2040452579657239e+02,	 1.9063604296317656e+00 
1.6855050000000000e+00,	 7.4577190000000004e-01,	 1.6386654013392964e-02,	 7.9307834387837897e+02,	 -1.1991678806754710e+02,	 4.7944613729370747e+02,	 2.2602685680890177e+03,	 4.2018434298311536e+02,	 1.9089075665117450e+00 
1.6929740000000000e+00,	 7.4577289999999996e-01,	 1.6256945441103048e-02,	 7.9369483440068780e+02,	 -1.2016291528013663e+02,	 4.7896721070630912e+02,	 2.2401374630542841e+03,	 4.1997442604170351e+02,	 1.9114007784803453e+00 
1.7004420000000000e+00,	 7.4577380000000004e-01,	 1.6127832612667370e-02,	 7.9431292594048728e+02,	 -1.2040260400537917e+02,	 4.7851534633295938e+02,	 2.2202496756205419e+03,	 4.1977627441879844e+02,	 1.9138443820539042e+00 
1.7079110000000000e+00,	 7.4577479999999996e-01,	 1.5999338324723271e-02,	 7.9493634128670124e+02,	 -1.2063823292579232e+02,	 4.7809458030671146e+02,	 2.2006236712440859e+03,	 4.1959167590885920e+02,	 1.9162395506042018e+00 
1.7153799999999999e+00,	 7.4577579999999999e-01,	 1.5871411979402537e-02,	 7.9556671784023399e+02,	 -1.2087132159917519e+02,	 4.7770732690247013e+02,	 2.1812598464927701e+03,	 4.1942170826174140e+02,	 1.9185854557098705e+00 
1.7228490000000001e+00,	 7.4577669999999996e-01,	 1.5743809121311767e-02,	 7.9620114713275757e+02,	 -1.2110207459056232e+02,	 4.7735304555835438e+02,	 2.1621182915516420e+03,	 4.1926615187956190e+02,	 1.9208760087288481e+00 
1.7303180000000000e+00,	 7.4577769999999999e-01,	 1.5616286984683730e-02,	 7.9683548395984872e+02,	 -1.2133143214063226e+02,	 4.7702959593172517e+02,	 2.1431523434147084e+03,	 4.1912408254369399e+02,	 1.9231057090954422e+00 
1.7377860000000001e+00,	 7.4577859999999996e-01,	 1.5488867778571124e-02,	 7.9747069529195267e+02,	 -1.2156308446462978e+02,	 4.7673494461042350e+02,	 2.1243525712374876e+03,	 4.1899462040779605e+02,	 1.9252819294357115e+00 
1.7452550000000000e+00,	 7.4577959999999999e-01,	 1.5361837146418153e-02,	 7.9811127779557160e+02,	 -1.2180054216958918e+02,	 4.7646640342179495e+02,	 2.1057430565835593e+03,	 4.1887659553447003e+02,	 1.9274216859536841e+00 
1.7527239999999999e+00,	 7.4578049999999996e-01,	 1.5235569410558560e-02,	 7.9875978211122811e+02,	 -1.2204475595929243e+02,	 4.7621738498245907e+02,	 2.0873432576920345e+03,	 4.1876712125917686e+02,	 1.9295444429447250e+00 
1.7601929999999999e+00,	 7.4578149999999999e-01,	 1.5110376584388444e-02,	 7.9941676382347305e+02,	 -1.2229595880832051e+02,	 4.7597786791199457e+02,	 2.0691500451949360e+03,	 4.1866179699727456e+02,	 1.9316717634923668e+00 
1.7676620000000001e+00,	 7.4578239999999996e-01,	 1.4986298964167585e-02,	 8.0008769217090935e+02,	 -1.2256070816363956e+02,	 4.7573456138547419e+02,	 2.0511103827217594e+03,	 4.1855477923951128e+02,	 1.9338458816639512e+00 
1.7751300000000001e+00,	 7.4578330000000004e-01,	 1.4861685312373741e-02,	 8.0081013132886244e+02,	 -1.2288813946068181e+02,	 4.7545489377283360e+02,	 2.0328592979303844e+03,	 4.1843173433828042e+02,	 1.9362397404309850e+00 
1.7825990000000000e+00,	 7.4578429999999996e-01,	 1.4727198879583292e-02,	 8.0165634487469572e+02,	 -1.2359967384173098e+02,	 4.7498146155094662e+02,	 2.0124576443456738e+03,	 4.1822335662786304e+02,	 1.9394629478916572e+00 
1.7900680000000000e+00,	 7.4578520000000004e-01,	 1.4590576249736351e-02,	 8.0252111818279036e+02,	 -1.2456446291417842e+02,	 4.7437826015409240e+02,	 1.9912562866770540e+03,	 4.1795771146319601e+02,	 1.9430932520064079e+00 
1.7975369999999999e+00,	 7.4578610000000001e-01,	 1.4477690505730365e-02,	 8.0301856952948901e+02,	 -1.2457807003115911e+02,	 4.7391120735663236e+02,	 1.9739048089685991e+03,	 4.1775190904043166e+02,	 1.9452321960237575e+00 
1.8050050000000000e+00,	 7.4578710000000004e-01,	 1.4509971554836704e-02,	 8.0120843247170671e+02,	 -1.2038080383018908e+02,	 4.7602776930536709e+02,	 1.9871414697344726e+03,	 4.1868374261794963e+02,	 1.9351157678704751e+00 
1.8124739999999999e+00,	 7.4578800000000001e-01,	 1.4956234341580605e-02,	 7.9286109498573433e+02,	 -1.0447753678641602e+02,	 4.8492597240982786e+02,	 2.0865444648890402e+03,	 4.2257877151441164e+02,	 1.8924640160759654e+00 
1.8199430000000001e+00,	 7.4578889999999998e-01,	 1.6304049261718072e-02,	 7.7276704104370560e+02,	 -6.7943452461545832e+01,	 5.0383999756129953e+02,	 2.3632956605216991e+03,	 4.3074106167746999e+02,	 1.8009617193594238e+00 
1.8274120000000000e+00,	 7.4578990000000001e-01,	 1.8322193974779011e-02,	 7.4476395279631845e+02,	 -2.0342576028469075e+01,	 5.2891584706251501e+02,	 2.7880078574946883e+03,	 4.4132978964719820e+02,	 1.6881745540681734e+00 
1.8348800000000001e+00,	 7.4579079999999998e-01,	 1.9979578401383730e-02,	 7.2250533825597734e+02,	 1.5401862454042284e+01,	 5.4815061672832746e+02,	 3.1507661010949555e+03,	 4.4928291833006597e+02,	 1.6084953448735089e+00 
1.8423490000000000e+00,	 7.4579169999999995e-01,	 2.0794823201644601e-02,	 7.1203933680725345e+02,	 3.2365884928791054e+01,	 5.5679015617484811e+02,	 3.3310159966084011e+03,	 4.5280970643078206e+02,	 1.5741150109376816e+00 
1.8498180000000000e+00,	 7.4579260000000003e-01,	 2.1084989110284579e-02,	 7.0826009457103874e+02,	 3.8996122722807627e+01,	 5.5903964520877059e+02,	 3.3911416133519187e+03,	 4.5372348312783089e+02,	 1.5633592995696899e+00 
1.8572860000000000e+00,	 7.4579359999999995e-01,	 2.1181709830569991e-02,	 7.0696989882619835e+02,	 4.2183277312449960e+01,	 5.5928956165928662e+02,	 3.4082203537227842e+03,	 4.5382488943528551e+02,	 1.5605738843840637e+00 
1.8647549999999999e+00,	 7.4579450000000003e-01,	 2.1213964756806831e-02,	 7.0721839814765167e+02,	 4.4602515690495778e+01,	 5.5911925017702515e+02,	 3.4123708670072788e+03,	 4.5375578616580407e+02,	 1.5616847413044022e+00 
1.8722240000000001e+00,	 7.4579540000000000e-01,	 2.1236375135960595e-02,	 7.0778840894823315e+02,	 4.6835972522649598e+01,	 5.5860658240848795e+02,	 3.4128435097143356e+03,	 4.5354770952060932e+02,	 1.5639729248727074e+00 
1.8796930000000001e+00,	 7.4579629999999997e-01,	 2.1255193369939265e-02,	 7.0858213067359338e+02,	 4.8972438938669285e+01,	 5.5787346064815642e+02,	 3.4113847154894338e+03,	 4.5324999116801195e+02,	 1.5670655300396814e+00 
1.8871610000000001e+00,	 7.4579730000000000e-01,	 2.1272503694021703e-02,	 7.0956694690123459e+02,	 5.1042211220912620e+01,	 5.5696353173755097e+02,	 3.4085942343415918e+03,	 4.5288019979919125e+02,	 1.5708357787339944e+00 
1.8946300000000000e+00,	 7.4579819999999997e-01,	 2.1285233721725545e-02,	 7.1073785344265900e+02,	 5.3074718143955806e+01,	 5.5589755243000525e+02,	 3.4041063729716329e+03,	 4.5244660576109032e+02,	 1.5752506050787547e+00 
1.9020990000000000e+00,	 7.4579910000000005e-01,	 2.1305173711623777e-02,	 7.1176858382597709e+02,	 5.4874280840443717e+01,	 5.5489181413475558e+02,	 3.4011308066182391e+03,	 4.5203713383591617e+02,	 1.5792524140942221e+00 
1.5286540000000000e+00,	 7.5150689999999998e-01,	 1.9146496037910639e-02,	 7.7205242032777062e+02,	 -1.0919869808417428e+02,	 4.9916609382573131e+02,	 2.7495670938249896e+03,	 4.2873850824592347e+02,	 1.8186765787913921e+00 
1.5361229999999999e+00,	 7.5150839999999997e-01,	 1.9019522679518595e-02,	 7.7266973537521540e+02,	 -1.0953820249008783e+02,	 4.9840027173390411e+02,	 2.7271424367848654e+03,	 4.2840949606335408e+02,	 1.8216111174834944e+00 
1.5435930000000000e+00,	 7.5150980000000001e-01,	 1.8875693396991487e-02,	 7.7352807256258211e+02,	 -1.0989982295410154e+02,	 4.9748994804505514e+02,	 2.7015758285292482e+03,	 4.2801807417149433e+02,	 1.8253811739887376e+00 
1.5510619999999999e+00,	 7.5151120000000005e-01,	 1.8733508163818448e-02,	 7.7436533242690189e+02,	 -1.1025273661026412e+02,	 4.9657875070341424e+02,	 2.6763147211268165e+03,	 4.2762591782674036e+02,	 1.8291097752724597e+00 
1.5585310000000001e+00,	 7.5151259999999998e-01,	 1.8592820256384167e-02,	 7.7518724978172486e+02,	 -1.1059954034389986e+02,	 4.9567587264434042e+02,	 2.6513861793621595e+03,	 4.2723698684987670e+02,	 1.8327939739268830e+00 
1.5660000000000001e+00,	 7.5151389999999996e-01,	 1.8453408078978224e-02,	 7.7599622325315363e+02,	 -1.1094357901359029e+02,	 4.9478911163207056e+02,	 2.6267978808906755e+03,	 4.2685465363695010e+02,	 1.8364257195090543e+00 
1.5734699999999999e+00,	 7.5151520000000005e-01,	 1.8315021050231754e-02,	 7.7679031187944474e+02,	 -1.1128821626613168e+02,	 4.9392459768812711e+02,	 2.6025436029515463e+03,	 4.2648158243898303e+02,	 1.8399898188531865e+00 
1.5809390000000001e+00,	 7.5151650000000003e-01,	 1.8177321719903487e-02,	 7.7756818550354308e+02,	 -1.1163511479471569e+02,	 4.9308591684322982e+02,	 2.5785908070729915e+03,	 4.2611934708967220e+02,	 1.8434765228048764e+00 
1.5884080000000000e+00,	 7.5151780000000001e-01,	 1.8039873991212367e-02,	 7.7833417059143778e+02,	 -1.1198342153417946e+02,	 4.9227358537647490e+02,	 2.5548768431292015e+03,	 4.2576819851118432e+02,	 1.8468940608055957e+00 
1.5958770000000000e+00,	 7.5151900000000005e-01,	 1.7902448823817026e-02,	 7.7909307290451954e+02,	 -1.1233107995992532e+02,	 4.9148828615788477e+02,	 2.5313695402110620e+03,	 4.2542845970020346e+02,	 1.8502510864772037e+00 
1.6033459999999999e+00,	 7.5152019999999997e-01,	 1.7765202695990051e-02,	 7.7984420885589736e+02,	 -1.1267777471203937e+02,	 4.9073303683207359e+02,	 2.5081031913082038e+03,	 4.2510146504423466e+02,	 1.8535396688237293e+00 
1.6108150000000001e+00,	 7.5152140000000001e-01,	 1.7628414659716984e-02,	 7.8058591166485292e+02,	 -1.1302424751705529e+02,	 4.9001070434969324e+02,	 2.4851279986650575e+03,	 4.2478848665037231e+02,	 1.8567501601424841e+00 
1.6182840000000001e+00,	 7.5152249999999998e-01,	 1.7492220202547419e-02,	 7.8132032471742889e+02,	 -1.1336958672680890e+02,	 4.8932138380602544e+02,	 2.4624593423133606e+03,	 4.2448959676931071e+02,	 1.8598864436186588e+00 
1.6257530000000000e+00,	 7.5152370000000002e-01,	 1.7356592267587526e-02,	 7.8205025746191666e+02,	 -1.1371093752309368e+02,	 4.8866276388614688e+02,	 2.4400776435826187e+03,	 4.2420382196603549e+02,	 1.8629579098266571e+00 
1.6332220000000000e+00,	 7.5152479999999999e-01,	 1.7221448531795500e-02,	 7.8277617181664732e+02,	 -1.1404558550692414e+02,	 4.8803123746913138e+02,	 2.4179495567002259e+03,	 4.2392962209876811e+02,	 1.8659710694196097e+00 
1.6406909999999999e+00,	 7.5152589999999997e-01,	 1.7086700567244748e-02,	 7.8349624790432631e+02,	 -1.1437189212875177e+02,	 4.8742314857411947e+02,	 2.3960412855435111e+03,	 4.2366543076570179e+02,	 1.8689276502376682e+00 
1.6481600000000001e+00,	 7.5152710000000000e-01,	 1.6952338287753523e-02,	 7.8420803304545484e+02,	 -1.1468920178671488e+02,	 4.8683584375651270e+02,	 2.3743355429311459e+03,	 4.2341011282830408e+02,	 1.8718263842577230e+00 
1.6556280000000001e+00,	 7.5152810000000003e-01,	 1.6818438358414671e-02,	 7.8491046466345517e+02,	 -1.1499738130677922e+02,	 4.8626848755148677e+02,	 2.3528364058636230e+03,	 4.2316332082668652e+02,	 1.8746659786530109e+00 
1.6630970000000000e+00,	 7.5152920000000001e-01,	 1.6685139410533706e-02,	 7.8560529166221716e+02,	 -1.1529597402238160e+02,	 4.8572206140512088e+02,	 2.3315654258602253e+03,	 4.2292549696656033e+02,	 1.8774481154559084e+00 
1.6705660000000000e+00,	 7.5153029999999998e-01,	 1.6552594106775204e-02,	 7.8629627297934348e+02,	 -1.1558369945731491e+02,	 4.8519750878816603e+02,	 2.3105457142684213e+03,	 4.2269706735454287e+02,	 1.8801789679891927e+00 
1.6780349999999999e+00,	 7.5153139999999996e-01,	 1.6420802048911980e-02,	 7.8698534444520715e+02,	 -1.1585900501962270e+02,	 4.8469465768036486e+02,	 2.2897735594379351e+03,	 4.2247797225912467e+02,	 1.8828625179997245e+00 
1.6855039999999999e+00,	 7.5153239999999999e-01,	 1.6289683247315015e-02,	 7.8767329696771549e+02,	 -1.1612227293206296e+02,	 4.8421322794394490e+02,	 2.2692337101690009e+03,	 4.2226810406009372e+02,	 1.8855009607165691e+00 
1.6929730000000001e+00,	 7.5153349999999997e-01,	 1.6159208483528621e-02,	 7.8836293018254435e+02,	 -1.1637643862281300e+02,	 4.8375436709241353e+02,	 2.2489247308074428e+03,	 4.2206797711527685e+02,	 1.8880993155295815e+00 
1.7004420000000000e+00,	 7.5153449999999999e-01,	 1.6029438393780290e-02,	 7.8905881317217677e+02,	 -1.1662543542010934e+02,	 4.8331968375562735e+02,	 2.2288596744173815e+03,	 4.2187830735565012e+02,	 1.8906662014385729e+00 
1.7079100000000000e+00,	 7.5153559999999997e-01,	 1.5900452711677612e-02,	 7.8976499178062045e+02,	 -1.1687237985047148e+02,	 4.8291071676945194e+02,	 2.2090536854088373e+03,	 4.2169978078291263e+02,	 1.8932088699453233e+00 
1.7153790000000000e+00,	 7.5153660000000000e-01,	 1.5772315065112931e-02,	 7.9048380407018089e+02,	 -1.1711926137495350e+02,	 4.8252773819440432e+02,	 2.1895136913578772e+03,	 4.2153253039009297e+02,	 1.8957326643137062e+00 
1.7228479999999999e+00,	 7.5153760000000003e-01,	 1.5644949960949953e-02,	 7.9121253061105824e+02,	 -1.1736626487333446e+02,	 4.8216810712341805e+02,	 2.1702141790186552e+03,	 4.2137541563761630e+02,	 1.8982361754313539e+00 
1.7303170000000001e+00,	 7.5153870000000000e-01,	 1.5518201875934085e-02,	 7.9194491757334424e+02,	 -1.1761354922800885e+02,	 4.8182625760436235e+02,	 2.1511059343786233e+03,	 4.2122601491838691e+02,	 1.9007154949743241e+00 
1.7377860000000001e+00,	 7.5153970000000003e-01,	 1.5392130173681851e-02,	 7.9267866328042055e+02,	 -1.1786354225332640e+02,	 4.8149598667087980e+02,	 2.1321675854784935e+03,	 4.2108162411870779e+02,	 1.9031781235897189e+00 
1.7452540000000001e+00,	 7.5154069999999995e-01,	 1.5267063907909443e-02,	 7.9341712840476907e+02,	 -1.1811969937456936e+02,	 4.8117043237932313e+02,	 2.1134130918016699e+03,	 4.2093924690965775e+02,	 1.9056466291644143e+00 