TITLE = "Final State"
VARIABLES = "X", "Y", "rho", "u", "v", "T", "p", "c", "M"
ZONE I=76, J=20, DATAPACKING=POINT
-4.9775100000000000e-01,	 3.0503617500000002e-01,	 1.1586407740522199e-02,	 1.7360000000000000e+03,	 -3.0365761990321572e-15,	 2.9999999999999983e+02,	 9.9999999999999943e+02,	 3.4760788074254759e+02,	 4.9941330337264462e+00 
-4.9325300000000005e-01,	 3.0502849999999998e-01,	 1.1586407740522199e-02,	 1.7360000000000000e+03,	 -3.3827236317273820e-16,	 3.0000000000000000e+02,	 1.0000000000000000e+03,	 3.4760788074254771e+02,	 4.9941330337264445e+00 
-4.8875500000000000e-01,	 3.0502082500000000e-01,	 1.1586407740522199e-02,	 1.7360000000000000e+03,	 1.9331657003305854e-14,	 3.0000000000000006e+02,	 1.0000000000000002e+03,	 3.4760788074254771e+02,	 4.9941330337264445e+00 
-4.8425699999999994e-01,	 3.0501317500000003e-01,	 1.1586407740522199e-02,	 1.7360000000000000e+03,	 1.6661619229987197e-14,	 2.9999999999999994e+02,	 9.9999999999999989e+02,	 3.4760788074254765e+02,	 4.9941330337264453e+00 
-4.7975899999999999e-01,	 3.0500549999999998e-01,	 1.1586407740522199e-02,	 1.7360000000000000e+03,	 1.3977788157797112e-14,	 3.0000000000000000e+02,	 1.0000000000000000e+03,	 3.4760788074254771e+02,	 4.9941330337264445e+00 
-4.7526100000000004e-01,	 3.0499782500000000e-01,	 1.1586407740522199e-02,	 1.7360000000000000e+03,	 5.1272233692110617e-15,	 3.0000000000000000e+02,	 1.0000000000000000e+03,	 3.4760788074254771e+02,	 4.9941330337264445e+00 
-4.7076299999999999e-01,	 3.0499017500000003e-01,	 1.1586407740522199e-02,	 1.7360000000000000e+03,	 2.3989688514897404e-15,	 3.0000000000000000e+02,	 1.0000000000000000e+03,	 3.4760788074254771e+02,	 4.9941330337264445e+00 
-4.6626499999999993e-01,	 3.0498249999999999e-01,	 1.1586407740522199e-02,	 1.7360000000000000e+03,	 -3.4361238190754479e-16,	 2.9999999999999994e+02,	 9.9999999999999989e+02,	 3.4760788074254765e+02,	 4.9941330337264453e+00 
-4.6176699999999998e-01,	 3.0497482500000000e-01,	 1.1586407740522199e-02,	 1.7360000000000000e+03,	 -1.5503384200765769e-14,	 2.9999999999999955e+02,	 9.9999999999999852e+02,	 3.4760788074254742e+02,	 4.9941330337264489e+00 
-4.5726900000000004e-01,	 3.0496717500000003e-01,	 1.1586407740522199e-02,	 1.7360000000000000e+03,	 -1.6235148689752537e-14,	 3.0000000000000051e+02,	 1.0000000000000017e+03,	 3.4760788074254799e+02,	 4.9941330337264409e+00 
-4.5277099999999998e-01,	 3.0495949999999999e-01,	 1.1586407740522199e-02,	 1.7360000000000000e+03,	 -1.3507474526362276e-14,	 3.0000000000000000e+02,	 1.0000000000000000e+03,	 3.4760788074254771e+02,	 4.9941330337264445e+00 
-4.4827299999999992e-01,	 3.0495182499999995e-01,	 1.1586407740522199e-02,	 1.7360000000000000e+03,	 -4.5144728109138327e-15,	 3.0000000000000000e+02,	 1.0000000000000000e+03,	 3.4760788074254771e+02,	 4.9941330337264445e+00 
-4.4377499999999998e-01,	 3.0494417499999998e-01,	 1.1586407740522199e-02,	 1.7360000000000000e+03,	 -7.3120031003652804e-15,	 3.0000000000000000e+02,	 1.0000000000000000e+03,	 3.4760788074254771e+02,	 4.9941330337264445e+00 
-4.3927700000000003e-01,	 3.0493649999999994e-01,	 1.1586407740522199e-02,	 1.7360000000000000e+03,	 -4.8877084020655488e-15,	 3.0000000000000000e+02,	 1.0000000000000000e+03,	 3.4760788074254771e+02,	 4.9941330337264445e+00 
-4.3477900000000003e-01,	 3.0492882499999996e-01,	 1.1586407740522199e-02,	 1.7360000000000000e+03,	 -2.0653444605767486e-14,	 3.0000000000000000e+02,	 1.0000000000000000e+03,	 3.4760788074254771e+02,	 4.9941330337264445e+00 
-4.3028100000000002e-01,	 3.0492117499999999e-01,	 1.1586407740522199e-02,	 1.7360000000000000e+03,	 -1.7900829265386500e-14,	 3.0000000000000000e+02,	 1.0000000000000000e+03,	 3.4760788074254771e+02,	 4.9941330337264445e+00 
-4.2578300000000002e-01,	 3.0491349999999995e-01,	 1.1586407740522199e-02,	 1.7360000000000000e+03,	 -1.5133549361489419e-14,	 3.0000000000000000e+02,	 1.0000000000000000e+03,	 3.4760788074254771e+02,	 4.9941330337264445e+00 
-4.2128500000000002e-01,	 3.0490582499999996e-01,	 1.1586407740522199e-02,	 1.7360000000000000e+03,	 -1.8350510562418763e-14,	 2.9999999999999983e+02,	 9.9999999999999943e+02,	 3.4760788074254759e+02,	 4.9941330337264462e+00 
-4.1678700000000002e-01,	 3.0489817499999999e-01,	 1.1586407740522199e-02,	 1.7360000000000000e+03,	 -1.5569305200588524e-14,	 2.9999999999999983e+02,	 9.9999999999999943e+02,	 3.4760788074254759e+02,	 4.9941330337264462e+00 
-4.1228900000000002e-01,	 3.0489049999999995e-01,	 1.1586407740522199e-02,	 1.7360000000000000e+03,	 -1.8804904334491053e-14,	 3.0000000000000000e+02,	 1.0000000000000000e+03,	 3.4760788074254771e+02,	 4.9941330337264445e+00 
-4.0779100000000001e-01,	 3.0488282499999997e-01,	 1.1586407740522199e-02,	 1.7360000000000000e+03,	 -1.6009937058118584e-14,	 3.0000000000000000e+02,	 1.0000000000000000e+03,	 3.4760788074254771e+02,	 4.9941330337264445e+00 
-4.0329300000000001e-01,	 3.0487517500000000e-01,	 1.1586407740522199e-02,	 1.7360000000000000e+03,	 -1.3199576197091549e-14,	 3.0000000000000000e+02,	 1.0000000000000000e+03,	 3.4760788074254771e+02,	 4.9941330337264445e+00 
-3.9879500000000001e-01,	 3.0486749999999996e-01,	 1.1586407740522199e-02,	 1.7360000000000000e+03,	 -1.0373957190995954e-14,	 3.0000000000000000e+02,	 1.0000000000000000e+03,	 3.4760788074254771e+02,	 4.9941330337264445e+00 
-3.9429700000000001e-01,	 3.0485982499999997e-01,	 1.1586407740522199e-02,	 1.7360000000000000e+03,	 -1.3630802984575086e-14,	 2.9999999999999994e+02,	 9.9999999999999989e+02,	 3.4760788074254765e+02,	 4.9941330337264453e+00 
-3.8979900000000001e-01,	 3.0485217500000000e-01,	 1.1586407740522199e-02,	 1.7360000000000000e+03,	 -1.0790704766169501e-14,	 3.0000000000000034e+02,	 1.0000000000000011e+03,	 3.4760788074254788e+02,	 4.9941330337264427e+00 
-3.8530100000000000e-01,	 3.0484449999999996e-01,	 1.1586407740522199e-02,	 1.7360000000000000e+03,	 3.9675195330208934e-15,	 2.9999999999999994e+02,	 9.9999999999999989e+02,	 3.4760788074254765e+02,	 4.9941330337264453e+00 
-3.8080300000000000e-01,	 3.0483682499999998e-01,	 1.1586407740522199e-02,	 1.7360000000000000e+03,	 -5.0635547444094271e-15,	 3.0000000000000000e+02,	 1.0000000000000000e+03,	 3.4760788074254771e+02,	 4.9941330337264445e+00 
-3.7630500000000000e-01,	 3.0482917500000001e-01,	 1.1586407740522199e-02,	 1.7360000000000000e+03,	 -1.4870027058634162e-14,	 3.0000000000000000e+02,	 1.0000000000000000e+03,	 3.4760788074254771e+02,	 4.9941330337264445e+00 
-3.7180700000000000e-01,	 3.0482149999999997e-01,	 1.1586407740522199e-02,	 1.7360000000000000e+03,	 -1.2001885421588558e-14,	 3.0000000000000000e+02,	 1.0000000000000000e+03,	 3.4760788074254771e+02,	 4.9941330337264445e+00 
-3.6730900000000000e-01,	 3.0481382499999998e-01,	 1.1586407740522199e-02,	 1.7360000000000000e+03,	 -2.5529629834474316e-15,	 3.0000000000000000e+02,	 1.0000000000000000e+03,	 3.4760788074254771e+02,	 4.9941330337264445e+00 
-3.6281099999999999e-01,	 3.0480617499999996e-01,	 1.1586407740522199e-02,	 1.7360000000000000e+03,	 -1.2434711131233342e-14,	 3.0000000000000000e+02,	 1.0000000000000000e+03,	 3.4760788074254771e+02,	 4.9941330337264445e+00 
-3.5831299999999999e-01,	 3.0479849999999997e-01,	 1.1586407740522199e-02,	 1.7360000000000000e+03,	 1.5403651109872978e-14,	 3.0000000000000006e+02,	 1.0000000000000002e+03,	 3.4760788074254771e+02,	 4.9941330337264445e+00 
-3.5381499999999999e-01,	 3.0479082499999999e-01,	 1.1586407740522199e-02,	 1.7360000000000000e+03,	 1.2504728348173491e-14,	 2.9999999999999994e+02,	 9.9999999999999989e+02,	 3.4760788074254765e+02,	 4.9941330337264453e+00 
-3.4931699999999999e-01,	 3.0478317499999996e-01,	 1.1586407740522199e-02,	 1.7360000000000000e+03,	 -3.6882104463210919e-15,	 3.0000000000000000e+02,	 1.0000000000000000e+03,	 3.4760788074254771e+02,	 4.9941330337264445e+00 
-3.4481899999999999e-01,	 3.0477549999999998e-01,	 1.1586407740522199e-02,	 1.7360000000000000e+03,	 -2.6260426413410518e-14,	 3.0000000000000000e+02,	 1.0000000000000000e+03,	 3.4760788074254771e+02,	 4.9941330337264445e+00 
-3.4032099999999998e-01,	 3.0476782499999999e-01,	 1.1586407740522199e-02,	 1.7360000000000000e+03,	 -3.9317006195370938e-14,	 2.9999999999999983e+02,	 9.9999999999999943e+02,	 3.4760788074254759e+02,	 4.9941330337264462e+00 
-3.3582299999999998e-01,	 3.0476017499999997e-01,	 1.1586407740522199e-02,	 1.7360000000000000e+03,	 -1.6366575338426795e-14,	 2.9999999999999937e+02,	 9.9999999999999795e+02,	 3.4760788074254731e+02,	 4.9941330337264507e+00 
-3.3132499999999998e-01,	 3.0475249999999998e-01,	 1.1586407740522199e-02,	 1.7360000000000000e+03,	 1.3056032339630647e-14,	 2.9999999999999977e+02,	 9.9999999999999932e+02,	 3.4760788074254754e+02,	 4.9941330337264471e+00 
-3.2682699999999998e-01,	 3.0474482500000000e-01,	 1.1586407740522199e-02,	 1.7360000000000000e+03,	 2.6186817731501818e-14,	 2.9999999999999955e+02,	 9.9999999999999852e+02,	 3.4760788074254742e+02,	 4.9941330337264489e+00 
-3.2232899999999998e-01,	 3.0473717499999997e-01,	 1.1586407740522199e-02,	 1.7360000000000000e+03,	 2.9263093609639531e-14,	 3.0000000000000000e+02,	 1.0000000000000000e+03,	 3.4760788074254771e+02,	 4.9941330337264445e+00 
-3.1783099999999997e-01,	 3.0472949999999999e-01,	 1.1586407740522199e-02,	 1.7360000000000000e+03,	 2.6337356900945217e-14,	 3.0000000000000000e+02,	 1.0000000000000000e+03,	 3.4760788074254771e+02,	 4.9941330337264445e+00 
-3.1333299999999997e-01,	 3.0472182500000000e-01,	 1.1586407740522199e-02,	 1.7360000000000000e+03,	 -7.9240187725679378e-15,	 3.0000000000000000e+02,	 1.0000000000000000e+03,	 3.4760788074254771e+02,	 4.9941330337264445e+00 
-3.0883500000000003e-01,	 3.0471417499999998e-01,	 1.1586407740522199e-02,	 1.7360000000000000e+03,	 -1.0974271808180302e-14,	 3.0000000000000000e+02,	 1.0000000000000000e+03,	 3.4760788074254771e+02,	 4.9941330337264445e+00 
-3.0433700000000002e-01,	 3.0470649999999999e-01,	 1.1586407740522199e-02,	 1.7360000000000000e+03,	 -7.2109169031740030e-15,	 2.9999999999999983e+02,	 9.9999999999999943e+02,	 3.4760788074254759e+02,	 4.9941330337264462e+00 
-2.9983900000000002e-01,	 3.0469882500000001e-01,	 1.1586407740522199e-02,	 1.7360000000000000e+03,	 -1.0276930693297070e-14,	 3.0000000000000006e+02,	 1.0000000000000002e+03,	 3.4760788074254771e+02,	 4.9941330337264445e+00 
-2.9534100000000002e-01,	 3.0469117499999998e-01,	 1.1586407740522199e-02,	 1.7360000000000000e+03,	 -1.3360723291654327e-14,	 3.0000000000000000e+02,	 1.0000000000000000e+03,	 3.4760788074254771e+02,	 4.9941330337264445e+00 
-2.9084300000000002e-01,	 3.0468350000000000e-01,	 1.1586407740522199e-02,	 1.7360000000000000e+03,	 -1.1102734227142394e-14,	 3.0000000000000000e+02,	 1.0000000000000000e+03,	 3.4760788074254771e+02,	 4.9941330337264445e+00 
-2.8634500000000002e-01,	 3.0467582500000001e-01,	 1.1586407740522199e-02,	 1.7360000000000000e+03,	 -1.4207162637512442e-14,	 3.0000000000000000e+02,	 1.0000000000000000e+03,	 3.4760788074254771e+02,	 4.9941330337264445e+00 
-2.8184700000000001e-01,	 3.0466817499999999e-01,	 1.1586407740522199e-02,	 1.7360000000000000e+03,	 -2.4261596475302386e-14,	 3.0000000000000000e+02,	 1.0000000000000000e+03,	 3.4760788074254771e+02,	 4.9941330337264445e+00 
-2.7734900000000001e-01,	 3.0466050000000000e-01,	 1.1586407740522199e-02,	 1.7360000000000000e+03,	 1.2745997295247618e-14,	 3.0000000000000000e+02,	 1.0000000000000000e+03,	 3.4760788074254771e+02,	 4.9941330337264445e+00 
-2.7285100000000001e-01,	 3.0465282500000002e-01,	 1.1586407740522199e-02,	 1.7360000000000000e+03,	 9.2972799013951915e-15,	 3.0000000000000000e+02,	 1.0000000000000000e+03,	 3.4760788074254771e+02,	 4.9941330337264445e+00 
-2.6835300000000001e-01,	 3.0464517499999999e-01,	 1.1586407740522199e-02,	 1.7360000000000000e+03,	 5.0509415509958396e-15,	 2.9999999999999983e+02,	 9.9999999999999943e+02,	 3.4760788074254759e+02,	 4.9941330337264462e+00 
-2.6385500000000001e-01,	 3.0463750000000001e-01,	 1.1586407740522199e-02,	 1.7360000000000000e+03,	 2.1822741321463596e-14,	 3.0000000000000006e+02,	 1.0000000000000002e+03,	 3.4760788074254771e+02,	 4.9941330337264445e+00 
-2.5935700000000000e-01,	 3.0462982500000002e-01,	 1.1586407740522199e-02,	 1.7360000000000000e+03,	 -1.9542825812348476e-15,	 2.9999999999999994e+02,	 9.9999999999999989e+02,	 3.4760788074254765e+02,	 4.9941330337264453e+00 
-2.5485900000000000e-01,	 3.0462217500000000e-01,	 1.1586407740522199e-02,	 1.7360000000000000e+03,	 -5.0963161570029287e-15,	 3.0000000000000000e+02,	 1.0000000000000000e+03,	 3.4760788074254771e+02,	 4.9941330337264445e+00 
-2.5036100000000000e-01,	 3.0461450000000001e-01,	 1.1586407740522199e-02,	 1.7360000000000000e+03,	 -8.2572612011367377e-15,	 3.0000000000000000e+02,	 1.0000000000000000e+03,	 3.4760788074254771e+02,	 4.9941330337264445e+00 
-2.4586300000000000e-01,	 3.0460682500000003e-01,	 1.1586407740522199e-02,	 1.7360000000000000e+03,	 7.4933825941221262e-15,	 2.9999999999999983e+02,	 9.9999999999999943e+02,	 3.4760788074254759e+02,	 4.9941330337264462e+00 
-2.4136500000000000e-01,	 3.0459917500000000e-01,	 1.1586407740522199e-02,	 1.7360000000000000e+03,	 -1.0285012818854100e-14,	 3.0000000000000017e+02,	 1.0000000000000006e+03,	 3.4760788074254776e+02,	 4.9941330337264436e+00 
-2.3686699999999999e-01,	 3.0459150000000002e-01,	 1.1586407740522199e-02,	 1.7360000000000000e+03,	 -7.1419918362871863e-15,	 3.0000000000000000e+02,	 1.0000000000000000e+03,	 3.4760788074254771e+02,	 4.9941330337264445e+00 
-2.3236899999999999e-01,	 3.0458382500000003e-01,	 1.1586407740522199e-02,	 1.7360000000000000e+03,	 -9.9496118345400160e-15,	 3.0000000000000000e+02,	 1.0000000000000000e+03,	 3.4760788074254771e+02,	 4.9941330337264445e+00 
-2.2787099999999999e-01,	 3.0457617500000000e-01,	 1.1586407740522199e-02,	 1.7360000000000000e+03,	 -2.0758137996116168e-14,	 3.0000000000000006e+02,	 1.0000000000000002e+03,	 3.4760788074254771e+02,	 4.9941330337264445e+00 
-2.2337299999999999e-01,	 3.0456850000000002e-01,	 1.1586407740522199e-02,	 1.7360000000000000e+03,	 -1.7618337727167007e-14,	 3.0000000000000000e+02,	 1.0000000000000000e+03,	 3.4760788074254771e+02,	 4.9941330337264445e+00 
-2.1887499999999999e-01,	 3.0456082500000003e-01,	 1.1586407740522199e-02,	 1.7360000000000000e+03,	 -1.4459256432319316e-14,	 3.0000000000000000e+02,	 1.0000000000000000e+03,	 3.4760788074254771e+02,	 4.9941330337264445e+00 
-2.1437700000000001e-01,	 3.0455317500000001e-01,	 1.1586407740522199e-02,	 1.7360000000000000e+03,	 -4.0287872529895827e-15,	 3.0000000000000000e+02,	 1.0000000000000000e+03,	 3.4760788074254771e+02,	 4.9941330337264445e+00 
-2.0987900000000001e-01,	 3.0454549999999997e-01,	 1.1586407740522199e-02,	 1.7360000000000000e+03,	 -7.6783376110568871e-15,	 3.0000000000000000e+02,	 1.0000000000000000e+03,	 3.4760788074254771e+02,	 4.9941330337264445e+00 
-2.0538100000000001e-01,	 3.0453782499999998e-01,	 1.1586407740522199e-02,	 1.7360000000000000e+03,	 -1.1350499614593521e-14,	 3.0000000000000000e+02,	 1.0000000000000000e+03,	 3.4760788074254771e+02,	 4.9941330337264445e+00 
-2.0088300000000001e-01,	 3.0453017500000001e-01,	 1.1586407740522199e-02,	 1.7360000000000000e+03,	 -1.6265221698319989e-15,	 3.0000000000000000e+02,	 1.0000000000000000e+03,	 3.4760788074254771e+02,	 4.9941330337264445e+00 
-1.9638500000000000e-01,	 3.0452249999999997e-01,	 1.1586407740522199e-02,	 1.7360000000000000e+03,	 0.0000000000000000e+00,	 3.0000000000000000e+02,	 1.0000000000000000e+03,	 3.4760788074254771e+02,	 4.9941330337264445e+00 
-1.9188700000000000e-01,	 3.0451482499999999e-01,	 1.1586407740522199e-02,	 1.7360000000000000e+03,	 -3.2733862097395828e-15,	 3.0000000000000000e+02,	 1.0000000000000000e+03,	 3.4760788074254771e+02,	 4.9941330337264445e+00 
-1.8738900000000000e-01,	 3.0450717500000002e-01,	 1.1586407740522199e-02,	 1.7360000000000000e+03,	 -4.1045231620409768e-16,	 3.0000000000000000e+02,	 1.0000000000000000e+03,	 3.4760788074254771e+02,	 4.9941330337264445e+00 
-1.8289100000000000e-01,	 3.0449949999999998e-01,	 1.1586407740522199e-02,	 1.7360000000000000e+03,	 -2.6351586063947044e-14,	 3.0000000000000000e+02,	 1.0000000000000000e+03,	 3.4760788074254771e+02,	 4.9941330337264445e+00 
-1.7839300000000000e-01,	 3.0449182499999999e-01,	 1.1586407740522199e-02,	 1.7360000000000000e+03,	 -3.0152126784286874e-14,	 3.0000000000000000e+02,	 1.0000000000000000e+03,	 3.4760788074254771e+02,	 4.9941330337264445e+00 
-1.7389499999999999e-01,	 3.0448417500000002e-01,	 1.1586407740522199e-02,	 1.7360000000000000e+03,	 -1.2016034621720665e-14,	 3.0000000000000000e+02,	 1.0000000000000000e+03,	 3.4760788074254771e+02,	 4.9941330337264445e+00 
-1.6939699999999999e-01,	 3.0447649999999998e-01,	 1.1586407740522199e-02,	 1.7360000000000000e+03,	 -1.2469850791828837e-15,	 3.0000000000000000e+02,	 1.0000000000000000e+03,	 3.4760788074254771e+02,	 4.9941330337264445e+00 
-1.6489899999999999e-01,	 3.0446882500000000e-01,	 1.1586407740522199e-02,	 1.7360000000000000e+03,	 -1.2509570404891293e-14,	 3.0000000000000000e+02,	 1.0000000000000000e+03,	 3.4760788074254771e+02,	 4.9941330337264445e+00 
-1.6040099999999999e-01,	 3.0446117500000003e-01,	 1.1586407740522199e-02,	 1.7360000000000000e+03,	 -1.1294470118875901e-14,	 3.0000000000000006e+02,	 1.0000000000000002e+03,	 3.4760788074254771e+02,	 4.9941330337264445e+00 
-4.9775100000000000e-01,	 3.1105342499999999e-01,	 1.1586407740522199e-02,	 1.7360000000000000e+03,	 8.8598723765579953e-15,	 3.0000000000000000e+02,	 1.0000000000000000e+03,	 3.4760788074254771e+02,	 4.9941330337264445e+00 
-4.9325300000000005e-01,	 3.1103044999999996e-01,	 1.1586407740522199e-02,	 1.7360000000000000e+03,	 6.2509625780204984e-15,	 3.0000000000000000e+02,	 1.0000000000000000e+03,	 3.4760788074254771e+02,	 4.9941330337264445e+00 
-4.8875500000000000e-01,	 3.1100744999999996e-01,	 1.1586407740522199e-02,	 1.7360000000000000e+03,	 9.8957924686042883e-15,	 2.9999999999999966e+02,	 9.9999999999999886e+02,	 3.4760788074254748e+02,	 4.9941330337264480e+00 
-4.8425699999999994e-01,	 3.1098447499999998e-01,	 1.1586407740522199e-02,	 1.7360000000000000e+03,	 1.0583315192432047e-14,	 3.0000000000000000e+02,	 1.0000000000000000e+03,	 3.4760788074254771e+02,	 4.9941330337264445e+00 
-4.7975899999999999e-01,	 3.1096147499999999e-01,	 1.1586407740522199e-02,	 1.7360000000000000e+03,	 2.3211941796275450e-15,	 3.0000000000000000e+02,	 1.0000000000000000e+03,	 3.4760788074254771e+02,	 4.9941330337264445e+00 
-4.7526100000000004e-01,	 3.1093847500000005e-01,	 1.1586407740522199e-02,	 1.7360000000000000e+03,	 1.0971648810404257e-14,	 3.0000000000000006e+02,	 1.0000000000000002e+03,	 3.4760788074254771e+02,	 4.9941330337264445e+00 
-4.7076299999999999e-01,	 3.1091552499999997e-01,	 1.1586407740522199e-02,	 1.7360000000000000e+03,	 1.1334025602913967e-14,	 3.0000000000000000e+02,	 1.0000000000000000e+03,	 3.4760788074254771e+02,	 4.9941330337264445e+00 
-4.6626499999999993e-01,	 3.1089252499999998e-01,	 1.1586407740522199e-02,	 1.7360000000000000e+03,	 -6.3505177041182374e-15,	 3.0000000000000000e+02,	 1.0000000000000000e+03,	 3.4760788074254771e+02,	 4.9941330337264445e+00 
-4.6176699999999998e-01,	 3.1086952499999998e-01,	 1.1586407740522199e-02,	 1.7360000000000000e+03,	 -5.7641745477520783e-14,	 3.0000000000000006e+02,	 1.0000000000000002e+03,	 3.4760788074254771e+02,	 4.9941330337264445e+00 
-4.5726900000000004e-01,	 3.1084654999999994e-01,	 1.1586407740522199e-02,	 1.7360000000000000e+03,	 -3.3602250811940119e-16,	 2.9999999999999994e+02,	 9.9999999999999989e+02,	 3.4760788074254765e+02,	 4.9941330337264453e+00 
-4.5277099999999998e-01,	 3.1082355000000000e-01,	 1.1586407740522199e-02,	 1.7360000000000000e+03,	 -1.6172180668109188e-14,	 3.0000000000000000e+02,	 1.0000000000000000e+03,	 3.4760788074254771e+02,	 4.9941330337264445e+00 
-4.4827299999999992e-01,	 3.1080057500000002e-01,	 1.1586407740522199e-02,	 1.7360000000000000e+03,	 -2.5336509878869571e-14,	 3.0000000000000000e+02,	 1.0000000000000000e+03,	 3.4760788074254771e+02,	 4.9941330337264445e+00 
-4.4377499999999998e-01,	 3.1077759999999999e-01,	 1.1586407740522199e-02,	 1.7360000000000000e+03,	 -2.2694930245992214e-14,	 3.0000000000000000e+02,	 1.0000000000000000e+03,	 3.4760788074254771e+02,	 4.9941330337264445e+00 
-4.3927700000000003e-01,	 3.1075459999999999e-01,	 1.1586407740522199e-02,	 1.7360000000000000e+03,	 -1.8680330866806960e-14,	 3.0000000000000000e+02,	 1.0000000000000000e+03,	 3.4760788074254771e+02,	 4.9941330337264445e+00 
-4.3477900000000003e-01,	 3.1073159999999994e-01,	 1.1586407740522199e-02,	 1.7360000000000000e+03,	 2.3839147451046989e-15,	 3.0000000000000006e+02,	 1.0000000000000002e+03,	 3.4760788074254771e+02,	 4.9941330337264445e+00 
-4.3028100000000002e-01,	 3.1070862499999996e-01,	 1.1586407740522199e-02,	 1.7360000000000000e+03,	 5.1222578956537978e-15,	 2.9999999999999994e+02,	 9.9999999999999989e+02,	 3.4760788074254765e+02,	 4.9941330337264453e+00 
-4.2578300000000002e-01,	 3.1068564999999998e-01,	 1.1586407740522199e-02,	 1.7360000000000000e+03,	 5.8209268855788601e-15,	 3.0000000000000006e+02,	 1.0000000000000002e+03,	 3.4760788074254771e+02,	 4.9941330337264445e+00 
-4.2128500000000002e-01,	 3.1066264999999998e-01,	 1.1586407740522199e-02,	 1.7360000000000000e+03,	 3.0900504632186974e-15,	 3.0000000000000000e+02,	 1.0000000000000000e+03,	 3.4760788074254771e+02,	 4.9941330337264445e+00 
-4.1678700000000002e-01,	 3.1063967500000000e-01,	 1.1586407740522199e-02,	 1.7360000000000000e+03,	 -1.7213916034950449e-15,	 2.9999999999999994e+02,	 9.9999999999999989e+02,	 3.4760788074254765e+02,	 4.9941330337264453e+00 
-4.1228900000000002e-01,	 3.1061667500000001e-01,	 1.1586407740522199e-02,	 1.7360000000000000e+03,	 1.7260987285528234e-15,	 3.0000000000000006e+02,	 1.0000000000000002e+03,	 3.4760788074254771e+02,	 4.9941330337264445e+00 
-4.0779100000000001e-01,	 3.1059367500000001e-01,	 1.1586407740522199e-02,	 1.7360000000000000e+03,	 4.8463267540779965e-15,	 2.9999999999999994e+02,	 9.9999999999999989e+02,	 3.4760788074254765e+02,	 4.9941330337264453e+00 
-4.0329300000000001e-01,	 3.1057072500000005e-01,	 1.1586407740522199e-02,	 1.7360000000000000e+03,	 -1.7008765250337508e-14,	 3.0000000000000000e+02,	 1.0000000000000000e+03,	 3.4760788074254771e+02,	 4.9941330337264445e+00 
-3.9879500000000001e-01,	 3.1054772500000000e-01,	 1.1586407740522199e-02,	 1.7360000000000000e+03,	 -1.4271045579665138e-14,	 3.0000000000000000e+02,	 1.0000000000000000e+03,	 3.4760788074254771e+02,	 4.9941330337264445e+00 
-3.9429700000000001e-01,	 3.1052472499999995e-01,	 1.1586407740522199e-02,	 1.7360000000000000e+03,	 -5.2355408245772689e-15,	 3.0000000000000000e+02,	 1.0000000000000000e+03,	 3.4760788074254771e+02,	 4.9941330337264445e+00 
-3.8979900000000001e-01,	 3.1050175000000002e-01,	 1.1586407740522199e-02,	 1.7360000000000000e+03,	 2.3800412970175228e-14,	 3.0000000000000000e+02,	 1.0000000000000000e+03,	 3.4760788074254771e+02,	 4.9941330337264445e+00 
-3.8530100000000000e-01,	 3.1047875000000003e-01,	 1.1586407740522199e-02,	 1.7360000000000000e+03,	 3.1588045597260187e-15,	 3.0000000000000000e+02,	 1.0000000000000000e+03,	 3.4760788074254771e+02,	 4.9941330337264445e+00 
-3.8080300000000000e-01,	 3.1045577499999999e-01,	 1.1586407740522199e-02,	 1.7360000000000000e+03,	 6.3351472368807818e-15,	 3.0000000000000000e+02,	 1.0000000000000000e+03,	 3.4760788074254771e+02,	 4.9941330337264445e+00 
-3.7630500000000000e-01,	 3.1043280000000001e-01,	 1.1586407740522199e-02,	 1.7360000000000000e+03,	 9.5293399679261907e-15,	 3.0000000000000000e+02,	 1.0000000000000000e+03,	 3.4760788074254771e+02,	 4.9941330337264445e+00 
-3.7180700000000000e-01,	 3.1040980000000001e-01,	 1.1586407740522199e-02,	 1.7360000000000000e+03,	 1.0263873780911237e-14,	 3.0000000000000000e+02,	 1.0000000000000000e+03,	 3.4760788074254771e+02,	 4.9941330337264445e+00 
-3.6730900000000000e-01,	 3.1038679999999996e-01,	 1.1586407740522199e-02,	 1.7360000000000000e+03,	 -4.6139632762822886e-15,	 3.0000000000000000e+02,	 1.0000000000000000e+03,	 3.4760788074254771e+02,	 4.9941330337264445e+00 
-3.6281099999999999e-01,	 3.1036382499999993e-01,	 1.1586407740522199e-02,	 1.7360000000000000e+03,	 1.0677672912550654e-15,	 3.0000000000000000e+02,	 1.0000000000000000e+03,	 3.4760788074254771e+02,	 4.9941330337264445e+00 
-3.5831299999999999e-01,	 3.1034085000000000e-01,	 1.1586407740522199e-02,	 1.7360000000000000e+03,	 1.0707711841673691e-14,	 2.9999999999999983e+02,	 9.9999999999999943e+02,	 3.4760788074254759e+02,	 4.9941330337264462e+00 
-3.5381499999999999e-01,	 3.1031785000000001e-01,	 1.1586407740522199e-02,	 1.7360000000000000e+03,	 1.0380079673806737e-14,	 3.0000000000000000e+02,	 1.0000000000000000e+03,	 3.4760788074254771e+02,	 4.9941330337264445e+00 
-3.4931699999999999e-01,	 3.1029487499999997e-01,	 1.1586407740522199e-02,	 1.7360000000000000e+03,	 1.1127531652153592e-14,	 3.0000000000000006e+02,	 1.0000000000000002e+03,	 3.4760788074254771e+02,	 4.9941330337264445e+00 
-3.4481899999999999e-01,	 3.1027187499999997e-01,	 1.1586407740522199e-02,	 1.7360000000000000e+03,	 8.9993481011306555e-15,	 3.0000000000000000e+02,	 1.0000000000000000e+03,	 3.4760788074254771e+02,	 4.9941330337264445e+00 
-3.4032099999999998e-01,	 3.1024887499999998e-01,	 1.1586407740522199e-02,	 1.7360000000000000e+03,	 -2.5270062548316246e-15,	 3.0000000000000000e+02,	 1.0000000000000000e+03,	 3.4760788074254771e+02,	 4.9941330337264445e+00 
-3.3582299999999998e-01,	 3.1022592499999996e-01,	 1.1586407740522199e-02,	 1.7360000000000000e+03,	 -3.1858950778392042e-14,	 3.0000000000000000e+02,	 1.0000000000000000e+03,	 3.4760788074254771e+02,	 4.9941330337264445e+00 
-3.3132499999999998e-01,	 3.1020292499999996e-01,	 1.1586407740522199e-02,	 1.7360000000000000e+03,	 -4.1753280305175216e-14,	 3.0000000000000000e+02,	 1.0000000000000000e+03,	 3.4760788074254771e+02,	 4.9941330337264445e+00 
-3.2682699999999998e-01,	 3.1017992500000002e-01,	 1.1586407740522199e-02,	 1.7360000000000000e+03,	 -5.7894491247396725e-14,	 3.0000000000000000e+02,	 1.0000000000000000e+03,	 3.4760788074254771e+02,	 4.9941330337264445e+00 
-3.2232899999999998e-01,	 3.1015694999999999e-01,	 1.1586407740522199e-02,	 1.7360000000000000e+03,	 -4.2359695388607833e-14,	 3.0000000000000000e+02,	 1.0000000000000000e+03,	 3.4760788074254771e+02,	 4.9941330337264445e+00 
-3.1783099999999997e-01,	 3.1013394999999999e-01,	 1.1586407740522199e-02,	 1.7360000000000000e+03,	 -3.2960330646958747e-14,	 2.9999999999999983e+02,	 9.9999999999999943e+02,	 3.4760788074254759e+02,	 4.9941330337264462e+00 
-3.1333299999999997e-01,	 3.1011097500000001e-01,	 1.1586407740522199e-02,	 1.7360000000000000e+03,	 -3.0117333560530117e-14,	 3.0000000000000034e+02,	 1.0000000000000011e+03,	 3.4760788074254788e+02,	 4.9941330337264427e+00 
-3.0883500000000003e-01,	 3.1008799999999997e-01,	 1.1586407740522199e-02,	 1.7360000000000000e+03,	 -2.7258345590557401e-14,	 3.0000000000000000e+02,	 1.0000000000000000e+03,	 3.4760788074254771e+02,	 4.9941330337264445e+00 
-3.0433700000000002e-01,	 3.1006500000000004e-01,	 1.1586407740522199e-02,	 1.7360000000000000e+03,	 -3.7312450200867849e-14,	 3.0000000000000000e+02,	 1.0000000000000000e+03,	 3.4760788074254771e+02,	 4.9941330337264445e+00 
-2.9983900000000002e-01,	 3.1004200000000004e-01,	 1.1586407740522199e-02,	 1.7360000000000000e+03,	 -2.7788287882425239e-14,	 3.0000000000000000e+02,	 1.0000000000000000e+03,	 3.4760788074254771e+02,	 4.9941330337264445e+00 
-2.9534100000000002e-01,	 3.1001902500000000e-01,	 1.1586407740522199e-02,	 1.7360000000000000e+03,	 -2.4897228811771357e-14,	 3.0000000000000000e+02,	 1.0000000000000000e+03,	 3.4760788074254771e+02,	 4.9941330337264445e+00 
-2.9084300000000002e-01,	 3.0999604999999997e-01,	 1.1586407740522199e-02,	 1.7360000000000000e+03,	 -2.1988689091671811e-14,	 3.0000000000000000e+02,	 1.0000000000000000e+03,	 3.4760788074254771e+02,	 4.9941330337264445e+00 
-2.8634500000000002e-01,	 3.0997304999999997e-01,	 1.1586407740522199e-02,	 1.7360000000000000e+03,	 -1.9063221040790723e-14,	 3.0000000000000000e+02,	 1.0000000000000000e+03,	 3.4760788074254771e+02,	 4.9941330337264445e+00 
-2.8184700000000001e-01,	 3.0995007499999999e-01,	 1.1586407740522199e-02,	 1.7360000000000000e+03,	 -2.6242824438061778e-15,	 3.0000000000000000e+02,	 1.0000000000000000e+03,	 3.4760788074254771e+02,	 4.9941330337264445e+00 
-2.7734900000000001e-01,	 3.0992707500000000e-01,	 1.1586407740522199e-02,	 1.7360000000000000e+03,	 3.7600925051153040e-16,	 2.9999999999999955e+02,	 9.9999999999999852e+02,	 3.4760788074254742e+02,	 4.9941330337264489e+00 
-2.7285100000000001e-01,	 3.0990407499999995e-01,	 1.1586407740522199e-02,	 1.7360000000000000e+03,	 1.0182441425302999e-14,	 3.0000000000000000e+02,	 1.0000000000000000e+03,	 3.4760788074254771e+02,	 4.9941330337264445e+00 
-2.6835300000000001e-01,	 3.0988110000000002e-01,	 1.1586407740522199e-02,	 1.7360000000000000e+03,	 8.3216263089972412e-15,	 3.0000000000000000e+02,	 1.0000000000000000e+03,	 3.4760788074254771e+02,	 4.9941330337264445e+00 
-2.6385500000000001e-01,	 3.0985809999999997e-01,	 1.1586407740522199e-02,	 1.7360000000000000e+03,	 1.1760998362718680e-14,	 2.9999999999999983e+02,	 9.9999999999999943e+02,	 3.4760788074254759e+02,	 4.9941330337264462e+00 
-2.5935700000000000e-01,	 3.0983512499999999e-01,	 1.1586407740522199e-02,	 1.7360000000000000e+03,	 9.8935538207489052e-15,	 3.0000000000000000e+02,	 1.0000000000000000e+03,	 3.4760788074254771e+02,	 4.9941330337264445e+00 
-2.5485900000000000e-01,	 3.0981215000000001e-01,	 1.1586407740522199e-02,	 1.7360000000000000e+03,	 1.1450085370968352e-14,	 3.0000000000000000e+02,	 1.0000000000000000e+03,	 3.4760788074254771e+02,	 4.9941330337264445e+00 
-2.5036100000000000e-01,	 3.0978915000000001e-01,	 1.1586407740522199e-02,	 1.7360000000000000e+03,	 8.4220588492218065e-15,	 3.0000000000000000e+02,	 1.0000000000000000e+03,	 3.4760788074254771e+02,	 4.9941330337264445e+00 