TITLE = "Final State"
VARIABLES = "X", "Y", "rho", "u", "v", "T", "p", "c", "M"
ZONE I=51, J=46, DATAPACKING=POINT
1.1549020000000001e+00,	 7.3964070000000004e-01,	 2.7778300180748967e-02,	 6.9565198180845391e+02,	 -5.4216500600563506e+01,	 5.5826064544522796e+02,	 4.4614149428559322e+03,	 4.5340725000840700e+02,	 1.5389288513710628e+00 
1.1623930000000000e+00,	 7.3966330000000002e-01,	 2.7623510080379440e-02,	 6.9735986750908455e+02,	 -5.6117356004776887e+01,	 5.5683647915918255e+02,	 4.4252364321055793e+03,	 4.5282854212718502e+02,	 1.5449868397790611e+00 
1.1698820000000001e+00,	 7.3968460000000003e-01,	 2.7432255242132463e-02,	 6.9963938406918032e+02,	 -5.8182348708267391e+01,	 5.5508098770264178e+02,	 4.3807432742818282e+03,	 4.5211418145869675e+02,	 1.5528255487176359e+00 
1.1773700000000000e+00,	 7.3970449999999999e-01,	 2.7241471460437438e-02,	 7.0191040755325264e+02,	 -6.0202500221801941e+01,	 5.5332294777420100e+02,	 4.3364983141636094e+03,	 4.5139765076756976e+02,	 1.5606803548581343e+00 
1.1848570000000000e+00,	 7.3972320000000003e-01,	 2.7051518994503754e-02,	 7.0416943472338824e+02,	 -6.2181136718255175e+01,	 5.5156689811515537e+02,	 4.2925937458360631e+03,	 4.5068079399148149e+02,	 1.5685370699536612e+00 
1.1923420000000000e+00,	 7.3974070000000003e-01,	 2.6862425075655970e-02,	 7.0641345081928978e+02,	 -6.4119702535385244e+01,	 5.4981458538487175e+02,	 4.2490457888714336e+03,	 4.4996432429926551e+02,	 1.5763860608009055e+00 
1.1998270000000000e+00,	 7.3975709999999995e-01,	 2.6674117330541626e-02,	 7.0863792419364563e+02,	 -6.6020012843158298e+01,	 5.4806718784197858e+02,	 4.2058501653875701e+03,	 4.4924872645037323e+02,	 1.5842151661535455e+00 
1.2073100000000001e+00,	 7.3977219999999999e-01,	 2.6486663237706209e-02,	 7.1083797295426029e+02,	 -6.7882181525686235e+01,	 5.4632799541147438e+02,	 4.1630405661126979e+03,	 4.4853535513411873e+02,	 1.5920079588107900e+00 
1.2147930000000000e+00,	 7.3978630000000001e-01,	 2.6300125376523802e-02,	 7.1301202040720227e+02,	 -6.9705273145268080e+01,	 5.4460175286824119e+02,	 4.1206600876576877e+03,	 4.4782617181000973e+02,	 1.5997527978202934e+00 
1.2222740000000001e+00,	 7.3979940000000000e-01,	 2.6114467421336482e-02,	 7.1516198982466130e+02,	 -7.1486087882424371e+01,	 5.4289387791002673e+02,	 4.0787403094577685e+03,	 4.4712342739958063e+02,	 1.6074440860932218e+00 
1.2297540000000000e+00,	 7.3981169999999996e-01,	 2.5929447637351132e-02,	 7.1729060626455725e+02,	 -7.3220603982665722e+01,	 5.4121388202485264e+02,	 4.0373103061359111e+03,	 4.4643107519795325e+02,	 1.6150714396037651e+00 
1.2372339999999999e+00,	 7.3982320000000001e-01,	 2.5745058992757652e-02,	 7.1939834572472216e+02,	 -7.4904611186503146e+01,	 5.3956165196445204e+02,	 3.9963627701081068e+03,	 4.4574911685068463e+02,	 1.6226334160425635e+00 
1.2447130000000000e+00,	 7.3983399999999999e-01,	 2.5561445340141771e-02,	 7.2148194955629674e+02,	 -7.6539940938036125e+01,	 5.3792895083344479e+02,	 3.9558540724458649e+03,	 4.4507419260726891e+02,	 1.6301339263626402e+00 
1.2521910000000001e+00,	 7.3984410000000000e-01,	 2.5378552175010841e-02,	 7.2353536503082910e+02,	 -7.8129282261457419e+01,	 5.3631269456023733e+02,	 3.9157490989535977e+03,	 4.4440505673993641e+02,	 1.6375633735073520e+00 
1.2596689999999999e+00,	 7.3985360000000000e-01,	 2.5196200557195538e-02,	 7.2555295581423002e+02,	 -7.9673040660791614e+01,	 5.3471127423326095e+02,	 3.8760050591163968e+03,	 4.4374106784070290e+02,	 1.6449104054840353e+00 
1.2671460000000001e+00,	 7.3986240000000003e-01,	 2.5014172647035593e-02,	 7.2753013029727526e+02,	 -8.1171178711108865e+01,	 5.3312322558772416e+02,	 3.8365749205585385e+03,	 4.4308164056997782e+02,	 1.6521657152712590e+00 
1.2746230000000001e+00,	 7.3987069999999999e-01,	 2.4832484022124256e-02,	 7.2946261534240216e+02,	 -8.2626284165579776e+01,	 5.3154876427696536e+02,	 3.7974600616787679e+03,	 4.4242688507274767e+02,	 1.6593187903355309e+00 
1.2820990000000001e+00,	 7.3987860000000005e-01,	 2.4651307045245416e-02,	 7.3134815252461465e+02,	 -8.4043570104084836e+01,	 5.2998904340036870e+02,	 3.7586923494228631e+03,	 4.4177730270968459e+02,	 1.6663628562065740e+00 
1.2895740000000000e+00,	 7.3988589999999999e-01,	 2.4470919925770544e-02,	 7.3318760180578329e+02,	 -8.5428491608794388e+01,	 5.2844598366598746e+02,	 3.7203246082213814e+03,	 4.4113371801427138e+02,	 1.6732970304274399e+00 
1.2970500000000000e+00,	 7.3989289999999996e-01,	 2.4291558749822785e-02,	 7.3498482663080654e+02,	 -8.6784743977999057e+01,	 5.2692094359358248e+02,	 3.6823984748525354e+03,	 4.4049672512488257e+02,	 1.6801276531602507e+00 
1.3045240000000000e+00,	 7.3989939999999998e-01,	 2.4113376991016924e-02,	 7.3674572605237529e+02,	 -8.8115308582637056e+01,	 5.2541450081089988e+02,	 3.6449370153759096e+03,	 4.3986659446862024e+02,	 1.6868667726801216e+00 
1.3119989999999999e+00,	 7.3990549999999999e-01,	 2.3936570474843308e-02,	 7.3847853131595218e+02,	 -8.9424693280617433e+01,	 5.2392753239864385e+02,	 3.6079713930976809e+03,	 4.3924372323685117e+02,	 1.6935317381606712e+00 
1.3194729999999999e+00,	 7.3991119999999999e-01,	 2.3761657553694759e-02,	 7.4019390032242177e+02,	 -9.0718125495108055e+01,	 5.2246381117763940e+02,	 3.5716005752679139e+03,	 4.3862972607719212e+02,	 1.7001410062871791e+00 
1.3269460000000000e+00,	 7.3991649999999998e-01,	 2.3589366973130323e-02,	 7.4190616794570406e+02,	 -9.1999713047985580e+01,	 5.2102910471269865e+02,	 3.5359670371239822e+03,	 4.3802706469803547e+02,	 1.7067178183639977e+00 
1.3344190000000000e+00,	 7.3992139999999995e-01,	 2.3420339365776761e-02,	 7.4362936891635377e+02,	 -9.3272310757082522e+01,	 5.1962855933247374e+02,	 3.5011936619358394e+03,	 4.3743795211931626e+02,	 1.7132853713836160e+00 
1.3418920000000001e+00,	 7.3992599999999997e-01,	 2.3254680331724266e-02,	 7.4537039612866681e+02,	 -9.4533238087958793e+01,	 5.1826271122440801e+02,	 3.4672908541576871e+03,	 4.3686266913914307e+02,	 1.7198566680007004e+00 
1.3493640000000000e+00,	 7.3993039999999999e-01,	 2.3091880702682248e-02,	 7.4712412191742260e+02,	 -9.5778506263682104e+01,	 5.1692705501267881e+02,	 3.4341440285510648e+03,	 4.3629936914155314e+02,	 1.7264254301360682e+00 
1.3568370000000001e+00,	 7.3993439999999999e-01,	 2.2931138885428096e-02,	 7.4887263178894739e+02,	 -9.7008256922311460e+01,	 5.1561538084213930e+02,	 3.4015857702533281e+03,	 4.3574547463858329e+02,	 1.7329604443433848e+00 
1.3643090000000000e+00,	 7.3993830000000005e-01,	 2.2771492140526973e-02,	 7.5059425129147098e+02,	 -9.8219918150272036e+01,	 5.1432083684419626e+02,	 3.3694230792361818e+03,	 4.3519812266067578e+02,	 1.7394222949381248e+00 
1.3717800000000000e+00,	 7.3994190000000004e-01,	 2.2611913104279895e-02,	 7.5227465053066294e+02,	 -9.9408256936239894e+01,	 5.1303651917650529e+02,	 3.3374558220114677e+03,	 4.3465441340007743e+02,	 1.7457876484441139e+00 
1.3792519999999999e+00,	 7.3994539999999998e-01,	 2.2451825686806398e-02,	 7.5391011169904209e+02,	 -1.0056921150122830e+02,	 5.1176056526701120e+02,	 3.3055856661455605e+03,	 4.3411357055810856e+02,	 1.7520492136270609e+00 
1.3867229999999999e+00,	 7.3994859999999996e-01,	 2.2291980602851071e-02,	 7.5550422440545299e+02,	 -1.0170191697173206e+02,	 5.1049377783174964e+02,	 3.2739274179869417e+03,	 4.3357594574566912e+02,	 1.7582127914618377e+00 
1.3941939999999999e+00,	 7.3995160000000004e-01,	 2.2132467245010935e-02,	 7.5707106662131355e+02,	 -1.0279996773689584e+02,	 5.0923942122919976e+02,	 3.2425134297105328e+03,	 4.3304293891012207e+02,	 1.7643021956783560e+00 
1.4016649999999999e+00,	 7.3995460000000002e-01,	 2.1972986054669675e-02,	 7.5862191492393117e+02,	 -1.0386181226949233e+02,	 5.0800800506984115e+02,	 3.2113642873740519e+03,	 4.3251904109920861e+02,	 1.7703236586971209e+00 
1.4091359999999999e+00,	 7.3995730000000004e-01,	 2.1814371724977424e-02,	 7.6015234914599773e+02,	 -1.0489403159632042e+02,	 5.0681095730199127e+02,	 3.1806702199310589e+03,	 4.3200915611131182e+02,	 1.7762480642486611e+00 
1.4166069999999999e+00,	 7.3995999999999995e-01,	 2.1654337114116212e-02,	 7.6166740554655712e+02,	 -1.0589823115498325e+02,	 5.0565374103448659e+02,	 3.1501269466174490e+03,	 4.3151566468488340e+02,	 1.7820765221584738e+00 
1.4240780000000000e+00,	 7.3996249999999997e-01,	 2.1491674434003974e-02,	 7.6315712834893429e+02,	 -1.0688705644455750e+02,	 5.0453825729221603e+02,	 3.1195668257903403e+03,	 4.3103943517326780e+02,	 1.7877854364831933e+00 
1.4315480000000000e+00,	 7.3996490000000004e-01,	 2.1328871658239119e-02,	 7.6460463290918756e+02,	 -1.0784394985630017e+02,	 5.0345108870979880e+02,	 3.0892645640681535e+03,	 4.3057478731315797e+02,	 1.7933530883723838e+00 
1.4390179999999999e+00,	 7.3996720000000005e-01,	 2.1166647688383972e-02,	 7.6600978341222185e+02,	 -1.0874257653116196e+02,	 5.0238290161788154e+02,	 3.0592633832553474e+03,	 4.3011776312201380e+02,	 1.7987860197161685e+00 
1.4464889999999999e+00,	 7.3996940000000000e-01,	 2.1004004007127066e-02,	 7.6737669831042172e+02,	 -1.0959055135565136e+02,	 5.0133684242899415e+02,	 3.0294350884013897e+03,	 4.2966973524236636e+02,	 1.8040894098970979e+00 
1.4539590000000000e+00,	 7.3997139999999995e-01,	 2.0841162439212281e-02,	 7.6870893188796231e+02,	 -1.1039320696397269e+02,	 5.0031745245930290e+02,	 2.9998361100910834e+03,	 4.2923267989397362e+02,	 1.8092638837987829e+00 
1.4614290000000001e+00,	 7.3997340000000000e-01,	 2.0678712443765592e-02,	 7.7001470757409913e+02,	 -1.1115316765244330e+02,	 4.9932802434487132e+02,	 2.9705671397554929e+03,	 4.2880804443890094e+02,	 1.8143221568981682e+00 
1.4688990000000000e+00,	 7.3997520000000006e-01,	 2.0517408539523864e-02,	 7.7130357427669719e+02,	 -1.1187152825018339e+02,	 4.9837051225186394e+02,	 2.9417433579410190e+03,	 4.2839670570613816e+02,	 1.8192819444569233e+00 
1.4763679999999999e+00,	 7.3997700000000000e-01,	 2.0357905636759238e-02,	 7.7258246016185535e+02,	 -1.1254882320920586e+02,	 4.9744453555081759e+02,	 2.9134508702086728e+03,	 4.2799853828740265e+02,	 1.8241590450032135e+00 
1.4838380000000000e+00,	 7.3997880000000005e-01,	 2.0200577365116150e-02,	 7.7385273350170519e+02,	 -1.1318577309289476e+02,	 4.9654597724418841e+02,	 2.8857133442599288e+03,	 4.2761180625651281e+02,	 1.8289634364676839e+00 
1.4913080000000001e+00,	 7.3998039999999998e-01,	 2.0045585668044409e-02,	 7.7510823197795889e+02,	 -1.1378078753737020e+02,	 4.9566881556947044e+02,	 2.8585137366680519e+03,	 4.2723394549331550e+02,	 1.8336905710001048e+00 
1.4987779999999999e+00,	 7.3998209999999998e-01,	 1.9892909214426824e-02,	 7.7633835078339712e+02,	 -1.1433201965001132e+02,	 4.9480603126481316e+02,	 2.8318042080395317e+03,	 4.2686195185963038e+02,	 1.8383275312874205e+00 
1.5062469999999999e+00,	 7.3998359999999996e-01,	 1.9742111537625825e-02,	 7.7753577615139557e+02,	 -1.1484831565304299e+02,	 4.9394561568066615e+02,	 2.8054509089945859e+03,	 4.2649065638610233e+02,	 1.8428821590179369e+00 
1.5137170000000000e+00,	 7.3998509999999995e-01,	 1.9592566314022682e-02,	 7.7869613830628759e+02,	 -1.1534339904208866e+02,	 4.9307640373266963e+02,	 2.7793003532996518e+03,	 4.2611523650785011e+02,	 1.8473696071155863e+00 
1.5211859999999999e+00,	 7.3998660000000005e-01,	 1.9444663032801950e-02,	 7.7981035542068253e+02,	 -1.1580803645008939e+02,	 4.9220089025621007e+02,	 2.7534218456121721e+03,	 4.2573676028855766e+02,	 1.8517608499870022e+00 
1.5286560000000000e+00,	 7.3998799999999998e-01,	 1.9316565448866820e-02,	 7.8059157860027756e+02,	 -1.1620254243476491e+02,	 4.9145374587823630e+02,	 2.7311307812706223e+03,	 4.2541351053807591e+02,	 1.8551207088115835e+00 
1.1549080000000000e+00,	 7.4540370000000000e-01,	 2.7949511640027846e-02,	 6.9548641761861199e+02,	 -5.2099850781231979e+01,	 5.5835320470917441e+02,	 4.4896571177066062e+03,	 4.5344483576900831e+02,	 1.5380815228702223e+00 
1.1623990000000000e+00,	 7.4542600000000003e-01,	 2.7791536983729093e-02,	 6.9718178899269833e+02,	 -5.3971746211022250e+01,	 5.5695618384942395e+02,	 4.4531111305629065e+03,	 4.5287721241866370e+02,	 1.5440559561139404e+00 
1.1698869999999999e+00,	 7.4544690000000002e-01,	 2.7595987279839272e-02,	 6.9944446083145294e+02,	 -5.6000855099493521e+01,	 5.5524479321396916e+02,	 4.4081906413900278e+03,	 4.5218088643814491e+02,	 1.5517744074992692e+00 
1.1773750000000001e+00,	 7.4546650000000003e-01,	 2.7400921023087537e-02,	 7.0169462916196505e+02,	 -5.7989741015259938e+01,	 5.5353889590541519e+02,	 4.3635830044960821e+03,	 4.5148572679126545e+02,	 1.5594884093222694e+00 
1.1848609999999999e+00,	 7.4548479999999995e-01,	 2.7206616340286933e-02,	 7.0393017222462515e+02,	 -5.9940547338283274e+01,	 5.5184210755463710e+02,	 4.3193590388806451e+03,	 4.5079321565900773e+02,	 1.5671876710342001e+00 
1.1923459999999999e+00,	 7.4550209999999995e-01,	 2.7013082794585232e-02,	 7.0614837320573258e+02,	 -6.1853920045141194e+01,	 5.5015628697947363e+02,	 4.2755320610609178e+03,	 4.5010412565207679e+02,	 1.5748626889331858e+00 
1.1998310000000001e+00,	 7.4551809999999996e-01,	 2.6820320290512324e-02,	 7.0834404786479843e+02,	 -6.3731451960963078e+01,	 5.4848344682713673e+02,	 4.2321146316125851e+03,	 4.4941929707480040e+02,	 1.5824983733765701e+00 
1.2073140000000000e+00,	 7.4553300000000000e-01,	 2.6628270504948242e-02,	 7.1051304757488606e+02,	 -6.5572749951729762e+01,	 5.4682773879059596e+02,	 4.1891261077119379e+03,	 4.4874045293204716e+02,	 1.5900783152646536e+00 
1.2147960000000000e+00,	 7.4554690000000001e-01,	 2.6436784341307012e-02,	 7.1265519406625401e+02,	 -6.7374171051145240e+01,	 5.4519308134897176e+02,	 4.1465690484857205e+03,	 4.4806923063612180e+02,	 1.5975943577310057e+00 
1.2222770000000001e+00,	 7.4555979999999999e-01,	 2.6245861416849130e-02,	 7.1477295982079693e+02,	 -6.9130382225686091e+01,	 5.4357787470663834e+02,	 4.1044270402348802e+03,	 4.4740500611626391e+02,	 1.6050517875494121e+00 
1.2297570000000000e+00,	 7.4557189999999995e-01,	 2.6055619635413110e-02,	 7.1686909792344932e+02,	 -7.0838593524504063e+01,	 5.4197476158390998e+02,	 4.0626593263632808e+03,	 4.4674477832687444e+02,	 1.6124656536662190e+00 
1.2372360000000000e+00,	 7.4558320000000000e-01,	 2.5866200781531803e-02,	 7.1894202621381214e+02,	 -7.2497008989353048e+01,	 5.4038217853757669e+02,	 4.0212733868408218e+03,	 4.4608791969965091e+02,	 1.6198332049372015e+00 
1.2447150000000000e+00,	 7.4559379999999997e-01,	 2.5677666429967657e-02,	 7.2098589849576467e+02,	 -7.4105185368070934e+01,	 5.3880524838332258e+02,	 3.9803137574485977e+03,	 4.4543656269024336e+02,	 1.6271324247856451e+00 
1.2521929999999999e+00,	 7.4560380000000004e-01,	 2.5489862427456385e-02,	 7.2299529769881769e+02,	 -7.5664757270591053e+01,	 5.3724478007322716e+02,	 3.9397587934125359e+03,	 4.4479106633900420e+02,	 1.6343490270596144e+00 
1.2596710000000000e+00,	 7.4561319999999998e-01,	 2.5302461150005708e-02,	 7.2496592460001182e+02,	 -7.7174780626509062e+01,	 5.3569878730444168e+02,	 3.8995398911750785e+03,	 4.4415063277203990e+02,	 1.6414748541673332e+00 
1.2671479999999999e+00,	 7.4562189999999995e-01,	 2.5115361336592940e-02,	 7.2689199472291671e+02,	 -7.8637366062011637e+01,	 5.3416665890304103e+02,	 3.8596341945830795e+03,	 4.4351503019449331e+02,	 1.6484970863050421e+00 
1.2746240000000000e+00,	 7.4563009999999996e-01,	 2.4928742739488433e-02,	 7.2876811294732238e+02,	 -8.0057830159340853e+01,	 5.3264973107993626e+02,	 3.8200761943698508e+03,	 4.4288483491906322e+02,	 1.6554015629054497e+00 
1.2821000000000000e+00,	 7.4563789999999996e-01,	 2.4742842375573400e-02,	 7.3059197615241192e+02,	 -8.1442231785149346e+01,	 5.3114971878134475e+02,	 3.7809112378215668e+03,	 4.4226078403493636e+02,	 1.6621806535099934e+00 
1.2895749999999999e+00,	 7.4564520000000001e-01,	 2.4557872736061095e-02,	 7.3236533149855200e+02,	 -8.2795891138399227e+01,	 5.2966710622322535e+02,	 3.7421714818520836e+03,	 4.4164310546131242e+02,	 1.6688376050620268e+00 
1.2970500000000000e+00,	 7.4565199999999998e-01,	 2.4373841271110770e-02,	 7.3409335908100365e+02,	 -8.4119863460612436e+01,	 5.2820051088911509e+02,	 3.7038443953899914e+03,	 4.4103124879296638e+02,	 1.6753853522945594e+00 
1.3045249999999999e+00,	 7.4565850000000000e-01,	 2.4190879422518550e-02,	 7.3578135658051769e+02,	 -8.5416938433357359e+01,	 5.2674940884839930e+02,	 3.6659425195176295e+03,	 4.4042501925995037e+02,	 1.6818363216285939e+00 
1.3119989999999999e+00,	 7.4566460000000001e-01,	 2.4009287994705121e-02,	 7.3743639550706689e+02,	 -8.6692981761575709e+01,	 5.2531504637620776e+02,	 3.6285161368545128e+03,	 4.3982496185875021e+02,	 1.6882050477422283e+00 
1.3194729999999999e+00,	 7.4567019999999995e-01,	 2.3829639924298367e-02,	 7.3906927605122496e+02,	 -8.7954300662132425e+01,	 5.2390152926872781e+02,	 3.5916754291899779e+03,	 4.3923282301438189e+02,	 1.6945101062361996e+00 
1.3269460000000000e+00,	 7.4567550000000005e-01,	 2.3652739033050700e-02,	 7.4069542309138330e+02,	 -8.9206023349086763e+01,	 5.2251513160462287e+02,	 3.5555783194246169e+03,	 4.3865126834632412e+02,	 1.7007767305721095e+00 
1.3344190000000000e+00,	 7.4568040000000002e-01,	 2.3479203258528709e-02,	 7.4233069191533195e+02,	 -9.0448855990650486e+01,	 5.2116062020934635e+02,	 3.5203422280863711e+03,	 4.3808234348348020e+02,	 1.7070323562065099e+00 
1.3418920000000001e+00,	 7.4568500000000004e-01,	 2.3309105276596399e-02,	 7.4398384453981168e+02,	 -9.1678812311624512e+01,	 5.1984033094978122e+02,	 3.4859849784016697e+03,	 4.3752708069437097e+02,	 1.7132909999851087e+00 
1.3493640000000000e+00,	 7.4568930000000000e-01,	 2.3142185005280518e-02,	 7.4564773130336130e+02,	 -9.2898083859477055e+01,	 5.1855430610683993e+02,	 3.4524591101229144e+03,	 4.3698554987386564e+02,	 1.7195360329227816e+00 
1.3568370000000001e+00,	 7.4569330000000000e-01,	 2.2977654662802906e-02,	 7.4730473597075002e+02,	 -9.4107935229232368e+01,	 5.1729775489150541e+02,	 3.4196072489805656e+03,	 4.3645578109170646e+02,	 1.7257347883496652e+00 
1.3643080000000001e+00,	 7.4569719999999995e-01,	 2.2814208250762798e-02,	 7.4893639262722422e+02,	 -9.5300824074058980e+01,	 5.1606155482056874e+02,	 3.3871688405809737e+03,	 4.3593396421700197e+02,	 1.7318574293044406e+00 
1.3717800000000000e+00,	 7.4570080000000005e-01,	 2.2650680681663385e-02,	 7.5052864736776485e+02,	 -9.6469872133729837e+01,	 5.1483775199924480e+02,	 3.3549154562708663e+03,	 4.3541676440481348e+02,	 1.7378824872444947e+00 
1.3792519999999999e+00,	 7.4570429999999999e-01,	 2.2486860355342253e-02,	 7.5207476961507143e+02,	 -9.7610747243608401e+01,	 5.1362351908157075e+02,	 3.3227958735397197e+03,	 4.3490300112262850e+02,	 1.7437973440850101e+00 
1.3867229999999999e+00,	 7.4570749999999997e-01,	 2.2322417098552903e-02,	 7.5358075678692910e+02,	 -9.8722368140200444e+01,	 5.1242308220512041e+02,	 3.2907875124239404e+03,	 4.3439447787125613e+02,	 1.7496073654926758e+00 
1.3941939999999999e+00,	 7.4571060000000000e-01,	 2.2156188264462078e-02,	 7.5506153341184677e+02,	 -9.9807706458991277e+01,	 5.1124918913925154e+02,	 3.2587993156287562e+03,	 4.3389662261735890e+02,	 1.7553247980451809e+00 
1.4016649999999999e+00,	 7.4571350000000003e-01,	 2.1989336977568167e-02,	 7.5652093354872648e+02,	 -1.0087359048571368e+02,	 5.1011171879461637e+02,	 3.2270624718165845e+03,	 4.3341366892564150e+02,	 1.7609423525205787e+00 
1.4091359999999999e+00,	 7.4571630000000000e-01,	 2.1823213951957767e-02,	 7.5796047183959297e+02,	 -1.0190947789405664e+02,	 5.0901323161240782e+02,	 3.1957862196882425e+03,	 4.3294675557143387e+02,	 1.7664545470909367e+00 
1.4166069999999999e+00,	 7.4571900000000002e-01,	 2.1658043241544439e-02,	 7.5937933218569538e+02,	 -1.0290650265219072e+02,	 5.0795078682968239e+02,	 3.1649786980590525e+03,	 4.3249468255070531e+02,	 1.7718605020393983e+00 
1.4240770000000000e+00,	 7.4572159999999998e-01,	 2.1493990110683592e-02,	 7.6076805724288351e+02,	 -1.0386535338261911e+02,	 5.0691904911758058e+02,	 3.1346250056273088e+03,	 4.3205522275981400e+02,	 1.7771467446284124e+00 
1.4315480000000000e+00,	 7.4572400000000005e-01,	 2.1328824759941939e-02,	 7.6212753607641889e+02,	 -1.0478898850698646e+02,	 5.0591421619831323e+02,	 3.1043719222592204e+03,	 4.3162679274856168e+02,	 1.7823217147351167e+00 
1.4390179999999999e+00,	 7.4572629999999995e-01,	 2.1161601246909998e-02,	 7.6345387396686192e+02,	 -1.0567131425544130e+02,	 5.0493745092033868e+02,	 3.0740862426343401e+03,	 4.3120992192191437e+02,	 1.7873713910666016e+00 
1.4464880000000000e+00,	 7.4572850000000002e-01,	 2.0993460713720703e-02,	 7.6473879122745359e+02,	 -1.0650775912508416e+02,	 5.0399018199675180e+02,	 3.0439397389309361e+03,	 4.3080525446036535e+02,	 1.7922715881363256e+00 
1.4539580000000001e+00,	 7.4573060000000002e-01,	 2.0825113320664692e-02,	 7.6598653085211822e+02,	 -1.0729781197473412e+02,	 5.0307101202173982e+02,	 3.0140232901389982e+03,	 4.3041222699566077e+02,	 1.7970331765550862e+00 
1.4614279999999999e+00,	 7.4573259999999997e-01,	 2.0657348859984725e-02,	 7.6720671647681718e+02,	 -1.0804281592355181e+02,	 5.0217847706925352e+02,	 2.9844383819138375e+03,	 4.3003024464191327e+02,	 1.8016802473070410e+00 
1.4688980000000000e+00,	 7.4573449999999997e-01,	 2.0491037029481046e-02,	 7.6840980425141504e+02,	 -1.0874381710630264e+02,	 5.0131136563750294e+02,	 2.9552989982250842e+03,	 4.2965881768713973e+02,	 1.8062384183689715e+00 
1.4763679999999999e+00,	 7.4573639999999997e-01,	 2.0326942548886218e-02,	 7.6960338373685306e+02,	 -1.0940172238032774e+02,	 5.0046717912969348e+02,	 2.9266958967772734e+03,	 4.2929690189158157e+02,	 1.8107291282407287e+00 
1.4838380000000000e+00,	 7.4573809999999996e-01,	 2.0165538442436685e-02,	 7.7078926151342421e+02,	 -1.1001751048681915e+02,	 4.9964058958017830e+02,	 2.8986612998674236e+03,	 4.2894223430259336e+02,	 1.8151657918975848e+00 
1.4913069999999999e+00,	 7.4573979999999995e-01,	 2.0006934628276719e-02,	 7.7196217777361471e+02,	 -1.1059234616276564e+02,	 4.9882373476041391e+02,	 2.8711613573091381e+03,	 4.2859145529747883e+02,	 1.8195503856535986e+00 
1.4987770000000000e+00,	 7.4574149999999995e-01,	 1.9851059075173632e-02,	 7.7311261289854019e+02,	 -1.1112599574913273e+02,	 4.9800825915402135e+02,	 2.8441347234299033e+03,	 4.2824098196169143e+02,	 1.8238756981321849e+00 
1.5062460000000000e+00,	 7.4574309999999999e-01,	 1.9697795064262193e-02,	 7.7423026695424721e+02,	 -1.1161796636489429e+02,	 4.9718750479269352e+02,	 2.8175248668508543e+03,	 4.2788795007602300e+02,	 1.8281296970673451e+00 
1.5137160000000001e+00,	 7.4574470000000004e-01,	 1.9546594164002506e-02,	 7.7531033917804712e+02,	 -1.1207921454871979e+02,	 4.9635232207370524e+02,	 2.7912008677786876e+03,	 4.2752841285831261e+02,	 1.8323216411491572e+00 
1.5211850000000000e+00,	 7.4574620000000003e-01,	 1.9397253275681675e-02,	 7.7634859648518704e+02,	 -1.1251521465042028e+02,	 4.9549952526658927e+02,	 2.7651163917876765e+03,	 4.2716098070472617e+02,	 1.8364495010663815e+00 
1.5286550000000001e+00,	 7.4574759999999995e-01,	 1.9268316214124406e-02,	 7.7707313167926873e+02,	 -1.1289226196308354e+02,	 4.9476178734720486e+02,	 2.7426466087873805e+03,	 4.2684286714154325e+02,	 1.8396248368821022e+00 
1.1549149999999999e+00,	 7.5116649999999996e-01,	 2.8141002754005696e-02,	 6.9487212283999361e+02,	 -4.9699923290733139e+01,	 5.5876164099673804e+02,	 4.5237238985150316e+03,	 4.5361065327217869e+02,	 1.5357823173238414e+00 
1.1624040000000000e+00,	 7.5118830000000003e-01,	 2.7977559201914901e-02,	 6.9653159493454041e+02,	 -5.1529332223860116e+01,	 5.5741810173999056e+02,	 4.4866359188295846e+03,	 4.5306497290749036e+02,	 1.5415781467175085e+00 
1.1698930000000001e+00,	 7.5120880000000001e-01,	 2.7775902168028589e-02,	 6.9875019643172982e+02,	 -5.3516746997012433e+01,	 5.5577740281468516e+02,	 4.4411863491251970e+03,	 4.5239770806125688e+02,	 1.5490719577727150e+00 
1.1773800000000001e+00,	 7.5122800000000001e-01,	 2.7574851980257446e-02,	 7.0095086411530656e+02,	 -5.5467827543706669e+01,	 5.5414779285778036e+02,	 4.3961118652843606e+03,	 4.5173397738970505e+02,	 1.5565401800304972e+00 
1.1848660000000000e+00,	 7.5124610000000003e-01,	 2.7374514589601478e-02,	 7.0313305908042696e+02,	 -5.7383440656932372e+01,	 5.5253203597119330e+02,	 4.3514483000676055e+03,	 4.5107492477109957e+02,	 1.5639768391541387e+00 
1.1923509999999999e+00,	 7.5126300000000001e-01,	 2.7174980905862720e-02,	 7.0529322233093058e+02,	 -5.9265792635031183e+01,	 5.5093320406334624e+02,	 4.3072306896484306e+03,	 4.5042182647905412e+02,	 1.5713689989974506e+00 
1.1998340000000001e+00,	 7.5127880000000002e-01,	 2.6976286465613994e-02,	 7.0742647263924164e+02,	 -6.1115833269356727e+01,	 5.4935375986886356e+02,	 4.2634797396708536e+03,	 4.4977571661754024e+02,	 1.5787013209280203e+00 
1.2073170000000000e+00,	 7.5129340000000000e-01,	 2.6778288210540600e-02,	 7.0953142157145237e+02,	 -6.2931044471389605e+01,	 5.4779113068762399e+02,	 4.2201486158728894e+03,	 4.4913557066539647e+02,	 1.5859726952965156e+00 
1.2147990000000000e+00,	 7.5130699999999995e-01,	 2.6580861557057876e-02,	 7.1160950145243055e+02,	 -6.4705687214389258e+01,	 5.4624097656993013e+02,	 4.1771807391796519e+03,	 4.4849963247148980e+02,	 1.5931902597473873e+00 
1.2222789999999999e+00,	 7.5131979999999998e-01,	 2.6383959002838360e-02,	 7.1366173999994817e+02,	 -6.6433362452125920e+01,	 5.4470473372702668e+02,	 4.1345766767276273e+03,	 4.4786851040292413e+02,	 1.6003517304610784e+00 
1.2297590000000000e+00,	 7.5133170000000005e-01,	 2.6187533448036718e-02,	 7.1568810626157926e+02,	 -6.8110357615522076e+01,	 5.4318605209171051e+02,	 4.0923535077253596e+03,	 4.4724372747562006e+02,	 1.6074496037907964e+00 
1.2372390000000000e+00,	 7.5134279999999998e-01,	 2.5991581991322864e-02,	 7.1768637530878368e+02,	 -6.9736422513136120e+01,	 5.4168626150283319e+02,	 4.0505171216508834e+03,	 4.4662585852619895e+02,	 1.6144754929871934e+00 
1.2447170000000001e+00,	 7.5135330000000000e-01,	 2.5796184941756270e-02,	 7.1965138030951687e+02,	 -7.1311499140141507e+01,	 5.4020579835754450e+02,	 4.0090794297135199e+03,	 4.4601511244201487e+02,	 1.6214157750782576e+00 
1.2521949999999999e+00,	 7.5136309999999995e-01,	 2.5601229225617993e-02,	 7.2157794186981084e+02,	 -7.2833938514069132e+01,	 5.3874218323337072e+02,	 3.9680006766980305e+03,	 4.4541049358108512e+02,	 1.6282608022577330e+00 
1.2596719999999999e+00,	 7.5137240000000005e-01,	 2.5406458028379535e-02,	 7.2346204785508860e+02,	 -7.4302229425857149e+01,	 5.3729360998720540e+02,	 3.9272245711713058e+03,	 4.4481127930041941e+02,	 1.6350025948112299e+00 
1.2671490000000001e+00,	 7.5138099999999997e-01,	 2.5212217032196286e-02,	 7.2529343073385860e+02,	 -7.5725110631176506e+01,	 5.3586259445052008e+02,	 3.8868198937022694e+03,	 4.4421853425731314e+02,	 1.6416149810928751e+00 
1.2746249999999999e+00,	 7.5138910000000003e-01,	 2.5018731701022562e-02,	 7.2706827364144249e+02,	 -7.7107888765222214e+01,	 5.3444857028039996e+02,	 3.8468136363715284e+03,	 4.4363204932945882e+02,	 1.6480901453208125e+00 
1.2821009999999999e+00,	 7.5139679999999998e-01,	 2.4826506583745127e-02,	 7.2878468439518520e+02,	 -7.8453999178456343e+01,	 5.3304871363707196e+02,	 3.8072592457580226e+03,	 4.4305067584229965e+02,	 1.6544277320384682e+00 
1.2895760000000001e+00,	 7.5140399999999996e-01,	 2.4635457505502990e-02,	 7.3044727998484325e+02,	 -7.9762318305443358e+01,	 5.3165921432376763e+02,	 3.7681129691516658e+03,	 4.4247284843044042e+02,	 1.6606425961875908e+00 
1.2970510000000000e+00,	 7.5141080000000005e-01,	 2.4445325781720414e-02,	 7.3206111581065920e+02,	 -8.1037764820282703e+01,	 5.3027835800058210e+02,	 3.7293201673957788e+03,	 4.4189786669796564e+02,	 1.6667489857749640e+00 
1.3045260000000001e+00,	 7.5141720000000001e-01,	 2.4256391052908187e-02,	 7.3362923898164490e+02,	 -8.2287618631511776e+01,	 5.2890653028857980e+02,	 3.6909235707996359e+03,	 4.4132590265079688e+02,	 1.6727541048680681e+00 
1.3120000000000001e+00,	 7.5142319999999996e-01,	 2.4069055724449825e-02,	 7.3515784888001747e+02,	 -8.3519613717398556e+01,	 5.2754594039336746e+02,	 3.6529966609429225e+03,	 4.4075789091944722e+02,	 1.6786696070935949e+00 
1.3194729999999999e+00,	 7.5142880000000001e-01,	 2.3883894780909111e-02,	 7.3665902305883560e+02,	 -8.4740260204785201e+01,	 5.2620116623805245e+02,	 3.6156542417275809e+03,	 4.4019576164815197e+02,	 1.6845163950370692e+00 
1.3269470000000001e+00,	 7.5143400000000005e-01,	 2.3701208783118290e-02,	 7.3815106810606881e+02,	 -8.5953639328723966e+01,	 5.2488034830048696e+02,	 3.5789921546655914e+03,	 4.3964294667100086e+02,	 1.6903231096049396e+00 
1.3344199999999999e+00,	 7.5143890000000002e-01,	 2.3521174897017175e-02,	 7.3965290020245322e+02,	 -8.7163468091520258e+01,	 5.2359445147374242e+02,	 3.5431046861197970e+03,	 4.3910407895718970e+02,	 1.6961150280424409e+00 
1.3418920000000001e+00,	 7.5144350000000004e-01,	 2.3344769622667974e-02,	 7.4117113715938262e+02,	 -8.8373459953224966e+01,	 5.2234910472569970e+02,	 3.5081680147738180e+03,	 4.3858157305644710e+02,	 1.7018980938383370e+00 
1.3493640000000000e+00,	 7.5144780000000000e-01,	 2.3172557504694200e-02,	 7.4269817980402172e+02,	 -8.9577353742230642e+01,	 5.2113959886327279e+02,	 3.4742253144310012e+03,	 4.3807350822899303e+02,	 1.7076601433030727e+00 
1.3568370000000001e+00,	 7.5145180000000000e-01,	 2.3003234209307933e-02,	 7.4422194628937359e+02,	 -9.0765271724796705e+01,	 5.1995693791001315e+02,	 3.4410122301230035e+03,	 4.3757614945562557e+02,	 1.7133849301334763e+00 
1.3643080000000001e+00,	 7.5145569999999995e-01,	 2.2834957042748152e-02,	 7.4572586049728443e+02,	 -9.1932375074697632e+01,	 5.1879454973198642e+02,	 3.4082036821212519e+03,	 4.3708676476562698e+02,	 1.7190434964324746e+00 
1.3717800000000000e+00,	 7.5145930000000005e-01,	 2.2666431994817764e-02,	 7.4719358285145438e+02,	 -9.3077100993759558e+01,	 5.1764935921339827e+02,	 3.3755829130529883e+03,	 4.3660408414340912e+02,	 1.7246025646164274e+00 