TITLE = "Final State"
VARIABLES = "X", "Y", "rho", "u", "v", "T", "p", "c", "M"
ZONE I=101, J=26, DATAPACKING=POINT
1.1571922500000000e+00,	 2.6510125000000001e-01,	 5.3131199797089947e-02,	 1.4716179123797683e+03,	 -3.0439046533862154e+01,	 7.2064131418828470e+02,	 1.1015360556854688e+04,	 5.3875158991541218e+02,	 2.7321175620437139e+00 
1.1586060000000000e+00,	 2.6507169999999997e-01,	 5.3018090531469518e-02,	 1.4720326073649810e+03,	 -3.0385056957772949e+01,	 7.2003678513417083e+02,	 1.0982689462561353e+04,	 5.3852556948407380e+02,	 2.7340320589512239e+00 
1.1600307500000000e+00,	 2.6504187499999998e-01,	 5.2890024170114611e-02,	 1.4725009319788905e+03,	 -3.0344101501878523e+01,	 7.1935326470181838e+02,	 1.0945760011496388e+04,	 5.3826990155462818e+02,	 2.7361989734533685e+00 
1.1614667500000000e+00,	 2.6501182499999998e-01,	 5.2755087396844334e-02,	 1.4729954994914376e+03,	 -3.0239817495420695e+01,	 7.1863303924134323e+02,	 1.0906903341819921e+04,	 5.3800037280444678e+02,	 2.7384848505434065e+00 
1.1629140000000002e+00,	 2.6498154999999995e-01,	 5.2602738588684604e-02,	 1.4735528911099509e+03,	 -3.0170673378592852e+01,	 7.1781957194763049e+02,	 1.0863095258577208e+04,	 5.3769578784703060e+02,	 2.7410698782279974e+00 
1.1643727500000001e+00,	 2.6495102500000001e-01,	 5.2434405403207020e-02,	 1.4741680771025810e+03,	 -3.0121711425210140e+01,	 7.1692057696807626e+02,	 1.0814771070983374e+04,	 5.3735897810035783e+02,	 2.7439306755873223e+00 
1.1658432500000000e+00,	 2.6492024999999997e-01,	 5.2254663983340006e-02,	 1.4748255606187297e+03,	 -3.0049137883110507e+01,	 7.1595995722389114e+02,	 1.0763257496228580e+04,	 5.3699884708087438e+02,	 2.7469922106092959e+00 
1.1673252500000000e+00,	 2.6488924999999997e-01,	 5.2063689374091421e-02,	 1.4755252712235738e+03,	 -2.9956656707683173e+01,	 7.1493761777929478e+02,	 1.0708608134493432e+04,	 5.3661531220648340e+02,	 2.7502557266888994e+00 
1.1688187500000000e+00,	 2.6485802500000000e-01,	 5.1854778666288050e-02,	 1.4762903880128219e+03,	 -2.9904580019120402e+01,	 7.1381769231900114e+02,	 1.0648931423851896e+04,	 5.3619485266601453e+02,	 2.7538370271940487e+00 
1.1703242500000000e+00,	 2.6482649999999996e-01,	 5.1631849485772291e-02,	 1.4771068127482506e+03,	 -2.9859837142406693e+01,	 7.1262170069243496e+02,	 1.0585385109416888e+04,	 5.3574547084064989e+02,	 2.7576688406699761e+00 
1.1718417500000000e+00,	 2.6479472500000001e-01,	 5.1398187447568328e-02,	 1.4779646203949021e+03,	 -2.9793886420485038e+01,	 7.1136493198342862e+02,	 1.0518896778747714e+04,	 5.3527284611975858e+02,	 2.7617035013655165e+00 
1.1733715000000000e+00,	 2.6476274999999999e-01,	 5.1154906086351461e-02,	 1.4788599233373288e+03,	 -2.9700781503551941e+01,	 7.1005316137078216e+02,	 1.0449802791824950e+04,	 5.3477909168134215e+02,	 2.7659236591082701e+00 
1.1749132499999999e+00,	 2.6473049999999998e-01,	 5.0895572449901103e-02,	 1.4798148619484957e+03,	 -2.9645028392811383e+01,	 7.0865184622780998e+02,	 1.0376308225169289e+04,	 5.3425112829469344e+02,	 2.7704420115780759e+00 
1.1764669999999999e+00,	 2.6469797499999997e-01,	 5.0622080432626365e-02,	 1.4808231530427979e+03,	 -2.9610892175063494e+01,	 7.0717052623057407e+02,	 1.0298976772362234e+04,	 5.3369245418120829e+02,	 2.7752297509063228e+00 
1.1780335000000000e+00,	 2.6466522500000000e-01,	 5.0341170422066470e-02,	 1.4818620166051342e+03,	 -2.9540104105375672e+01,	 7.0564427928503630e+02,	 1.0219721739582437e+04,	 5.3311622368208475e+02,	 2.7801750432315395e+00 
1.1796125000000000e+00,	 2.6463219999999998e-01,	 5.0046318758298410e-02,	 1.4829538262243336e+03,	 -2.9501140105210101e+01,	 7.0403804864137874e+02,	 1.0136737629515077e+04,	 5.3250912213631193e+02,	 2.7853931059327603e+00 
1.1812037499999999e+00,	 2.6459887499999996e-01,	 4.9739348076490109e-02,	 1.4840926756668453e+03,	 -2.9481617243730483e+01,	 7.0236073351465927e+02,	 1.0050559754128486e+04,	 5.3187441338149495e+02,	 2.7908570834685307e+00 
1.1828077500000000e+00,	 2.6456532499999996e-01,	 4.9427684220574780e-02,	 1.4852532941281629e+03,	 -2.9416839795662241e+01,	 7.0065134321410744e+02,	 9.9632759686128629e+03,	 5.3122678689815871e+02,	 2.7964413999951017e+00 
1.1844247500000000e+00,	 2.6453152499999999e-01,	 4.9103541139279852e-02,	 1.4864629490772918e+03,	 -2.9384883981458874e+01,	 6.9886726540058271e+02,	 9.8727342952248146e+03,	 5.3055002090032383e+02,	 2.8022868855335479e+00 
1.1860547500000000e+00,	 2.6449742499999995e-01,	 4.8770764015846561e-02,	 1.4877081344050102e+03,	 -2.9358645036955867e+01,	 6.9702907213272897e+02,	 9.7800345457885869e+03,	 5.2985182278814386e+02,	 2.8083281514944107e+00 
1.1876977500000001e+00,	 2.6446302499999996e-01,	 4.8428278623352750e-02,	 1.4889928804900610e+03,	 -2.9351714846914685e+01,	 6.9513027602302031e+02,	 9.6849007448140837e+03,	 5.2912963864412143e+02,	 2.8145884125532938e+00 
1.1893537500000000e+00,	 2.6442837499999999e-01,	 4.8083512590311669e-02,	 1.4902915963673386e+03,	 -2.9302363177421917e+01,	 6.9321040029409176e+02,	 9.5893946759992305e+03,	 5.2839843358623727e+02,	 2.8209387987811567e+00 
1.1910232500000000e+00,	 2.6439347499999999e-01,	 4.7729773522772488e-02,	 1.4916280523346170e+03,	 -2.9277748081266939e+01,	 6.9123222193833806e+02,	 9.4916843205774967e+03,	 5.2764396343151088e+02,	 2.8275038863246671e+00 
1.1927062500000001e+00,	 2.6435827499999998e-01,	 4.7369909407536097e-02,	 1.4929928627644661e+03,	 -2.9263572374665273e+01,	 6.8920992442745921e+02,	 9.3925607815789699e+03,	 5.2687154959042527e+02,	 2.8342384938703078e+00 
1.1944025000000000e+00,	 2.6432277500000001e-01,	 4.7003934660859968e-02,	 1.4943865781689506e+03,	 -2.9262850176319748e+01,	 6.8714248829698272e+02,	 9.2920375166992671e+03,	 5.2608072277187614e+02,	 2.8411477485225598e+00 
1.1961122500000001e+00,	 2.6428699999999999e-01,	 4.6633140080319595e-02,	 1.4958047329129313e+03,	 -2.9272573027508802e+01,	 6.8503651479138068e+02,	 9.1904826384554071e+03,	 5.2527393067550383e+02,	 2.8482112799915287e+00 
1.1978360000000001e+00,	 2.6425092500000003e-01,	 4.6259980761248189e-02,	 1.4972378190106438e+03,	 -2.9274356258621729e+01,	 6.8290657284030158e+02,	 9.0885934705587097e+03,	 5.2445669395341713e+02,	 2.8553815759797874e+00 
1.1995737499999999e+00,	 2.6421457500000001e-01,	 4.5887806483471974e-02,	 1.4986728935445851e+03,	 -2.9241966634790479e+01,	 6.8077262475262228e+02,	 8.9873016622854411e+03,	 5.2363664106226929e+02,	 2.8625921719835627e+00 
1.2013252500000000e+00,	 2.6417794999999999e-01,	 4.5507273261138195e-02,	 1.5001464034276644e+03,	 -2.9278854431816708e+01,	 6.7857735706122060e+02,	 8.8840320221673082e+03,	 5.2279168140647687e+02,	 2.8700382047743620e+00 
1.2030910000000001e+00,	 2.6414100000000001e-01,	 4.5127359400633442e-02,	 1.5016243513888198e+03,	 -2.9302500188927986e+01,	 6.7637369869613121e+02,	 8.7812546315068084e+03,	 5.2194211644044174e+02,	 2.8775417415781219e+00 
1.2048710000000000e+00,	 2.6410375000000003e-01,	 4.4751017254567878e-02,	 1.5030946409675150e+03,	 -2.9288865340850453e+01,	 6.7418038767033943e+02,	 8.6797849218354459e+03,	 5.2109516528838355e+02,	 2.8850391851412667e+00 
1.2066652499999999e+00,	 2.6406619999999997e-01,	 4.4370666035491085e-02,	 1.5045870637867674e+03,	 -2.9328390752745708e+01,	 6.7195031055118761e+02,	 8.5775457730633134e+03,	 5.2023260312176239e+02,	 2.8926923680943069e+00 
1.2084739999999998e+00,	 2.6402834999999997e-01,	 4.3992128507599863e-02,	 1.5060794665724109e+03,	 -2.9366656108812727e+01,	 6.6971808659167505e+02,	 8.4761169550315972e+03,	 5.1936777598361050e+02,	 2.9003835344770263e+00 
1.2102975000000000e+00,	 2.6399020000000001e-01,	 4.3616773370904395e-02,	 1.5075661705067896e+03,	 -2.9400126513897956e+01,	 6.6749232155622769e+02,	 8.3758664946439130e+03,	 5.1850401500418934e+02,	 2.9080832087556447e+00 
1.2121357500000001e+00,	 2.6395174999999998e-01,	 4.3244460784429763e-02,	 1.5090475828348092e+03,	 -2.9441518301885655e+01,	 6.6527205910917144e+02,	 8.2767475233086570e+03,	 5.1764095346356908e+02,	 2.9157947172097862e+00 
1.2139887500000002e+00,	 2.6391300000000001e-01,	 4.2877643929123972e-02,	 1.5105137845099523e+03,	 -2.9476023691661887e+01,	 6.6307263504297316e+02,	 8.1794095809593273e+03,	 5.1678457109430383e+02,	 2.9234645107769759e+00 
1.2158567500000002e+00,	 2.6387392499999995e-01,	 4.2515296854744720e-02,	 1.5119687130865047e+03,	 -2.9522974687773790e+01,	 6.6088763738922694e+02,	 8.0835621418030942e+03,	 5.1593239835970633e+02,	 2.9311144752658276e+00 
1.2177400000000000e+00,	 2.6383452500000004e-01,	 4.2156877838508466e-02,	 1.5134147725171581e+03,	 -2.9605303822591857e+01,	 6.5871282613386154e+02,	 7.9890381798734315e+03,	 5.1508279840920386e+02,	 2.9387592011182324e+00 
1.2196384999999998e+00,	 2.6379480000000000e-01,	 4.1807468081352293e-02,	 1.5148313424617113e+03,	 -2.9678660377173117e+01,	 6.5658056066535687e+02,	 7.8971761416756226e+03,	 5.1424845644624759e+02,	 2.9462840939280479e+00 
1.2215522500000000e+00,	 2.6375474999999993e-01,	 4.1468277333681115e-02,	 1.5162129153934161e+03,	 -2.9743992362870653e+01,	 6.5449923255291151e+02,	 7.8082745167175644e+03,	 5.1343273831834904e+02,	 2.9536578454211733e+00 
1.2234817500000001e+00,	 2.6371440000000002e-01,	 4.1139223531158210e-02,	 1.5175593857753690e+03,	 -2.9815721564469971e+01,	 6.5246871953558582e+02,	 7.7222831848004880e+03,	 5.1263568490021339e+02,	 2.9608790399245484e+00 
1.2254270000000000e+00,	 2.6367370000000001e-01,	 4.0819307842083256e-02,	 1.5188744942639648e+03,	 -2.9927534815123956e+01,	 6.5048251790446773e+02,	 7.6389066507566213e+03,	 5.1185482455617364e+02,	 2.9679691100203223e+00 
1.2273879999999999e+00,	 2.6363264999999997e-01,	 4.0514437810933362e-02,	 1.5201339441079228e+03,	 -3.0027379227102028e+01,	 6.4857897131859283e+02,	 7.5596661730526348e+03,	 5.1110533987437969e+02,	 2.9747888814506016e+00 
1.2293647499999998e+00,	 2.6359129999999997e-01,	 4.0225486092803971e-02,	 1.5213331686854090e+03,	 -3.0126637139592034e+01,	 6.4676485127164221e+02,	 7.4847560212449744e+03,	 5.1039004092265708e+02,	 2.9813109840265870e+00 
1.2313575000000001e+00,	 2.6354962500000001e-01,	 3.9950539689426183e-02,	 1.5224796498918677e+03,	 -3.0266917114055893e+01,	 6.4502781063474163e+02,	 7.4136320553786836e+03,	 5.0970419326633680e+02,	 2.9875768998199224e+00 
1.2333667500000001e+00,	 2.6350759999999995e-01,	 3.9695890887835025e-02,	 1.5235467520618006e+03,	 -3.0398858438843934e+01,	 6.4340980568523457e+02,	 7.3478987950447899e+03,	 5.0906451407664298e+02,	 2.9934319703494627e+00 
1.2353925000000001e+00,	 2.6346522499999997e-01,	 3.9460330108671948e-02,	 1.5245386831566452e+03,	 -3.0562319092702470e+01,	 6.4190351202733007e+02,	 7.2871952060189660e+03,	 5.0846827668667203e+02,	 2.9988989729019253e+00 
1.2374345000000000e+00,	 2.6342247499999999e-01,	 3.9246104025841971e-02,	 1.5254454946516478e+03,	 -3.0754833651617577e+01,	 6.4052428335173670e+02,	 7.2320611123159524e+03,	 5.0792172169084211e+02,	 3.0039185673565205e+00 
1.2394930000000000e+00,	 2.6337939999999999e-01,	 3.9062555830840888e-02,	 1.5262270204525882e+03,	 -3.0888796126501290e+01,	 6.3933590586039361e+02,	 7.1848828030879331e+03,	 5.0745032428547472e+02,	 3.0082541864301668e+00 
1.2415685000000001e+00,	 2.6333600000000001e-01,	 3.8900144749304859e-02,	 1.5269223842445647e+03,	 -3.1106306636902197e+01,	 6.3827498776206608e+02,	 7.1431370187812036e+03,	 5.0702911631447830e+02,	 3.0121331290148623e+00 
1.2436609999999999e+00,	 2.6329219999999998e-01,	 3.8769680465410433e-02,	 1.5274853936810171e+03,	 -3.1300413390226090e+01,	 6.3741505750624526e+02,	 7.1095887114144089e+03,	 5.0668744803589743e+02,	 3.0152830144246896e+00 
1.2457707499999999e+00,	 2.6324807499999997e-01,	 3.8672453321816402e-02,	 1.5279099991354115e+03,	 -3.1479782631437200e+01,	 6.3676525945795936e+02,	 7.0845296560204279e+03,	 5.0642911677754256e+02,	 3.0176666500508382e+00 
1.2478977500000001e+00,	 2.6320359999999998e-01,	 3.8602296106386845e-02,	 1.5282221023624106e+03,	 -3.1740327775851270e+01,	 6.3628344677749203e+02,	 7.0663265008918625e+03,	 5.0623748403621840e+02,	 3.0194359950637613e+00 
1.2500417500000001e+00,	 2.6315872500000004e-01,	 3.8570711879497663e-02,	 1.5283734345825160e+03,	 -3.1959148469591408e+01,	 6.3604683570386806e+02,	 7.0579192996978572e+03,	 5.0614334947017784e+02,	 3.0203054955735316e+00 
1.2522032500000000e+00,	 2.6311350000000000e-01,	 3.8576968906620497e-02,	 1.5283760750706531e+03,	 -3.2164234781175544e+01,	 6.3603629763149956e+02,	 7.0589472960341172e+03,	 5.0613915654204823e+02,	 3.0203442302000516e+00 
1.2543827500000000e+00,	 2.6306789999999997e-01,	 3.8617406435142443e-02,	 1.5282583523001945e+03,	 -3.2417122531015551e+01,	 6.3620686791240439e+02,	 7.0682417263451716e+03,	 5.0620701942276935e+02,	 3.0197173643806305e+00 
1.2565800000000000e+00,	 2.6302192499999999e-01,	 3.8698680181854607e-02,	 1.5279902443082810e+03,	 -3.2635517075638994e+01,	 6.3660669706621832e+02,	 7.0875689063462469e+03,	 5.0636605930825260e+02,	 3.0182487523656993e+00 
1.2587952500000001e+00,	 2.6297557500000002e-01,	 3.8817110713209237e-02,	 1.5275884117186283e+03,	 -3.2857762459433545e+01,	 6.3720916155356645e+02,	 7.1159871478800069e+03,	 5.0660560707557119e+02,	 3.0160379743243855e+00 
1.2610287500000001e+00,	 2.6292884999999999e-01,	 3.8972816216568160e-02,	 1.5270541221922208e+03,	 -3.3065414351111286e+01,	 6.3801278210257476e+02,	 7.1535415915961094e+03,	 5.0692496092468326e+02,	 3.0130930253862958e+00 
1.2632805000000000e+00,	 2.6288175000000003e-01,	 3.9163269156992211e-02,	 1.5263960396757200e+03,	 -3.3262599906442503e+01,	 6.3900408696419311e+02,	 7.1996686723049434e+03,	 5.0731862242237219e+02,	 3.0094665397352069e+00 
1.2655507500000001e+00,	 2.6283427500000001e-01,	 3.9388952274711779e-02,	 1.5256103205389722e+03,	 -3.3406366655468581e+01,	 6.4019008905110604e+02,	 7.2545973492099802e+03,	 5.0778920002394347e+02,	 3.0051368305753967e+00 
1.2678395000000000e+00,	 2.6278639999999998e-01,	 3.9640267326530317e-02,	 1.5247370231301982e+03,	 -3.3569829621032120e+01,	 6.4150742006456267e+02,	 7.3159073380944028e+03,	 5.0831137516451599e+02,	 3.0003391680361133e+00 
1.2701470000000001e+00,	 2.6273809999999997e-01,	 3.9918166961390694e-02,	 1.5237713981464649e+03,	 -3.3693534891620303e+01,	 6.4296502081032770e+02,	 7.3839351608743855e+03,	 5.0888852721793734e+02,	 2.9950446625142830e+00 
1.2724735000000000e+00,	 2.6268942499999998e-01,	 4.0220682869432020e-02,	 1.5227183507710079e+03,	 -3.3747280884909422e+01,	 6.4455623516541993e+02,	 7.4583058893037569e+03,	 5.0951783855543880e+02,	 2.9892815364992589e+00 
1.2748192500000000e+00,	 2.6264034999999997e-01,	 4.0536571862043860e-02,	 1.5216240384523614e+03,	 -3.3812075510569059e+01,	 6.4620833304828489e+02,	 7.5361495748876414e+03,	 5.1017040739865161e+02,	 2.9833162406814213e+00 
1.2771842500000001e+00,	 2.6259087500000000e-01,	 4.0864748820298891e-02,	 1.5204950525234008e+03,	 -3.3849702027771890e+01,	 6.4791251011687177e+02,	 7.6171961078312097e+03,	 5.1084267376510979e+02,	 2.9771823496749987e+00 
1.2795684999999999e+00,	 2.6254100000000002e-01,	 4.1201641837843243e-02,	 1.5193394113772044e+03,	 -3.3844251541287328e+01,	 6.4965708881289993e+02,	 7.7006722848965437e+03,	 5.1152996265058084e+02,	 2.9709233607066676e+00 
1.2819725000000000e+00,	 2.6249069999999997e-01,	 4.1542722852962698e-02,	 1.5181778375049516e+03,	 -3.3808106936239923e+01,	 6.5141031718844170e+02,	 7.7853748623845986e+03,	 5.1221973007433485e+02,	 2.9646539090153556e+00 
1.2843962499999999e+00,	 2.6244000000000001e-01,	 4.1883577969625226e-02,	 1.5170246071674687e+03,	 -3.3747475042983652e+01,	 6.5315045505273770e+02,	 7.8702213325423654e+03,	 5.1290343008202990e+02,	 2.9584515175328847e+00 
1.2868400000000000e+00,	 2.6238887499999997e-01,	 4.2217849709636573e-02,	 1.5159042855577957e+03,	 -3.3702112859168629e+01,	 6.5483921475169723e+02,	 7.9535446969397453e+03,	 5.1356607333220256e+02,	 2.9524514109777775e+00 
1.2893040000000000e+00,	 2.6233730000000000e-01,	 4.2546623788765357e-02,	 1.5148066974516976e+03,	 -3.3624185213540052e+01,	 6.5649361419784418e+02,	 8.0357338957080619e+03,	 5.1421440611814057e+02,	 2.9465915612642148e+00 
1.2917879999999999e+00,	 2.6228532499999996e-01,	 4.2867175848335638e-02,	 1.5137467665693816e+03,	 -3.3528090257293826e+01,	 6.5809080563942643e+02,	 8.1159737401769016e+03,	 5.1483954541922992e+02,	 2.9409512975479566e+00 
1.2942925000000001e+00,	 2.6223294999999996e-01,	 4.3177530108459004e-02,	 1.5127244241221474e+03,	 -3.3413933637025920e+01,	 6.5963100263024955e+02,	 8.1938647751107455e+03,	 5.1544165906068895e+02,	 2.9355279801039420e+00 
1.2968177500000000e+00,	 2.6218012499999999e-01,	 4.3472450087451514e-02,	 1.5117618533173247e+03,	 -3.3330975862497468e+01,	 6.6107937933952223e+02,	 8.2679466508761507e+03,	 5.1600723612670060e+02,	 2.9304419388588481e+00 
1.2993637499999999e+00,	 2.6212685000000002e-01,	 4.3756628100332901e-02,	 1.5108357387926085e+03,	 -3.3215465160545669e+01,	 6.6247320351321196e+02,	 8.3395401007057662e+03,	 5.1655092624718566e+02,	 2.9255601646532292e+00 
1.3019307500000001e+00,	 2.6207314999999998e-01,	 4.4024480185414036e-02,	 1.5099745024875610e+03,	 -3.3134473008072526e+01,	 6.6376773891728601e+02,	 8.4069858188171856e+03,	 5.1705537465708392e+02,	 2.9210372422922939e+00 
1.3045190000000000e+00,	 2.6201900000000000e-01,	 4.4280789357037754e-02,	 1.5091486960154973e+03,	 -3.3022972797016351e+01,	 6.6500943174717020e+02,	 8.4717493195789084e+03,	 5.1753876963090238e+02,	 2.9167089371928498e+00 
1.3071287500000000e+00,	 2.6196439999999999e-01,	 4.4521810837972305e-02,	 1.5083814708063576e+03,	 -3.2933172462103627e+01,	 6.6616197216032367e+02,	 8.5326237364161061e+03,	 5.1798705359354381e+02,	 2.9127001146111464e+00 
1.3097599999999998e+00,	 2.6190934999999999e-01,	 4.4750193069303751e-02,	 1.5076533398236791e+03,	 -3.2830220727800722e+01,	 6.6725581454837675e+02,	 8.5904757817282498e+03,	 5.1841214825627776e+02,	 2.9089031829249445e+00 
1.3124127500000000e+00,	 2.6185384999999994e-01,	 4.4962977840289471e-02,	 1.5069848122919423e+03,	 -3.2755439208267369e+01,	 6.6825900207788709e+02,	 8.6442998194963056e+03,	 5.1880170595260608e+02,	 2.9054275167491328e+00 
1.3150875000000000e+00,	 2.6179789999999997e-01,	 4.5162393968877362e-02,	 1.5063611104150621e+03,	 -3.2681008008151643e+01,	 6.6919467072139742e+02,	 8.6947953837590940e+03,	 5.1916478126268419e+02,	 2.9021914347554141e+00 
1.3177844999999999e+00,	 2.6174147500000000e-01,	 4.5350730981178970e-02,	 1.5057730435071080e+03,	 -3.2584312109839296e+01,	 6.7007737985787207e+02,	 8.7425713735895224e+03,	 5.1950707364282425e+02,	 2.8991435039927320e+00 
1.3205035000000001e+00,	 2.6168457499999997e-01,	 4.5523765455295351e-02,	 1.5052361555157065e+03,	 -3.2510186282189437e+01,	 6.7088250271247966e+02,	 8.7864730195107004e+03,	 5.1981908346831233e+02,	 2.8963676806042695e+00 
1.3232450000000000e+00,	 2.6162720000000000e-01,	 4.5683315385120951e-02,	 1.5047473624078132e+03,	 -3.2440916498452900e+01,	 6.7161530576696794e+02,	 8.8268985860967750e+03,	 5.2010290444035411e+02,	 2.8938446729040987e+00 
1.3260095000000001e+00,	 2.6156937499999999e-01,	 4.5832052913840543e-02,	 1.5042928671480511e+03,	 -3.2343776908053130e+01,	 6.7229752388879558e+02,	 8.8646329903014812e+03,	 5.2036699428688064e+02,	 2.8914987979753839e+00 
1.3287967500000000e+00,	 2.6151107499999998e-01,	 4.5962422617229513e-02,	 1.5039033613656252e+03,	 -3.2296163962947865e+01,	 6.7288087677125316e+02,	 8.8975622476003027e+03,	 5.2059270667950204e+02,	 2.8894951474122208e+00 
1.3316070000000000e+00,	 2.6145227499999996e-01,	 4.6082076251246808e-02,	 1.5035450682349338e+03,	 -3.2209761499172920e+01,	 6.7341871198437775e+02,	 8.9278555613481512e+03,	 5.2080072058774567e+02,	 2.8876496839176542e+00 
1.3344404999999999e+00,	 2.6139299999999999e-01,	 4.6185890405152571e-02,	 1.5032420444269771e+03,	 -3.2136833026507027e+01,	 6.7387347225443648e+02,	 8.9540108931928826e+03,	 5.2097653951076006e+02,	 2.8860906535524093e+00 
1.3372972500000000e+00,	 2.6133322500000000e-01,	 4.6270974497316722e-02,	 1.5030029268127805e+03,	 -3.2099804586008673e+01,	 6.7423160383456366e+02,	 8.9752734540274305e+03,	 5.2111495820226912e+02,	 2.8848637784460114e+00 
1.3401779999999999e+00,	 2.6127294999999995e-01,	 4.6345653762479226e-02,	 1.5027960819917096e+03,	 -3.2005548025022911e+01,	 6.7454333264643662e+02,	 8.9939155266346079e+03,	 5.2123541219280128e+02,	 2.8837965045992786e+00 
1.3430825000000000e+00,	 2.6121220000000001e-01,	 4.6402066586501887e-02,	 1.5026490819260546e+03,	 -3.1928925208155803e+01,	 6.7476514588635428e+02,	 9.0078242054162092e+03,	 5.2132110528825763e+02,	 2.8830374371455889e+00 
1.3460109999999998e+00,	 2.6115092499999998e-01,	 4.6439013987095545e-02,	 1.5025678955365827e+03,	 -3.1877131800704305e+01,	 6.7488793902410964e+02,	 9.0166371786515920e+03,	 5.2136853789693612e+02,	 2.8826173552169938e+00 
1.3489640000000001e+00,	 2.6108914999999999e-01,	 4.6462321540096711e-02,	 1.5025296481651667e+03,	 -3.1783468702061754e+01,	 6.7494797303464372e+02,	 9.0219650612085134e+03,	 5.2139172630085886e+02,	 2.8824120089955687e+00 
1.3519412500000001e+00,	 2.6102687499999999e-01,	 4.6464129110450475e-02,	 1.5025633348050937e+03,	 -3.1724402497616335e+01,	 6.7489956817641587e+02,	 9.0216690034890053e+03,	 5.2137302978934224e+02,	 2.8825775760126766e+00 
1.3549432500000000e+00,	 2.6096407500000002e-01,	 4.6448224898525022e-02,	 1.5026566192024218e+03,	 -3.1657705797752630e+01,	 6.7476246153530042e+02,	 9.0167488400684160e+03,	 5.2132006832728041e+02,	 2.8830466214788446e+00 
1.3579699999999999e+00,	 2.6090074999999996e-01,	 4.6414189218772078e-02,	 1.5028071502519051e+03,	 -3.1582000779281479e+01,	 6.7454018720118449e+02,	 9.0071736312554622e+03,	 5.2123419691182187e+02,	 2.8838072707852547e+00 
1.3610220000000000e+00,	 2.6083687499999997e-01,	 4.6359452597498789e-02,	 1.5030305377831346e+03,	 -3.1526330649643370e+01,	 6.7420850803362964e+02,	 8.9921276922041452e+03,	 5.2110603273041249e+02,	 2.8849428756769568e+00 
1.3640995000000000e+00,	 2.6077247500000000e-01,	 4.6287250927744265e-02,	 1.5033166262290981e+03,	 -3.1457633606612113e+01,	 6.7378357435676196e+02,	 8.9724644243181265e+03,	 5.2094178798865346e+02,	 2.8863987455787972e+00 
1.3672022499999998e+00,	 2.6070757499999997e-01,	 4.6197473479689083e-02,	 1.5036677130348644e+03,	 -3.1378831056636560e+01,	 6.7326180819901560e+02,	 8.9481270426847404e+03,	 5.2074004484215857e+02,	 2.8881878819901594e+00 
1.3703307499999999e+00,	 2.6064215000000002e-01,	 4.6086307657178645e-02,	 1.5040989821851435e+03,	 -3.1331339878559511e+01,	 6.7261917034129203e+02,	 8.9180744410973439e+03,	 5.2049145866269123e+02,	 2.8903937761865501e+00 
1.3734852499999999e+00,	 2.6057615000000001e-01,	 4.5956767807543299e-02,	 1.5045991184078518e+03,	 -3.1287068055010053e+01,	 6.7187334334108618e+02,	 8.8831465073840300e+03,	 5.2020280776479706e+02,	 2.8929570485708789e+00 
1.1571927500000001e+00,	 2.6584747500000000e-01,	 5.5854345368502645e-02,	 1.4957338159259918e+03,	 -2.9693743074688388e+01,	 6.8512952851328464e+02,	 1.1009297032851147e+04,	 5.2530959010671984e+02,	 2.8478987619516252e+00 
1.1586064999999999e+00,	 2.6581849999999996e-01,	 5.5735374194701884e-02,	 1.4960991195366312e+03,	 -2.9459135951982109e+01,	 6.8459371524274502e+02,	 1.0977255345200401e+04,	 5.2510413778667646e+02,	 2.8496997418960337e+00 
1.1600312499999998e+00,	 2.6578930000000001e-01,	 5.5600715356410153e-02,	 1.4965127693081370e+03,	 -2.9234169791586698e+01,	 6.8398558315917978e+02,	 1.0941006211417791e+04,	 5.2487085809502776e+02,	 2.8517458375081648e+00 
1.1614672500000001e+00,	 2.6575987499999998e-01,	 5.5453104518130944e-02,	 1.4969602292902034e+03,	 -2.8989542681548656e+01,	 6.8332753332567063e+02,	 1.0901461429124884e+04,	 5.2461831308319847e+02,	 2.8539623297093173e+00 
1.1629144999999999e+00,	 2.6573019999999997e-01,	 5.5290450823458903e-02,	 1.4974530418858978e+03,	 -2.8745945933431337e+01,	 6.8260175061523591e+02,	 1.0857940720890960e+04,	 5.2433963262599798e+02,	 2.8564099200299946e+00 
1.1643732499999999e+00,	 2.6570030000000000e-01,	 5.5112002433526444e-02,	 1.4979945536745947e+03,	 -2.8512115061607247e+01,	 6.8180294320433052e+02,	 1.0810231639971909e+04,	 5.2403274138716472e+02,	 2.8591073682701289e+00 
1.1658437500000001e+00,	 2.6567014999999999e-01,	 5.4918933033636187e-02,	 1.4985777623219365e+03,	 -2.8276266154715316e+01,	 6.8094179168723053e+02,	 1.0758754998377606e+04,	 5.2370169692665615e+02,	 2.8620195734696048e+00 
1.1673257500000001e+00,	 2.6563975000000001e-01,	 5.4712340830351695e-02,	 1.4991999962442417e+03,	 -2.8029260350098184e+01,	 6.8002245431713322e+02,	 1.0703812353840744e+04,	 5.2334805351663681e+02,	 2.8651334094623873e+00 
1.1688192500000001e+00,	 2.6560915000000002e-01,	 5.4490331138394833e-02,	 1.4998717528058728e+03,	 -2.7795966462836688e+01,	 6.7902852801329504e+02,	 1.0644797528416590e+04,	 5.2296544879297869e+02,	 2.8685055480480695e+00 
1.1703247500000000e+00,	 2.6557829999999999e-01,	 5.4252574250397222e-02,	 1.5005854450982702e+03,	 -2.7573744412735579e+01,	 6.7797130200431127e+02,	 1.0581849935819604e+04,	 5.2255816984352305e+02,	 2.8720989328635111e+00 
1.1718422499999999e+00,	 2.6554717500000002e-01,	 5.4001719105503970e-02,	 1.5013448472191917e+03,	 -2.7351501931302163e+01,	 6.7684536857955516e+02,	 1.0515428736398298e+04,	 5.2212407315565486e+02,	 2.8759332285130048e+00 
1.1733720000000001e+00,	 2.6551582499999998e-01,	 5.3738419387769028e-02,	 1.5021383617355239e+03,	 -2.7118416096951353e+01,	 6.7566821701642687e+02,	 1.0445958985207273e+04,	 5.2166984338443126e+02,	 2.8799501218013703e+00 
1.1749137500000000e+00,	 2.6548422499999996e-01,	 5.3461094764323397e-02,	 1.5029727676190821e+03,	 -2.6897034760704880e+01,	 6.7442903859529144e+02,	 1.0372992087401823e+04,	 5.2119125147862849e+02,	 2.8841877473394475e+00 
1.1764675000000000e+00,	 2.6545235000000000e-01,	 5.3169933190532724e-02,	 1.5038539988734942e+03,	 -2.6695345640252327e+01,	 6.7311866517677436e+02,	 1.0296454045769273e+04,	 5.2068468430829148e+02,	 2.8886790103983020e+00 
1.1780339999999998e+00,	 2.6542025000000002e-01,	 5.2867463389667801e-02,	 1.5047722291698485e+03,	 -2.6490575771787885e+01,	 6.7175226974432019e+02,	 1.0217097862416929e+04,	 5.2015593459793649e+02,	 2.8933734790415286e+00 
1.1796130000000000e+00,	 2.6538790000000001e-01,	 5.2552192096142189e-02,	 1.5057261180672926e+03,	 -2.6301151809852165e+01,	 6.7033127251189478e+02,	 1.0134684994697887e+04,	 5.1960548506655641e+02,	 2.8982677251751978e+00 
1.1812042500000000e+00,	 2.6535527500000000e-01,	 5.2224941810302683e-02,	 1.5067225485548836e+03,	 -2.6131028801026471e+01,	 6.6884517878104282e+02,	 1.0049246589684621e+04,	 5.1902919470543441e+02,	 2.9033995420370293e+00 
1.1828082499999999e+00,	 2.6532239999999996e-01,	 5.1888680544091917e-02,	 1.5077491646733793e+03,	 -2.5952841229738116e+01,	 6.6731307934232882e+02,	 9.9616711731936612e+03,	 5.1843439319389597e+02,	 2.9087046127098737e+00 
1.1844252499999999e+00,	 2.6528927499999999e-01,	 5.1542027824234560e-02,	 1.5088102315528661e+03,	 -2.5791418740134805e+01,	 6.6572785091415972e+02,	 9.8716139875921581e+03,	 5.1781824642504534e+02,	 2.9142091140263888e+00 
1.1860552500000001e+00,	 2.6525587499999997e-01,	 5.1185763353510327e-02,	 1.5099025059876524e+03,	 -2.5641372658352189e+01,	 6.6409439312910433e+02,	 9.7793262623914761e+03,	 5.1718258597775548e+02,	 2.9198976413745483e+00 
1.1876982500000000e+00,	 2.6522217500000000e-01,	 5.0820163544014772e-02,	 1.5110278162065167e+03,	 -2.5513166499691426e+01,	 6.6240960094950469e+02,	 9.6848436568319175e+03,	 5.1652612920511876e+02,	 2.9257826579801307e+00 
1.1893542500000001e+00,	 2.6518822500000000e-01,	 5.0448475896142549e-02,	 1.5121757986475006e+03,	 -2.5377737851543596e+01,	 6.6068966861344711e+02,	 9.5890482389133431e+03,	 5.1585511884232073e+02,	 2.9318090998782029e+00 
1.1910237500000000e+00,	 2.6515402500000002e-01,	 5.0069621090553081e-02,	 1.5133503096007939e+03,	 -2.5256595406123076e+01,	 6.5892818062910055e+02,	 9.4916632974456970e+03,	 5.1516699012892252e+02,	 2.9380008424964612e+00 
1.1927067499999999e+00,	 2.6511952499999997e-01,	 4.9684234459251742e-02,	 1.5145472202597964e+03,	 -2.5147935455633309e+01,	 6.5713130463345635e+02,	 9.3929215856772353e+03,	 5.1446408868227923e+02,	 2.9443376527554266e+00 
1.1944029999999999e+00,	 2.6508472499999997e-01,	 4.9292770540307312e-02,	 1.5157670047497568e+03,	 -2.5059397496970227e+01,	 6.5529806097494748e+02,	 9.2929168034758441e+03,	 5.1374596984927052e+02,	 2.9508243891761778e+00 
1.1961127499999999e+00,	 2.6504967499999998e-01,	 4.8896307082744617e-02,	 1.5170102011044207e+03,	 -2.4989094967190550e+01,	 6.5342760806722720e+02,	 9.1918616180624886e+03,	 5.1301223935704434e+02,	 2.9574655112884916e+00 
1.1978365000000000e+00,	 2.6501435000000001e-01,	 4.8495781812728574e-02,	 1.5182673132813659e+03,	 -2.4927991288637259e+01,	 6.5153440516103205e+02,	 9.0901543324969771e+03,	 5.1226851444227941e+02,	 2.9642109546385709e+00 
1.1995742500000000e+00,	 2.6497872499999997e-01,	 4.8094336890860102e-02,	 1.5195340162522771e+03,	 -2.4860748490314712e+01,	 6.4962530744361948e+02,	 8.9884915407536755e+03,	 5.1151745041778042e+02,	 2.9710371990505897e+00 
1.2013257500000001e+00,	 2.6494282499999999e-01,	 4.7688986028115943e-02,	 1.5208189853609297e+03,	 -2.4828628794429907e+01,	 6.4768615807179719e+02,	 8.8861295737258242e+03,	 5.1075343302434089e+02,	 2.9779959320291489e+00 
1.2030915000000000e+00,	 2.6490665000000002e-01,	 4.7282010775430462e-02,	 1.5221143501386528e+03,	 -2.4810819512046162e+01,	 6.4572930089077067e+02,	 8.7836772324029371e+03,	 5.0998127850146369e+02,	 2.9850439848676942e+00 
1.2048714999999999e+00,	 2.6487015000000003e-01,	 4.6876091365297953e-02,	 1.5234078105417864e+03,	 -2.4790785105922172e+01,	 6.4377371293672218e+02,	 8.6818957931933855e+03,	 5.0920845506077870e+02,	 2.9921135347984933e+00 