TITLE = "Final State"
VARIABLES = "X", "Y", "rho", "u", "v", "T", "p", "c", "M"
ZONE I=73, J=21, DATAPACKING=POINT
5.2554400000000001e-01,	 3.0203999999999998e-01,	 1.1586408310480323e-02,	 1.7360000015178643e+03,	 -2.4797798198328326e-06,	 2.9999999965346689e+02,	 1.0000000480368511e+03,	 3.3237670692290698e+02,	 5.2229893532236016e+00 
5.3004200000000001e-01,	 3.0203999999999998e-01,	 1.1586408115573059e-02,	 1.7360000011117954e+03,	 -4.2415840419552933e-06,	 2.9999999961613912e+02,	 1.0000000310903638e+03,	 3.3237670690222882e+02,	 5.2229893523268265e+00 
5.3454000000000002e-01,	 3.0203999999999998e-01,	 1.1586407848435454e-02,	 1.7360000006144919e+03,	 -5.4110529303490994e-06,	 2.9999999966462713e+02,	 1.0000000081958706e+03,	 3.3237670692908927e+02,	 5.2229893504085352e+00 
5.3903800000000002e-01,	 3.0203999999999998e-01,	 1.1586407755517582e-02,	 1.7360000004281719e+03,	 -5.7025506746971088e-06,	 2.9999999974460661e+02,	 1.0000000004429108e+03,	 3.3237670697339485e+02,	 5.2229893491517450e+00 
5.4353600000000002e-01,	 3.0203999999999998e-01,	 1.1586407739162058e-02,	 1.7360000003861464e+03,	 -5.5421888769889024e-06,	 2.9999999966844166e+02,	 9.9999999877741459e+02,	 3.3237670693120236e+02,	 5.2229893496883211e+00 
5.4803400000000002e-01,	 3.0203999999999998e-01,	 1.1586407734925959e-02,	 1.7360000004116541e+03,	 -5.2670944393374001e-06,	 2.9999999953955125e+02,	 9.9999999798217050e+02,	 3.3237670685980214e+02,	 5.2229893508870529e+00 
5.5253200000000002e-01,	 3.0203999999999998e-01,	 1.1586407722328499e-02,	 1.7360000004452670e+03,	 -4.9973474827590039e-06,	 2.9999999941763127e+02,	 9.9999999648850860e+02,	 3.3237670679226318e+02,	 5.2229893520494928e+00 
5.5703000000000003e-01,	 3.0203999999999998e-01,	 1.1586407707502234e-02,	 1.7360000004736858e+03,	 -4.7621960603602139e-06,	 2.9999999930960030e+02,	 9.9999999484877969e+02,	 3.3237670673241820e+02,	 5.2229893530754028e+00 
5.6152800000000003e-01,	 3.0203999999999998e-01,	 1.1586407694112226e-02,	 1.7360000005025358e+03,	 -4.5349192738712830e-06,	 2.9999999922299691e+02,	 9.9999999340443651e+02,	 3.3237670668444326e+02,	 5.2229893539160832e+00 
5.6602600000000003e-01,	 3.0203999999999998e-01,	 1.1586407682888013e-02,	 1.7360000005294546e+03,	 -4.3288051610478450e-06,	 2.9999999915169508e+02,	 9.9999999219802419e+02,	 3.3237670664494482e+02,	 5.2229893546177530e+00 
5.7052400000000003e-01,	 3.0203999999999998e-01,	 1.1586407674073394e-02,	 1.7360000005580484e+03,	 -4.1333588585915277e-06,	 2.9999999909497433e+02,	 9.9999999124818260e+02,	 3.3237670661352377e+02,	 5.2229893551975337e+00 
5.7502200000000003e-01,	 3.0203999999999998e-01,	 1.1586407667338240e-02,	 1.7360000005827783e+03,	 -3.9478334368131790e-06,	 2.9999999905011600e+02,	 9.9999999051735688e+02,	 3.3237670658867398e+02,	 5.2229893556624285e+00 
5.7952000000000004e-01,	 3.0203999999999998e-01,	 1.1586407662314769e-02,	 1.7360000006009104e+03,	 -3.7703898012778879e-06,	 2.9999999901544550e+02,	 9.9999998996822274e+02,	 3.3237670656946784e+02,	 5.2229893560187879e+00 
5.8401800000000004e-01,	 3.0203999999999998e-01,	 1.1586407658626422e-02,	 1.7360000006141427e+03,	 -3.6021536822031282e-06,	 2.9999999898924170e+02,	 9.9999998956254285e+02,	 3.3237670655495197e+02,	 5.2229893562867025e+00 
5.8851600000000004e-01,	 3.0203999999999998e-01,	 1.1586407655939351e-02,	 1.7360000006236937e+03,	 -3.4436807833793535e-06,	 2.9999999897002431e+02,	 9.9999998926656906e+02,	 3.3237670654430627e+02,	 5.2229893564827252e+00 
5.9301400000000004e-01,	 3.0203999999999998e-01,	 1.1586407654003230e-02,	 1.7360000006304572e+03,	 -3.2951462707419080e-06,	 2.9999999895655208e+02,	 9.9999998905455868e+02,	 3.3237670653684319e+02,	 5.2229893566203494e+00 
5.9751200000000004e-01,	 3.0203999999999998e-01,	 1.1586407652655981e-02,	 1.7360000006350776e+03,	 -3.1571856493593579e-06,	 2.9999999894758832e+02,	 9.9999998890840129e+02,	 3.3237670653187763e+02,	 5.2229893567122794e+00 
6.0201000000000005e-01,	 3.0203999999999998e-01,	 1.1586407651577747e-02,	 1.7360000006377431e+03,	 -3.0294968935953168e-06,	 2.9999999894361133e+02,	 9.9999998880208420e+02,	 3.3237670652967449e+02,	 5.2229893567549190e+00 
6.0650800000000005e-01,	 3.0203999999999998e-01,	 1.1586407650453347e-02,	 1.7360000006389600e+03,	 -2.9131963636878568e-06,	 2.9999999894398695e+02,	 9.9999998870629167e+02,	 3.3237670652988260e+02,	 5.2229893567553107e+00 
6.1100600000000005e-01,	 3.0203999999999998e-01,	 1.1586407650210215e-02,	 1.7360000006400005e+03,	 -2.8070474773475831e-06,	 2.9999999894641428e+02,	 9.9999998869339845e+02,	 3.3237670653122723e+02,	 5.2229893567373109e+00 
6.1550400000000005e-01,	 3.0203999999999998e-01,	 1.1586407649961175e-02,	 1.7360000006414161e+03,	 -2.7089117374649141e-06,	 2.9999999894794439e+02,	 9.9999998867700469e+02,	 3.3237670653207488e+02,	 5.2229893567282497e+00 
6.2000200000000005e-01,	 3.0203999999999998e-01,	 1.1586407649765495e-02,	 1.7360000006427999e+03,	 -2.6182169135258893e-06,	 2.9999999894686994e+02,	 9.9999998865653447e+02,	 3.3237670653147967e+02,	 5.2229893567417669e+00 
6.2450000000000006e-01,	 3.0203999999999998e-01,	 1.1586407649622826e-02,	 1.7360000006442062e+03,	 -2.5349841954854522e-06,	 2.9999999894567821e+02,	 9.9999998864024860e+02,	 3.3237670653081949e+02,	 5.2229893567563721e+00 
6.2899799999999995e-01,	 3.0203999999999998e-01,	 1.1586407649577333e-02,	 1.7360000006453997e+03,	 -2.4574376300264908e-06,	 2.9999999894690484e+02,	 9.9999998864041083e+02,	 3.3237670653149900e+02,	 5.2229893567492844e+00 
6.3349599999999995e-01,	 3.0203999999999998e-01,	 1.1586407649611937e-02,	 1.7360000006457885e+03,	 -2.3830614700924400e-06,	 2.9999999895035381e+02,	 9.9999998865489408e+02,	 3.3237670653340962e+02,	 5.2229893567204311e+00 
6.3799399999999995e-01,	 3.0203999999999998e-01,	 1.1586407649685005e-02,	 1.7360000006455857e+03,	 -2.3131898064548302e-06,	 2.9999999895455278e+02,	 9.9999998867519707e+02,	 3.3237670653573565e+02,	 5.2229893566832688e+00 
6.4249199999999995e-01,	 3.0203999999999998e-01,	 1.1586407649786242e-02,	 1.7360000006451628e+03,	 -2.2479142487551325e-06,	 2.9999999895892643e+02,	 9.9999998869851345e+02,	 3.3237670653815849e+02,	 5.2229893566439243e+00 
6.4698999999999995e-01,	 3.0203999999999998e-01,	 1.1586407649924677e-02,	 1.7360000006445400e+03,	 -2.1865998330660504e-06,	 2.9999999896350710e+02,	 9.9999998872573019e+02,	 3.3237670654069598e+02,	 5.2229893566021763e+00 
6.5148799999999996e-01,	 3.0203999999999998e-01,	 1.1586407650102730e-02,	 1.7360000006436246e+03,	 -2.1297641020142462e-06,	 2.9999999896836187e+02,	 9.9999998875728022e+02,	 3.3237670654338535e+02,	 5.2229893565571608e+00 
6.5598599999999996e-01,	 3.0203999999999998e-01,	 1.1586407650317775e-02,	 1.7360000006424602e+03,	 -2.0772096763283876e-06,	 2.9999999897352677e+02,	 9.9999998879305679e+02,	 3.3237670654624651e+02,	 5.2229893565086973e+00 
6.6048399999999996e-01,	 3.0203999999999998e-01,	 1.1586407650570670e-02,	 1.7360000006410753e+03,	 -2.0282260844615242e-06,	 2.9999999897892258e+02,	 9.9999998883286969e+02,	 3.3237670654923556e+02,	 5.2229893564575605e+00 
6.6498199999999996e-01,	 3.0203999999999998e-01,	 1.1586407650857389e-02,	 1.7360000006394027e+03,	 -1.9827323801264525e-06,	 2.9999999898459987e+02,	 9.9999998887653999e+02,	 3.3237670655238060e+02,	 5.2229893564031071e+00 
6.6947999999999996e-01,	 3.0203999999999998e-01,	 1.1586407651160025e-02,	 1.7360000006372907e+03,	 -1.9408140254369958e-06,	 2.9999999899050067e+02,	 9.9999998892232941e+02,	 3.3237670655564938e+02,	 5.2229893563453871e+00 
6.7397799999999997e-01,	 3.0203999999999998e-01,	 1.1586407651467749e-02,	 1.7360000006353939e+03,	 -1.9023172341567875e-06,	 2.9999999899650248e+02,	 9.9999998896889451e+02,	 3.3237670655897415e+02,	 5.2229893562874343e+00 
6.7847599999999997e-01,	 3.0203999999999998e-01,	 1.1586407651771127e-02,	 1.7360000006323121e+03,	 -1.8672818102010447e-06,	 2.9999999900257933e+02,	 9.9999998901533445e+02,	 3.3237670656234047e+02,	 5.2229893562252636e+00 
6.8297399999999997e-01,	 3.0203999999999998e-01,	 1.1586407652020674e-02,	 1.7360000006317809e+03,	 -1.8355294323874147e-06,	 2.9999999900864219e+02,	 9.9999998905708196e+02,	 3.3237670656569907e+02,	 5.2229893561708884e+00 
6.8747199999999997e-01,	 3.0203999999999998e-01,	 1.1586407652116501e-02,	 1.7360000006236710e+03,	 -1.8080082320731918e-06,	 2.9999999901471244e+02,	 9.9999998908558689e+02,	 3.3237670656906175e+02,	 5.2229893560936471e+00 
6.9196999999999997e-01,	 3.0203999999999998e-01,	 1.1586407651981018e-02,	 1.7360000006358059e+03,	 -1.7884157932155598e-06,	 2.9999999902000792e+02,	 9.9999998909154510e+02,	 3.3237670657199527e+02,	 5.2229893560840592e+00 
6.9646799999999998e-01,	 3.0203999999999998e-01,	 1.1586407651965839e-02,	 1.7360000006625201e+03,	 -1.7857029540001036e-06,	 2.9999999901821741e+02,	 9.9999998908426664e+02,	 3.3237670657100341e+02,	 5.2229893561800189e+00 
7.0096599999999998e-01,	 3.0203999999999998e-01,	 1.1586407651106287e-02,	 1.7360000007111380e+03,	 -1.8292271539352105e-06,	 2.9999999900339986e+02,	 9.9999998896068871e+02,	 3.3237670656279505e+02,	 5.2229893564552787e+00 
7.0546399999999998e-01,	 3.0203999999999998e-01,	 1.1586407647704343e-02,	 1.7360000007937738e+03,	 -1.9522958762664539e-06,	 2.9999999896528504e+02,	 9.9999998854002422e+02,	 3.3237670654168090e+02,	 5.2229893570356891e+00 
7.0996199999999998e-01,	 3.0203999999999998e-01,	 1.1586407644450694e-02,	 1.7360000009318692e+03,	 -2.1867618809014389e-06,	 2.9999999888696982e+02,	 9.9999998799815739e+02,	 3.3237670649829732e+02,	 5.2229893581328994e+00 
7.1445999999999998e-01,	 3.0203999999999998e-01,	 1.1586407641879674e-02,	 1.7360000011578754e+03,	 -2.5782125118270162e-06,	 2.9999999874194873e+02,	 9.9999998729285414e+02,	 3.3237670641796126e+02,	 5.2229893600752764e+00 
7.1895799999999999e-01,	 3.0203999999999998e-01,	 1.1586407636542595e-02,	 1.7360000015223404e+03,	 -3.2503230164923731e-06,	 2.9999999849071628e+02,	 9.9999998599477988e+02,	 3.3237670627878822e+02,	 5.2229893633587920e+00 
7.2345599999999999e-01,	 3.0203999999999998e-01,	 1.1586407626221054e-02,	 1.7360000020883767e+03,	 -4.3872853307277430e-06,	 2.9999999806419657e+02,	 9.9999998368221566e+02,	 3.3237670604251286e+02,	 5.2229893687746349e+00 
7.2795399999999999e-01,	 3.0203999999999998e-01,	 1.1586407608381911e-02,	 1.7360000029189671e+03,	 -6.2740826454735831e-06,	 2.9999999735435131e+02,	 9.9999997977640351e+02,	 3.3237670564928618e+02,	 5.2229893774527678e+00 
7.3245199999999999e-01,	 3.0203999999999998e-01,	 1.1586407574522086e-02,	 1.7360000040270677e+03,	 -9.3199849068394958e-06,	 2.9999999620500716e+02,	 9.9999997302288182e+02,	 3.3237670501259413e+02,	 5.2229893907916578e+00 
7.3694999999999999e-01,	 3.0203999999999998e-01,	 1.1586407523018219e-02,	 1.7360000052351143e+03,	 -1.4083023786177564e-05,	 2.9999999440794244e+02,	 9.9999996258746899e+02,	 3.3237670401709005e+02,	 5.2229894100696450e+00 
7.4144800000000000e-01,	 3.0203999999999998e-01,	 1.1586407420557072e-02,	 1.7360000066612749e+03,	 -2.1285148447277999e-05,	 2.9999999167672559e+02,	 9.9999994464019369e+02,	 3.3237670250410190e+02,	 5.2229894381356372e+00 
7.4594600000000000e-01,	 3.0203999999999998e-01,	 1.1586407319369076e-02,	 1.7360000086232815e+03,	 -3.2139692959060893e-05,	 2.9999998757588560e+02,	 9.9999992223739150e+02,	 3.3237670023239571e+02,	 5.2229894797363396e+00 
7.5044400000000000e-01,	 3.0203999999999998e-01,	 1.1586407010386823e-02,	 1.7360000122174861e+03,	 -4.8448874229229449e-05,	 2.9999998106495275e+02,	 9.9999987386663565e+02,	 3.3237669662559159e+02,	 5.2229895472275478e+00 
7.5494200000000000e-01,	 3.0203999999999998e-01,	 1.1586406707643500e-02,	 1.7360000223987349e+03,	 -8.9612270561635279e-05,	 2.9999996647830136e+02,	 9.9999979911529124e+02,	 3.3237668854515260e+02,	 5.2229897048357694e+00 
7.5944000000000000e-01,	 3.0203999999999998e-01,	 1.1586405290195560e-02,	 1.7360000438155180e+03,	 -2.0335417367439137e-04,	 2.9999993652002297e+02,	 9.9999957691726195e+02,	 3.3237667194942810e+02,	 5.2229900300574235e+00 
7.6393800000000001e-01,	 3.0203999999999998e-01,	 1.1586407572909687e-02,	 1.7360000455720124e+03,	 -1.8068624486550959e-04,	 2.9999997116613815e+02,	 9.9999988942082325e+02,	 3.3237669114203237e+02,	 5.2229897337481708e+00 
7.6843600000000001e-01,	 3.0203999999999998e-01,	 1.1586467742236749e-02,	 1.7359999847841145e+03,	 1.2421700219000442e-03,	 3.0000041204698522e+02,	 1.0000065521267039e+03,	 3.3237693537282803e+02,	 5.2229857130046753e+00 
7.7293400000000001e-01,	 3.0203999999999998e-01,	 1.1586702296035041e-02,	 1.7359992311613132e+03,	 7.0766440178627000e-03,	 3.0000212007284972e+02,	 1.0000324895945139e+03,	 3.3237788155085229e+02,	 5.2229685774386798e+00 
7.7743200000000001e-01,	 3.0203999999999998e-01,	 1.1587276985704250e-02,	 1.7359962743289582e+03,	 2.4334157270795291e-02,	 3.0000747321338827e+02,	 1.0000999354174011e+03,	 3.3238084695918729e+02,	 5.2229130841364944e+00 
7.8193000000000001e-01,	 3.0203999999999998e-01,	 1.1588811428536943e-02,	 1.7359873724009788e+03,	 7.3766446165470123e-02,	 3.0002328166170810e+02,	 1.0002850792105984e+03,	 3.3238960400141804e+02,	 5.2227487053440855e+00 
7.8642800000000002e-01,	 3.0203999999999998e-01,	 1.1593274354376185e-02,	 1.7359611930530268e+03,	 2.1757710782903461e-01,	 3.0006955380621582e+02,	 1.0008246273214381e+03,	 3.3241523499033082e+02,	 5.2222672848871108e+00 
7.9092600000000002e-01,	 3.0203999999999998e-01,	 1.1606335782411995e-02,	 1.7358839549200488e+03,	 6.3858320087885323e-01,	 3.0020547300912335e+02,	 1.0024060380324778e+03,	 3.3249051170202148e+02,	 5.2208529605626905e+00 
7.9542400000000002e-01,	 3.0203999999999998e-01,	 1.1644475941495151e-02,	 1.7356540068329414e+03,	 1.8711912713416217e+00,	 3.0060602010088428e+02,	 1.0070419429745796e+03,	 3.3271224935520746e+02,	 5.2166850449679867e+00 
7.9992200000000002e-01,	 3.0203999999999998e-01,	 1.1753800435252353e-02,	 1.7349629481524453e+03,	 5.4286127919594129e+00,	 3.0178214691827998e+02,	 1.0204736472933188e+03,	 3.3336248548823983e+02,	 5.2044591595853245e+00 
8.0442000000000002e-01,	 3.0203999999999998e-01,	 1.2048849029025158e-02,	 1.7329140849328824e+03,	 1.5120128773200989e+01,	 3.0512276846465710e+02,	 1.0576698302820007e+03,	 3.3520250975641267e+02,	 5.1699494985181413e+00 
8.0891800000000003e-01,	 3.0203999999999998e-01,	 1.2750491083656432e-02,	 1.7273944969151494e+03,	 3.7993834637311366e+01,	 3.1360829094024996e+02,	 1.1503881119280577e+03,	 3.3983156961087309e+02,	 5.0843195153638279e+00 
8.1341600000000003e-01,	 3.0203999999999998e-01,	 1.4122761921718628e-02,	 1.7155354382366886e+03,	 8.0052508060473244e+01,	 3.3066681518796719e+02,	 1.3435077868527007e+03,	 3.4895165289512357e+02,	 4.9216049403800604e+00 
8.1791400000000003e-01,	 3.0203999999999998e-01,	 1.6219042116908368e-02,	 1.6969789177751431e+03,	 1.3640175667619681e+02,	 3.5552128687013726e+02,	 1.6589020670710879e+03,	 3.6182848868774653e+02,	 4.7051353750334357e+00 
8.2241200000000003e-01,	 3.0203999999999998e-01,	 1.8677253837795879e-02,	 1.6759315249669094e+03,	 1.9206868138023327e+02,	 3.8179577792767861e+02,	 2.0515120873384722e+03,	 3.7496049538477109e+02,	 4.4988780826617711e+00 
8.2691000000000003e-01,	 3.0203999999999998e-01,	 2.0954332890604173e-02,	 1.6575424139491197e+03,	 2.3585910435160179e+02,	 4.0343551417534570e+02,	 2.4320802596868975e+03,	 3.8544020769448304e+02,	 4.3437062584342856e+00 
8.3140800000000004e-01,	 3.0203999999999998e-01,	 2.2719457237977605e-02,	 1.6440552541181814e+03,	 2.6590935966985063e+02,	 4.1863420339893628e+02,	 2.7362929895900838e+03,	 3.9263346050215921e+02,	 4.2416672923787067e+00 
8.3590600000000004e-01,	 3.0203999999999998e-01,	 2.3935488773538988e-02,	 1.6351030529475042e+03,	 2.8519737501765007e+02,	 4.2840253038142362e+02,	 2.9500152782867949e+03,	 3.9718786125018335e+02,	 4.1788512830598403e+00 
8.4040400000000004e-01,	 3.0203999999999998e-01,	 2.4719408560663604e-02,	 1.6294208303268001e+03,	 2.9734335929195623e+02,	 4.3442479616919354e+02,	 3.0894603014967233e+03,	 3.9996985130846400e+02,	 4.1411342919210554e+00 
8.4490200000000004e-01,	 3.0203999999999998e-01,	 2.5213034891665969e-02,	 1.6258235597527187e+03,	 3.0513079516634127e+02,	 4.3811156984541321e+02,	 3.1778967632686663e+03,	 4.0166345048758797e+02,	 4.1183953564664852e+00 
8.4940000000000004e-01,	 3.0203999999999998e-01,	 2.5470195270236133e-02,	 1.6240455837936108e+03,	 3.0949100193876342e+02,	 4.3999540514146491e+02,	 3.2241137310590002e+03,	 4.0252608021776695e+02,	 4.1072422684211229e+00 
5.2554400000000001e-01,	 3.0454399999999998e-01,	 1.1586408349375587e-02,	 1.7360000013528404e+03,	 -2.6186310756040912e-06,	 2.9999999997472980e+02,	 1.0000000524647011e+03,	 3.3237670710087411e+02,	 5.2229893499305176e+00 
5.3004200000000001e-01,	 3.0452869999999999e-01,	 1.1586407818527827e-02,	 1.7360000002673260e+03,	 -4.1816784177705282e-06,	 2.9999999989017851e+02,	 1.0000000063664403e+03,	 3.3237670705403599e+02,	 5.2229893474006186e+00 
5.3454000000000002e-01,	 3.0451329999999999e-01,	 1.1586407756145523e-02,	 1.7360000002331744e+03,	 -4.9970307707941478e-06,	 2.9999999975381655e+02,	 1.0000000005278068e+03,	 3.3237670697849677e+02,	 5.2229893484848970e+00 
5.3903800000000002e-01,	 3.0449799999999999e-01,	 1.1586407719740571e-02,	 1.7360000002543320e+03,	 -5.1071585147286466e-06,	 2.9999999962596053e+02,	 9.9999999695958059e+02,	 3.3237670690766947e+02,	 5.2229893496615372e+00 
5.4353600000000002e-01,	 3.0448270000000000e-01,	 1.1586407695089011e-02,	 1.7360000003119012e+03,	 -4.9753560267640612e-06,	 2.9999999953094800e+02,	 9.9999999451524457e+02,	 3.3237670685503622e+02,	 5.2229893506618241e+00 
5.4803400000000002e-01,	 3.0446730000000000e-01,	 1.1586407682316707e-02,	 1.7360000003751984e+03,	 -4.7413041353987239e-06,	 2.9999999943783928e+02,	 9.9999999310252974e+02,	 3.3237670680345764e+02,	 5.2229893516627719e+00 
5.5253200000000002e-01,	 3.0445200000000000e-01,	 1.1586407673422207e-02,	 1.7360000004241754e+03,	 -4.5048609426660456e-06,	 2.9999999935042081e+02,	 9.9999999204346807e+02,	 3.3237670675503119e+02,	 5.2229893525711022e+00 
5.5703000000000003e-01,	 3.0443670000000000e-01,	 1.1586407666002231e-02,	 1.7360000004681081e+03,	 -4.3060997169515631e-06,	 2.9999999926846920e+02,	 9.9999999112989258e+02,	 3.3237670670963314e+02,	 5.2229893534166676e+00 
5.6152800000000003e-01,	 3.0442130000000001e-01,	 1.1586407659484477e-02,	 1.7360000005034444e+03,	 -4.1333844248871115e-06,	 2.9999999919646064e+02,	 9.9999999032732967e+02,	 3.3237670666974321e+02,	 5.2229893541498145e+00 
5.6602600000000003e-01,	 3.0440600000000001e-01,	 1.1586407653569705e-02,	 1.7360000005312932e+03,	 -3.9817047705790153e-06,	 2.9999999913439666e+02,	 9.9999998960995742e+02,	 3.3237670663536221e+02,	 5.2229893547738664e+00 
5.7052400000000003e-01,	 3.0439070000000001e-01,	 1.1586407648299340e-02,	 1.7360000005509821e+03,	 -3.8422390142176956e-06,	 2.9999999908257939e+02,	 9.9999998898235822e+02,	 3.3237670660665742e+02,	 5.2229893552841720e+00 
5.7502200000000003e-01,	 3.0437530000000002e-01,	 1.1586407643760786e-02,	 1.7360000005675709e+03,	 -3.7101760926936655e-06,	 2.9999999904065760e+02,	 9.9999998845090533e+02,	 3.3237670658343438e+02,	 5.2229893556990099e+00 
5.7952000000000004e-01,	 3.0435999999999996e-01,	 1.1586407640046318e-02,	 1.7360000005824772e+03,	 -3.5832700051619633e-06,	 2.9999999900816078e+02,	 9.9999998802199423e+02,	 3.3237670656543241e+02,	 5.2229893560267424e+00 
5.8401800000000004e-01,	 3.0434469999999997e-01,	 1.1586407637188141e-02,	 1.7360000005929912e+03,	 -3.4600679047764571e-06,	 2.9999999898415831e+02,	 9.9999998769530237e+02,	 3.3237670655213594e+02,	 5.2229893562673162e+00 
5.8851600000000004e-01,	 3.0432929999999997e-01,	 1.1586407635108707e-02,	 1.7360000005998065e+03,	 -3.3400556640123901e-06,	 2.9999999896738842e+02,	 9.9999998745993094e+02,	 3.3237670654284608e+02,	 5.2229893564338026e+00 
5.9301400000000004e-01,	 3.0431399999999997e-01,	 1.1586407633788867e-02,	 1.7360000006037394e+03,	 -3.2237768458648136e-06,	 2.9999999895649222e+02,	 9.9999998730969742e+02,	 3.3237670653681005e+02,	 5.2229893565404861e+00 
5.9751200000000004e-01,	 3.0429869999999998e-01,	 1.1586407632889817e-02,	 1.7360000006056239e+03,	 -3.1108965611281657e-06,	 2.9999999895022779e+02,	 9.9999998721122074e+02,	 3.3237670653333981e+02,	 5.2229893566006869e+00 
6.0201000000000005e-01,	 3.0428329999999998e-01,	 1.1586407632854285e-02,	 1.7360000006064336e+03,	 -3.0020422251622458e-06,	 2.9999999894659891e+02,	 9.9999998719605776e+02,	 3.3237670653132955e+02,	 5.2229893566347121e+00 
6.0650800000000005e-01,	 3.0426799999999998e-01,	 1.1586407633022731e-02,	 1.7360000006066473e+03,	 -2.9000624441964338e-06,	 2.9999999894484148e+02,	 9.9999998720473798e+02,	 3.3237670653035599e+02,	 5.2229893566506540e+00 
6.1100600000000005e-01,	 3.0425269999999999e-01,	 1.1586407633500816e-02,	 1.7360000006060604e+03,	 -2.8032338934324990e-06,	 2.9999999894489929e+02,	 9.9999998724619320e+02,	 3.3237670653038799e+02,	 5.2229893566483856e+00 
6.1550400000000005e-01,	 3.0423729999999999e-01,	 1.1586407633953411e-02,	 1.7360000006047576e+03,	 -2.7101850008578535e-06,	 2.9999999894699857e+02,	 9.9999998729225342e+02,	 3.3237670653155089e+02,	 5.2229893566261918e+00 
6.2000200000000005e-01,	 3.0422199999999999e-01,	 1.1586407634510524e-02,	 1.7360000006027828e+03,	 -2.6230788977964167e-06,	 2.9999999895182560e+02,	 9.9999998735642691e+02,	 3.3237670653422492e+02,	 5.2229893565782310e+00 
6.2450000000000006e-01,	 3.0420670000000000e-01,	 1.1586407635098977e-02,	 1.7360000006003247e+03,	 -2.5416323881174052e-06,	 2.9999999895833611e+02,	 9.9999998742891682e+02,	 3.3237670653783147e+02,	 5.2229893565141614e+00 
6.2899799999999995e-01,	 3.0419130000000000e-01,	 1.1586407635720360e-02,	 1.7360000005975307e+03,	 -2.4657654348714723e-06,	 2.9999999896523155e+02,	 9.9999998750553186e+02,	 3.3237670654165129e+02,	 5.2229893564457308e+00 
6.3349599999999995e-01,	 3.0417600000000000e-01,	 1.1586407636361890e-02,	 1.7360000005944046e+03,	 -2.3942993857635289e-06,	 2.9999999897166987e+02,	 9.9999998758236211e+02,	 3.3237670654521787e+02,	 5.2229893563802801e+00 
6.3799399999999995e-01,	 3.0416070000000001e-01,	 1.1586407637030055e-02,	 1.7360000005910147e+03,	 -2.3262860239085211e-06,	 2.9999999897688497e+02,	 9.9999998765741395e+02,	 3.3237670654810682e+02,	 5.2229893563246836e+00 
6.4249199999999995e-01,	 3.0414530000000001e-01,	 1.1586407637716577e-02,	 1.7360000005874899e+03,	 -2.2623123619419555e-06,	 2.9999999898140265e+02,	 9.9999998773172524e+02,	 3.3237670655060947e+02,	 5.2229893562747520e+00 
6.4698999999999995e-01,	 3.0413000000000001e-01,	 1.1586407638418202e-02,	 1.7360000005838508e+03,	 -2.2028242165836947e-06,	 2.9999999898684672e+02,	 9.9999998781042791e+02,	 3.3237670655362524e+02,	 5.2229893562164129e+00 
6.5148799999999996e-01,	 3.0411470000000002e-01,	 1.1586407639134077e-02,	 1.7360000005801014e+03,	 -2.1474767008603923e-06,	 2.9999999899323495e+02,	 9.9999998789350786e+02,	 3.3237670655716408e+02,	 5.2229893561495233e+00 
6.5598599999999996e-01,	 3.0409929999999996e-01,	 1.1586407639863317e-02,	 1.7360000005762881e+03,	 -2.0956784952412118e-06,	 2.9999999899988450e+02,	 9.9999998797861224e+02,	 3.3237670656084765e+02,	 5.2229893560801663e+00 
6.6048399999999996e-01,	 3.0408399999999997e-01,	 1.1586407640603796e-02,	 1.7360000005723739e+03,	 -2.0475621231357269e-06,	 2.9999999900671986e+02,	 9.9999998806530607e+02,	 3.3237670656463422e+02,	 5.2229893560088874e+00 
6.6498199999999996e-01,	 3.0406869999999997e-01,	 1.1586407641352575e-02,	 1.7360000005683758e+03,	 -2.0032523862841887e-06,	 2.9999999901370973e+02,	 9.9999998815323124e+02,	 3.3237670656850634e+02,	 5.2229893559360123e+00 
6.6947999999999996e-01,	 3.0405329999999997e-01,	 1.1586407642109043e-02,	 1.7360000005642376e+03,	 -1.9619589998369283e-06,	 2.9999999902082902e+02,	 9.9999998824225145e+02,	 3.3237670657245013e+02,	 5.2229893558615883e+00 
6.7397799999999997e-01,	 3.0403799999999997e-01,	 1.1586407642862683e-02,	 1.7360000005600969e+03,	 -1.9237650267839973e-06,	 2.9999999902803773e+02,	 9.9999998833132565e+02,	 3.3237670657644344e+02,	 5.2229893557863800e+00 
6.7847599999999997e-01,	 3.0402269999999998e-01,	 1.1586407643595188e-02,	 1.7360000005555485e+03,	 -1.8891861286343126e-06,	 2.9999999903531869e+02,	 9.9999998841881654e+02,	 3.3237670658047682e+02,	 5.2229893557093146e+00 
6.8297399999999997e-01,	 3.0400729999999998e-01,	 1.1586407644282129e-02,	 1.7360000005519105e+03,	 -1.8578940486040383e-06,	 2.9999999904248460e+02,	 9.9999998850199154e+02,	 3.3237670658444648e+02,	 5.2229893556359892e+00 
6.8747199999999997e-01,	 3.0399199999999998e-01,	 1.1586407644892606e-02,	 1.7360000005459892e+03,	 -1.8297014650610818e-06,	 2.9999999904958872e+02,	 9.9999998857836090e+02,	 3.3237670658838186e+02,	 5.2229893555563338e+00 
6.9196999999999997e-01,	 3.0397669999999999e-01,	 1.1586407645369634e-02,	 1.7360000005462139e+03,	 -1.8062520367524393e-06,	 2.9999999905637299e+02,	 9.9999998864214649e+02,	 3.3237670659214012e+02,	 5.2229893554979521e+00 
6.9646799999999998e-01,	 3.0396129999999999e-01,	 1.1586407645798432e-02,	 1.7360000005480961e+03,	 -1.7899307552376835e-06,	 2.9999999906017445e+02,	 9.9999998869182684e+02,	 3.3237670659424595e+02,	 5.2229893554705242e+00 
7.0096599999999998e-01,	 3.0394599999999999e-01,	 1.1586407645924298e-02,	 1.7360000005666141e+03,	 -1.7921023942815317e-06,	 2.9999999905741362e+02,	 9.9999998869348724e+02,	 3.3237670659271657e+02,	 5.2229893555502702e+00 
7.0546399999999998e-01,	 3.0393070000000000e-01,	 1.1586407645597558e-02,	 1.7360000006030846e+03,	 -1.8356980750932208e-06,	 2.9999999903986577e+02,	 9.9999998860679420e+02,	 3.3237670658299572e+02,	 5.2229893558127509e+00 
7.0996199999999998e-01,	 3.0391530000000000e-01,	 1.1586407642981075e-02,	 1.7360000006697676e+03,	 -1.9489903483604210e-06,	 2.9999999899848490e+02,	 9.9999998824303430e+02,	 3.3237670656007236e+02,	 5.2229893563735947e+00 
7.1445999999999998e-01,	 3.0390000000000000e-01,	 1.1586407637058906e-02,	 1.7360000007845993e+03,	 -2.1564037180902318e-06,	 2.9999999891769011e+02,	 9.9999998746258768e+02,	 3.3237670651531516e+02,	 5.2229893574223993e+00 
7.1895799999999999e-01,	 3.0388470000000001e-01,	 1.1586407627079659e-02,	 1.7360000009749865e+03,	 -2.5182056903667390e-06,	 2.9999999877293078e+02,	 9.9999998611876742e+02,	 3.3237670643512411e+02,	 5.2229893592553323e+00 
7.2345599999999999e-01,	 3.0386930000000001e-01,	 1.1586407609173868e-02,	 1.7360000012813643e+03,	 -3.1417650481644290e-06,	 2.9999999852282866e+02,	 9.9999998373968026e+02,	 3.3237670629657725e+02,	 5.2229893623542454e+00 
7.2795399999999999e-01,	 3.0385400000000001e-01,	 1.1586407578961981e-02,	 1.7360000017574309e+03,	 -4.1975863705171532e-06,	 2.9999999810035320e+02,	 9.9999997972390042e+02,	 3.3237670606254227e+02,	 5.2229893674641970e+00 
7.3245199999999999e-01,	 3.0383869999999996e-01,	 1.1586407525735375e-02,	 1.7360000024641008e+03,	 -5.9481226239203168e-06,	 2.9999999740328235e+02,	 9.9999997280644754e+02,	 3.3237670567639208e+02,	 5.2229893756582975e+00 
7.3694999999999999e-01,	 3.0382329999999996e-01,	 1.1586407444240443e-02,	 1.7360000034441809e+03,	 -8.7664981628705641e-06,	 2.9999999628762578e+02,	 9.9999996205392563e+02,	 3.3237670505836167e+02,	 5.2229893883187710e+00 
7.4144800000000000e-01,	 3.0380799999999997e-01,	 1.1586407299313969e-02,	 1.7360000048826560e+03,	 -1.3171844705786314e-05,	 2.9999999455116927e+02,	 9.9999994375741949e+02,	 3.3237670409643215e+02,	 5.2229894077624399e+00 
7.4594600000000000e-01,	 3.0379269999999997e-01,	 1.1586407127132372e-02,	 1.7360000069817261e+03,	 -1.9792053257487555e-05,	 2.9999999192163716e+02,	 9.9999992013165922e+02,	 3.3237670263977338e+02,	 5.2229894369678069e+00 
7.5044400000000000e-01,	 3.0377729999999997e-01,	 1.1586406729478242e-02,	 1.7360000101548312e+03,	 -3.0164891009937619e-05,	 2.9999998788219006e+02,	 9.9999987234609398e+02,	 3.3237670040207649e+02,	 5.2229894816778373e+00 
7.5494200000000000e-01,	 3.0376199999999998e-01,	 1.1586406070569679e-02,	 1.7360000144334613e+03,	 -5.0113900878900761e-05,	 2.9999998049200104e+02,	 9.9999979084303789e+02,	 3.3237669630819858e+02,	 5.2229895588821424e+00 
7.5944000000000000e-01,	 3.0374669999999998e-01,	 1.1586403877053647e-02,	 1.7360000257135043e+03,	 -1.0098288302610507e-04,	 2.9999996104018584e+02,	 9.9999953668564547e+02,	 3.3237668553264757e+02,	 5.2229897621474093e+00 
7.6393800000000001e-01,	 3.0373129999999998e-01,	 1.1586403282926747e-02,	 1.7360000124362043e+03,	 -1.5650222510649203e-04,	 2.9999994235058443e+02,	 9.9999942310908375e+02,	 3.3237667517933312e+02,	 5.2229898848935665e+00 
7.6843600000000001e-01,	 3.0371599999999999e-01,	 1.1586415701390485e-02,	 1.7359998247708033e+03,	 2.1541606575468350e-04,	 3.0000008101369571e+02,	 1.0000009571326783e+03,	 3.3237675199331215e+02,	 5.2229881132172187e+00 
7.7293400000000001e-01,	 3.0370069999999999e-01,	 1.1586487912320810e-02,	 1.7359992074511590e+03,	 2.4641216728010528e-03,	 3.0000084182247491e+02,	 1.0000097255641468e+03,	 3.3237717345151600e+02,	 5.2229796331249521e+00 
7.7743200000000001e-01,	 3.0368529999999999e-01,	 1.1586733956896420e-02,	 1.7359972936889001e+03,	 9.9454102650341630e-03,	 3.0000337528188612e+02,	 1.0000394063482481e+03,	 3.3237857688474514e+02,	 5.2229518219501827e+00 
7.8193000000000001e-01,	 3.0367000000000000e-01,	 1.1587466976824957e-02,	 1.7359915066608685e+03,	 3.1575386450633097e-02,	 3.0001095772330297e+02,	 1.0001279496796884e+03,	 3.3238277721275949e+02,	 5.2228684094447253e+00 
7.8642800000000002e-01,	 3.0365470000000000e-01,	 1.1589611827017470e-02,	 1.7359745200098932e+03,	 9.4628323414060619e-02,	 3.0003318238226569e+02,	 1.0003871769141555e+03,	 3.3239508835819515e+02,	 5.2226238695749894e+00 