TITLE = "MeshVolumeStats"
VARIABLES = "X", "Y", "VOL"
ZONE I=100, J=69, DATAPACKING=POINT
0.005188,	0.507193,	0.000075
0.015322,	0.507144,	0.000071
0.025062,	0.507021,	0.000069
0.034566,	0.506854,	0.000068
0.043927,	0.506660,	0.000067
0.053198,	0.506449,	0.000067
0.062419,	0.506228,	0.000066
0.071609,	0.506004,	0.000066
0.080780,	0.505780,	0.000066
0.089936,	0.505564,	0.000066
0.099080,	0.505356,	0.000066
0.108215,	0.505160,	0.000066
0.117340,	0.504980,	0.000066
0.126454,	0.504819,	0.000066
0.135555,	0.504679,	0.000066
0.144641,	0.504564,	0.000066
0.153711,	0.504477,	0.000065
0.162762,	0.504420,	0.000065
0.171792,	0.504396,	0.000065
0.180799,	0.504408,	0.000065
0.189780,	0.504457,	0.000065
0.198732,	0.504546,	0.000065
0.207652,	0.504676,	0.000064
0.216539,	0.504851,	0.000064
0.225390,	0.505071,	0.000064
0.234201,	0.505338,	0.000063
0.242969,	0.505655,	0.000063
0.251692,	0.506023,	0.000063
0.260367,	0.506442,	0.000062
0.268992,	0.506915,	0.000062
0.277563,	0.507441,	0.000061
0.286080,	0.508022,	0.000061
0.294540,	0.508657,	0.000060
0.302941,	0.509348,	0.000060
0.310528,	0.510025,	0.000048
0.317310,	0.510683,	0.000048
0.324049,	0.511385,	0.000048
0.330745,	0.512132,	0.000047
0.337401,	0.512922,	0.000047
0.344017,	0.513755,	0.000047
0.350596,	0.514629,	0.000046
0.357140,	0.515544,	0.000046
0.363653,	0.516500,	0.000046
0.370136,	0.517496,	0.000045
0.376593,	0.518531,	0.000045
0.383026,	0.519605,	0.000045
0.389438,	0.520717,	0.000044
0.395830,	0.521866,	0.000044
0.402207,	0.523053,	0.000044
0.408570,	0.524276,	0.000044
0.414923,	0.525536,	0.000043
0.421267,	0.526833,	0.000043
0.427606,	0.528168,	0.000043
0.433941,	0.529541,	0.000043
0.440424,	0.530986,	0.000045
0.447058,	0.532505,	0.000045
0.453698,	0.534064,	0.000044
0.460345,	0.535665,	0.000044
0.467003,	0.537304,	0.000044
0.473673,	0.538982,	0.000044
0.480359,	0.540698,	0.000044
0.487065,	0.542449,	0.000044
0.493792,	0.544236,	0.000044
0.500547,	0.546056,	0.000044
0.507333,	0.547906,	0.000044
0.514155,	0.549781,	0.000044
0.521019,	0.551669,	0.000044
0.527930,	0.553553,	0.000044
0.534890,	0.555408,	0.000044
0.541904,	0.557217,	0.000044
0.548970,	0.558950,	0.000044
0.556084,	0.560501,	0.000045
0.563239,	0.561616,	0.000045
0.570429,	0.561844,	0.000045
0.577682,	0.562846,	0.000045
0.585011,	0.565133,	0.000045
0.592394,	0.567298,	0.000045
0.599820,	0.569353,	0.000045
0.607288,	0.571299,	0.000045
0.614794,	0.573137,	0.000045
0.622335,	0.574868,	0.000045
0.629908,	0.576494,	0.000046
0.637508,	0.578020,	0.000046
0.645133,	0.579451,	0.000046
0.652779,	0.580793,	0.000046
0.660443,	0.582056,	0.000046
0.668121,	0.583247,	0.000046
0.675811,	0.584371,	0.000046
0.683512,	0.585434,	0.000046
0.691222,	0.586444,	0.000046
0.698939,	0.587405,	0.000046
0.706663,	0.588319,	0.000045
0.714392,	0.589189,	0.000045
0.722127,	0.590017,	0.000045
0.729865,	0.590806,	0.000045
0.737608,	0.591557,	0.000045
0.745355,	0.592268,	0.000045
0.753105,	0.592940,	0.000045
0.761001,	0.593617,	0.000047
0.769022,	0.594296,	0.000047
0.005177,	0.514388,	0.000075
0.015292,	0.514341,	0.000071
0.025016,	0.514220,	0.000069
0.034506,	0.514055,	0.000068
0.043854,	0.513864,	0.000067
0.053113,	0.513656,	0.000066
0.062322,	0.513437,	0.000066
0.071500,	0.513215,	0.000066
0.080660,	0.512994,	0.000066
0.089804,	0.512779,	0.000066
0.098938,	0.512574,	0.000066
0.108062,	0.512380,	0.000066
0.117177,	0.512202,	0.000066
0.126280,	0.512042,	0.000066
0.135371,	0.511903,	0.000066
0.144447,	0.511788,	0.000065
0.153508,	0.511701,	0.000065
0.162550,	0.511644,	0.000065
0.171572,	0.511619,	0.000065
0.180571,	0.511628,	0.000065
0.189544,	0.511675,	0.000065
0.198490,	0.511761,	0.000064
0.207405,	0.511888,	0.000064
0.216287,	0.512057,	0.000064
0.225133,	0.512272,	0.000064
0.233941,	0.512534,	0.000063
0.242707,	0.512844,	0.000063
0.251428,	0.513203,	0.000063
0.260103,	0.513614,	0.000062
0.268729,	0.514077,	0.000062
0.277302,	0.514593,	0.000061
0.285822,	0.515162,	0.000061
0.294287,	0.515785,	0.000060
0.302694,	0.516463,	0.000060
0.310287,	0.517127,	0.000049
0.317075,	0.517773,	0.000048
0.323821,	0.518462,	0.000048
0.330526,	0.519195,	0.000047
0.337190,	0.519971,	0.000047
0.343816,	0.520789,	0.000047
0.350405,	0.521648,	0.000046
0.356961,	0.522548,	0.000046
0.363485,	0.523487,	0.000046
0.369981,	0.524466,	0.000045
0.376451,	0.525483,	0.000045
0.382897,	0.526539,	0.000045
0.389322,	0.527632,	0.000044
0.395730,	0.528762,	0.000044
0.402121,	0.529929,	0.000044
0.408499,	0.531132,	0.000044
0.414867,	0.532371,	0.000044
0.421227,	0.533647,	0.000043
0.427581,	0.534960,	0.000043
0.433932,	0.536311,	0.000043
0.440433,	0.537733,	0.000045
0.447087,	0.539227,	0.000045
0.453746,	0.540763,	0.000045
0.460413,	0.542338,	0.000044
0.467090,	0.543953,	0.000044
0.473780,	0.545606,	0.000044
0.480485,	0.547295,	0.000044
0.487210,	0.549021,	0.000044
0.493957,	0.550781,	0.000044
0.500730,	0.552574,	0.000044
0.507534,	0.554397,	0.000044
0.514374,	0.556245,	0.000044
0.521255,	0.558105,	0.000044
0.528183,	0.559962,	0.000044
0.535160,	0.561789,	0.000044
0.542189,	0.563571,	0.000044
0.549270,	0.565278,	0.000044
0.556398,	0.566804,	0.000045
0.563565,	0.567898,	0.000045
0.570766,	0.568111,	0.000045
0.578021,	0.569092,	0.000045
0.585344,	0.571349,	0.000045
0.592721,	0.573484,	0.000045
0.600140,	0.575512,	0.000045
0.607600,	0.577432,	0.000045
0.615098,	0.579245,	0.000045
0.622631,	0.580953,	0.000045
0.630194,	0.582558,	0.000046
0.637785,	0.584064,	0.000046
0.645400,	0.585475,	0.000046
0.653036,	0.586800,	0.000046
0.660689,	0.588047,	0.000046
0.668356,	0.589222,	0.000046
0.676036,	0.590332,	0.000046
0.683726,	0.591382,	0.000046
0.691424,	0.592379,	0.000046
0.699130,	0.593328,	0.000046
0.706843,	0.594231,	0.000045
0.714561,	0.595090,	0.000045
0.722284,	0.595908,	0.000045
0.730011,	0.596688,	0.000045
0.737742,	0.597430,	0.000045
0.745477,	0.598133,	0.000045
0.753216,	0.598796,	0.000045
0.761101,	0.599466,	0.000047
0.769115,	0.600137,	0.000047
0.005167,	0.521583,	0.000074
0.015263,	0.521538,	0.000071
0.024971,	0.521420,	0.000069
0.034447,	0.521257,	0.000068
0.043783,	0.521068,	0.000067
0.053029,	0.520862,	0.000066
0.062227,	0.520646,	0.000066
0.071394,	0.520426,	0.000066
0.080543,	0.520207,	0.000066
0.089677,	0.519995,	0.000066
0.098800,	0.519791,	0.000066
0.107914,	0.519600,	0.000066
0.117018,	0.519423,	0.000066
0.126112,	0.519264,	0.000066
0.135193,	0.519126,	0.000066
0.144260,	0.519012,	0.000065
0.153312,	0.518924,	0.000065
0.162346,	0.518867,	0.000065
0.171360,	0.518841,	0.000065
0.180351,	0.518849,	0.000065
0.189318,	0.518893,	0.000065
0.198257,	0.518976,	0.000064
0.207167,	0.519099,	0.000064
0.216044,	0.519264,	0.000064
0.224887,	0.519474,	0.000064
0.233692,	0.519729,	0.000063
0.242455,	0.520032,	0.000063
0.251176,	0.520384,	0.000063
0.259851,	0.520786,	0.000062
0.268478,	0.521240,	0.000062
0.277054,	0.521745,	0.000061
0.285577,	0.522303,	0.000061
0.294046,	0.522914,	0.000060
0.302459,	0.523579,	0.000060
0.310058,	0.524230,	0.000049
0.316853,	0.524864,	0.000048
0.323606,	0.525541,	0.000048
0.330319,	0.526260,	0.000047
0.336993,	0.527022,	0.000047
0.343628,	0.527826,	0.000047
0.350228,	0.528670,	0.000046
0.356794,	0.529553,	0.000046
0.363330,	0.530476,	0.000046
0.369838,	0.531438,	0.000045
0.376321,	0.532438,	0.000045
0.382780,	0.533476,	0.000045
0.389219,	0.534551,	0.000045
0.395641,	0.535662,	0.000044
0.402047,	0.536808,	0.000044
0.408440,	0.537991,	0.000044
0.414823,	0.539210,	0.000044
0.421198,	0.540465,	0.000043
0.427567,	0.541756,	0.000043
0.433935,	0.543085,	0.000043
0.440453,	0.544484,	0.000045
0.447126,	0.545955,	0.000045
0.453804,	0.547467,	0.000045
0.460491,	0.549018,	0.000045
0.467187,	0.550608,	0.000044
0.473896,	0.552236,	0.000044
0.480621,	0.553900,	0.000044
0.487364,	0.555599,	0.000044
0.494129,	0.557333,	0.000044
0.500921,	0.559100,	0.000044
0.507743,	0.560896,	0.000044
0.514600,	0.562717,	0.000044
0.521499,	0.564550,	0.000044
0.528443,	0.566379,	0.000044
0.535436,	0.568179,	0.000044
0.542480,	0.569934,	0.000045
0.549575,	0.571615,	0.000045
0.556716,	0.573116,	0.000045
0.563896,	0.574189,	0.000045
0.571108,	0.574388,	0.000046
0.578365,	0.575349,	0.000045
0.585683,	0.577574,	0.000045
0.593053,	0.579679,	0.000045
0.600465,	0.581680,	0.000045
0.607918,	0.583574,	0.000045
0.615407,	0.585362,	0.000045
0.622931,	0.587046,	0.000045
0.630485,	0.588630,	0.000046
0.638066,	0.590115,	0.000046
0.645671,	0.591508,	0.000046
0.653297,	0.592815,	0.000046
0.660939,	0.594045,	0.000046
0.668596,	0.595206,	0.000046
0.676265,	0.596301,	0.000046
0.683944,	0.597337,	0.000046
0.691631,	0.598322,	0.000046
0.699326,	0.599258,	0.000045
0.707027,	0.600149,	0.000045
0.714733,	0.600998,	0.000045
0.722445,	0.601806,	0.000045
0.730160,	0.602576,	0.000045
0.737880,	0.603308,	0.000045
0.745603,	0.604003,	0.000045
0.753330,	0.604659,	0.000045
0.761205,	0.605320,	0.000047
0.769211,	0.605983,	0.000047
0.005156,	0.528778,	0.000074
0.015233,	0.528735,	0.000071
0.024926,	0.528619,	0.000069
0.034388,	0.528458,	0.000068
0.043712,	0.528271,	0.000067
0.052948,	0.528068,	0.000066
0.062134,	0.527854,	0.000066
0.071291,	0.527637,	0.000066
0.080429,	0.527421,	0.000066
0.089553,	0.527210,	0.000066
0.098666,	0.527009,	0.000066
0.107770,	0.526819,	0.000066
0.116864,	0.526644,	0.000066
0.125949,	0.526486,	0.000066
0.135021,	0.526349,	0.000065
0.144079,	0.526235,	0.000065
0.153122,	0.526148,	0.000065
0.162148,	0.526089,	0.000065
0.171155,	0.526062,	0.000065
0.180140,	0.526069,	0.000065
0.189100,	0.526110,	0.000065
0.198034,	0.526190,	0.000064
0.206939,	0.526310,	0.000064
0.215812,	0.526471,	0.000064
0.224651,	0.526675,	0.000064
0.233453,	0.526924,	0.000063
0.242215,	0.527220,	0.000063
0.250935,	0.527565,	0.000063
0.259610,	0.527959,	0.000062
0.268238,	0.528403,	0.000062
0.276816,	0.528898,	0.000061
0.285343,	0.529445,	0.000061
0.293817,	0.530044,	0.000060
0.302236,	0.530695,	0.000060
0.309841,	0.531335,	0.000049
0.316643,	0.531956,	0.000048
0.323403,	0.532620,	0.000048
0.330125,	0.533327,	0.000047
0.336807,	0.534075,	0.000047
0.343452,	0.534864,	0.000047
0.350062,	0.535693,	0.000046
0.356639,	0.536561,	0.000046
0.363187,	0.537468,	0.000046
0.369707,	0.538413,	0.000046
0.376202,	0.539396,	0.000045
0.382675,	0.540416,	0.000045
0.389128,	0.541472,	0.000045
0.395563,	0.542564,	0.000044
0.401983,	0.543692,	0.000044
0.408391,	0.544855,	0.000044
0.414789,	0.546053,	0.000044
0.421179,	0.547287,	0.000044
0.427564,	0.548557,	0.000043
0.433947,	0.549864,	0.000043
0.440482,	0.551241,	0.000045
0.447174,	0.552688,	0.000045
0.453872,	0.554176,	0.000045
0.460577,	0.555704,	0.000045
0.467293,	0.557269,	0.000045
0.474021,	0.558871,	0.000045
0.480764,	0.560510,	0.000044
0.487526,	0.562185,	0.000044
0.494309,	0.563892,	0.000044
0.501119,	0.565632,	0.000044
0.507958,	0.567402,	0.000044
0.514833,	0.569196,	0.000044
0.521748,	0.571002,	0.000044
0.528709,	0.572805,	0.000044
0.535717,	0.574577,	0.000045
0.542777,	0.576306,	0.000045
0.549886,	0.577960,	0.000045
0.557040,	0.579437,	0.000045
0.564232,	0.580489,	0.000045
0.571454,	0.580675,	0.000046
0.578714,	0.581614,	0.000045
0.586026,	0.583808,	0.000045
0.593389,	0.585884,	0.000045
0.600795,	0.587856,	0.000045
0.608239,	0.589724,	0.000045
0.615721,	0.591487,	0.000045
0.623235,	0.593148,	0.000045
0.630780,	0.594710,	0.000046
0.638352,	0.596175,	0.000046
0.645947,	0.597549,	0.000046
0.653562,	0.598838,	0.000046
0.661194,	0.600051,	0.000046
0.668840,	0.601196,	0.000046
0.676498,	0.602276,	0.000046
0.684166,	0.603299,	0.000046
0.691842,	0.604270,	0.000046
0.699525,	0.605194,	0.000045
0.707214,	0.606074,	0.000045
0.714909,	0.606911,	0.000045
0.722609,	0.607709,	0.000045
0.730313,	0.608469,	0.000045
0.738021,	0.609193,	0.000045
0.745733,	0.609878,	0.000045
0.753447,	0.610526,	0.000045
0.761313,	0.611179,	0.000047
0.769310,	0.611834,	0.000047
0.005146,	0.535973,	0.000074
0.015204,	0.535932,	0.000071
0.024881,	0.535818,	0.000069
0.034330,	0.535659,	0.000067
0.043642,	0.535475,	0.000067
0.052867,	0.535274,	0.000066
0.062043,	0.535063,	0.000066
0.071190,	0.534847,	0.000066
0.080318,	0.534634,	0.000066
0.089432,	0.534426,	0.000066
0.098536,	0.534226,	0.000066
0.107630,	0.534038,	0.000066
0.116715,	0.533864,	0.000066
0.125791,	0.533708,	0.000065
0.134854,	0.533571,	0.000065
0.143904,	0.533458,	0.000065
0.152939,	0.533371,	0.000065
0.161958,	0.533312,	0.000065
0.170958,	0.533284,	0.000065
0.179936,	0.533288,	0.000065
0.188890,	0.533328,	0.000065
0.197819,	0.533405,	0.000064
0.206719,	0.533520,	0.000064
0.215588,	0.533677,	0.000064
0.224424,	0.533876,	0.000064
0.233223,	0.534120,	0.000063
0.241984,	0.534409,	0.000063
0.250704,	0.534746,	0.000063
0.259379,	0.535131,	0.000062
0.268009,	0.535566,	0.000062
0.276590,	0.536051,	0.000061
0.285120,	0.536587,	0.000061
0.293599,	0.537174,	0.000060
0.302024,	0.537813,	0.000060
0.309636,	0.538440,	0.000049
0.316444,	0.539050,	0.000048
0.323212,	0.539701,	0.000048
0.329941,	0.540395,	0.000048
0.336632,	0.541129,	0.000047
0.343287,	0.541904,	0.000047
0.349907,	0.542718,	0.000047
0.356496,	0.543571,	0.000046
0.363055,	0.544462,	0.000046
0.369587,	0.545391,	0.000046
0.376095,	0.546356,	0.000045
0.382580,	0.547358,	0.000045
0.389047,	0.548397,	0.000045
0.395496,	0.549470,	0.000045
0.401930,	0.550578,	0.000044
0.408352,	0.551722,	0.000044
0.414765,	0.552900,	0.000044
0.421170,	0.554113,	0.000044
0.427570,	0.555362,	0.000044
0.433968,	0.556647,	0.000043
0.440521,	0.558002,	0.000045
0.447232,	0.559427,	0.000045
0.453948,	0.560891,	0.000045
0.460672,	0.562394,	0.000045
0.467407,	0.563936,	0.000045
0.474153,	0.565513,	0.000045
0.480915,	0.567127,	0.000045
0.487695,	0.568776,	0.000044
0.494497,	0.570458,	0.000044
0.501324,	0.572172,	0.000044
0.508181,	0.573916,	0.000044
0.515073,	0.575683,	0.000044
0.522004,	0.577462,	0.000044
0.528981,	0.579237,	0.000045
0.536004,	0.580983,	0.000045
0.543079,	0.582685,	0.000045
0.550201,	0.584314,	0.000045
0.557368,	0.585766,	0.000045
0.564572,	0.586798,	0.000045
0.571805,	0.586970,	0.000046
0.579067,	0.587889,	0.000045
0.586373,	0.590052,	0.000045
0.593730,	0.592098,	0.000045
0.601128,	0.594042,	0.000045
0.608565,	0.595882,	0.000045
0.616038,	0.597621,	0.000045
0.623544,	0.599258,	0.000045
0.631079,	0.600797,	0.000046
0.638641,	0.602242,	0.000046
0.646226,	0.603596,	0.000046
0.653831,	0.604867,	0.000046
0.661452,	0.606064,	0.000046
0.669087,	0.607193,	0.000046
0.676734,	0.608258,	0.000046
0.684391,	0.609267,	0.000046
0.692056,	0.610225,	0.000045
0.699728,	0.611137,	0.000045
0.707406,	0.612004,	0.000045
0.715089,	0.612831,	0.000045
0.722777,	0.613618,	0.000045
0.730470,	0.614368,	0.000045
0.738166,	0.615082,	0.000045
0.745865,	0.615759,	0.000045
0.753568,	0.616398,	0.000045
0.761423,	0.617043,	0.000047
0.769413,	0.617689,	0.000047
0.005135,	0.543169,	0.000074
0.015174,	0.543129,	0.000071
0.024837,	0.543017,	0.000069
0.034273,	0.542860,	0.000067
0.043574,	0.542678,	0.000067
0.052788,	0.542479,	0.000066
0.061954,	0.542271,	0.000066
0.071091,	0.542058,	0.000066
0.080210,	0.541846,	0.000066
0.089314,	0.541641,	0.000066
0.098409,	0.541443,	0.000066
0.107494,	0.541257,	0.000066
0.116571,	0.541084,	0.000065
0.125638,	0.540929,	0.000065
0.134693,	0.540794,	0.000065
0.143735,	0.540681,	0.000065
0.152763,	0.540594,	0.000065
0.161774,	0.540534,	0.000065
0.170767,	0.540505,	0.000065
0.179739,	0.540508,	0.000065
0.188688,	0.540545,	0.000065
0.197611,	0.540619,	0.000064
0.206507,	0.540731,	0.000064
0.215373,	0.540884,	0.000064
0.224206,	0.541078,	0.000064
0.233003,	0.541315,	0.000063
0.241763,	0.541598,	0.000063
0.250482,	0.541927,	0.000063
0.259159,	0.542304,	0.000062
0.267790,	0.542730,	0.000062
0.276373,	0.543205,	0.000061
0.284908,	0.543730,	0.000061
0.293391,	0.544305,	0.000060
0.301822,	0.544932,	0.000060
0.309440,	0.545546,	0.000049
0.316255,	0.546144,	0.000048
0.323031,	0.546784,	0.000048
0.329768,	0.547465,	0.000048
0.336468,	0.548186,	0.000047
0.343133,	0.548946,	0.000047
0.349763,	0.549746,	0.000047
0.356362,	0.550583,	0.000046
0.362933,	0.551458,	0.000046
0.369477,	0.552370,	0.000046
0.375997,	0.553319,	0.000045
0.382496,	0.554304,	0.000045
0.388975,	0.555324,	0.000045
0.395438,	0.556379,	0.000045
0.401887,	0.557468,	0.000044
0.408323,	0.558592,	0.000044
0.414750,	0.559750,	0.000044
0.421170,	0.560943,	0.000044
0.427586,	0.562172,	0.000044
0.433998,	0.563435,	0.000043
0.440568,	0.564768,	0.000045
0.447297,	0.566170,	0.000045
0.454032,	0.567611,	0.000045
0.460775,	0.569091,	0.000045
0.467528,	0.570608,	0.000045
0.474293,	0.572161,	0.000045
0.481073,	0.573750,	0.000045
0.487871,	0.575374,	0.000071
0.565338,	0.122148,	0.000066
0.567399,	0.131528,	0.000059
0.569004,	0.141163,	0.000053
0.570500,	0.150647,	0.000048
0.572060,	0.159887,	0.000043
0.573753,	0.168923,	0.000039
0.575623,	0.177806,	0.000035
0.577731,	0.186566,	0.000031
0.580193,	0.195162,	0.000027
0.583229,	0.203429,	0.000024
0.587131,	0.210994,	0.000023
0.592328,	0.216851,	0.000025
0.598868,	0.219683,	0.000026
0.606012,	0.220644,	0.000027
0.613207,	0.221493,	0.000028
0.620396,	0.222292,	0.000029
0.627564,	0.223059,	0.000030
0.634716,	0.223793,	0.000030
0.641858,	0.224492,	0.000031
0.648993,	0.225157,	0.000032
0.656125,	0.225789,	0.000032
0.663256,	0.226389,	0.000033
0.670387,	0.226958,	0.000033
0.677518,	0.227499,	0.000034
0.684652,	0.228013,	0.000034
0.691787,	0.228501,	0.000035
0.698925,	0.228963,	0.000036
0.706067,	0.229401,	0.000036
0.713214,	0.229815,	0.000036
0.720367,	0.230204,	0.000037
0.727527,	0.230570,	0.000037
0.734698,	0.230913,	0.000038
0.741879,	0.231241,	0.000038
0.749071,	0.231569,	0.000039
0.756262,	0.231929,	0.000039
0.763427,	0.232391,	0.000039
0.770702,	0.232677,	0.000040
0.778161,	0.232716,	0.000041
0.005924,	0.046740,	0.000085
0.017733,	0.046687,	0.000084
0.029472,	0.046622,	0.000084
0.041169,	0.046543,	0.000084
0.052841,	0.046448,	0.000083
0.064499,	0.046341,	0.000083
0.076149,	0.046224,	0.000083
0.087794,	0.046100,	0.000082
0.099435,	0.045974,	0.000082
0.111071,	0.045848,	0.000082
0.122701,	0.045727,	0.000081
0.134326,	0.045611,	0.000081
0.145944,	0.045504,	0.000081
0.157555,	0.045406,	0.000080
0.169156,	0.045319,	0.000080
0.180746,	0.045244,	0.000080
0.192324,	0.045183,	0.000080
0.203889,	0.045135,	0.000079
0.215439,	0.045103,	0.000079
0.226972,	0.045088,	0.000079
0.238487,	0.045091,	0.000079
0.249982,	0.045113,	0.000079
0.261455,	0.045158,	0.000079
0.272903,	0.045227,	0.000079
0.284324,	0.045324,	0.000079
0.295716,	0.045449,	0.000079
0.307076,	0.045607,	0.000079
0.318401,	0.045799,	0.000079
0.329689,	0.046030,	0.000079
0.340934,	0.046304,	0.000079
0.352131,	0.046626,	0.000080
0.363270,	0.047001,	0.000080
0.374332,	0.047430,	0.000080
0.385288,	0.047910,	0.000080
0.395286,	0.048409,	0.000068
0.404322,	0.048948,	0.000068
0.413238,	0.049574,	0.000069
0.422048,	0.050281,	0.000069
0.430750,	0.051067,	0.000070
0.439339,	0.051932,	0.000071
0.447807,	0.052880,	0.000072
0.456141,	0.053914,	0.000072
0.464325,	0.055039,	0.000073
0.472335,	0.056261,	0.000074
0.480143,	0.057586,	0.000074
0.487719,	0.059015,	0.000074
0.495068,	0.060495,	0.000073
0.501763,	0.062837,	0.000074
0.507793,	0.065722,	0.000067
0.513513,	0.068254,	0.000063
0.518823,	0.070826,	0.000061
0.523675,	0.073608,	0.000059
0.528038,	0.076681,	0.000056
0.531911,	0.080080,	0.000054
0.535408,	0.083929,	0.000054
0.538666,	0.088388,	0.000055
0.541712,	0.093471,	0.000056
0.544571,	0.099086,	0.000055
0.547343,	0.105062,	0.000055
0.550227,	0.111104,	0.000056
0.553593,	0.116606,	0.000058
0.557335,	0.122823,	0.000070
0.560489,	0.130824,	0.000063
0.562759,	0.139608,	0.000057
0.564676,	0.148575,	0.000052
0.566562,	0.157441,	0.000047
0.568551,	0.166148,	0.000042
0.570690,	0.174721,	0.000038
0.573021,	0.183183,	0.000034
0.575606,	0.191525,	0.000030
0.578552,	0.199692,	0.000027
0.582040,	0.207535,	0.000024
0.586307,	0.214736,	0.000023
0.591699,	0.220426,	0.000024
0.598276,	0.223296,	0.000026
0.605399,	0.224359,	0.000027
0.612565,	0.225319,	0.000028
0.619732,	0.226232,	0.000029
0.626888,	0.227110,	0.000029
0.634037,	0.227949,	0.000030
0.641182,	0.228750,	0.000031
0.648325,	0.229511,	0.000032
0.655468,	0.230236,	0.000032
0.662612,	0.230924,	0.000033
0.669758,	0.231576,	0.000033
0.676907,	0.232197,	0.000034
0.684059,	0.232787,	0.000034
0.691213,	0.233349,	0.000035
0.698370,	0.233883,	0.000035
0.705532,	0.234390,	0.000036
0.712697,	0.234871,	0.000036
0.719868,	0.235327,	0.000037
0.727045,	0.235758,	0.000037
0.734230,	0.236165,	0.000038
0.741423,	0.236553,	0.000038
0.748625,	0.236930,	0.000039
0.755828,	0.237323,	0.000039
0.763013,	0.237786,	0.000039
0.770333,	0.238077,	0.000040
0.777835,	0.238140,	0.000041
0.005914,	0.053928,	0.000085
0.017692,	0.053866,	0.000084
0.029387,	0.053797,	0.000084
0.041031,	0.053713,	0.000084
0.052646,	0.053608,	0.000083
0.064244,	0.053490,	0.000083
0.075832,	0.053358,	0.000083
0.087415,	0.053217,	0.000083
0.098994,	0.053072,	0.000083
0.110567,	0.052928,	0.000082
0.122134,	0.052789,	0.000082
0.133696,	0.052657,	0.000082
0.145250,	0.052535,	0.000082
0.156796,	0.052423,	0.000082
0.168331,	0.052324,	0.000082
0.179854,	0.052239,	0.000082
0.191363,	0.052169,	0.000081
0.202858,	0.052115,	0.000081
0.214335,	0.052079,	0.000081
0.225794,	0.052062,	0.000081
0.237232,	0.052065,	0.000081
0.248647,	0.052091,	0.000081
0.260037,	0.052142,	0.000081
0.271399,	0.052221,	0.000081
0.282730,	0.052330,	0.000081
0.294028,	0.052473,	0.000081
0.305289,	0.052651,	0.000081
0.316511,	0.052868,	0.000081
0.327689,	0.053129,	0.000081
0.338820,	0.053438,	0.000081
0.349898,	0.053801,	0.000081
0.360911,	0.054225,	0.000082
0.371837,	0.054716,	0.000082
0.382613,	0.055272,	0.000081
0.392428,	0.055858,	0.000069
0.401300,	0.056492,	0.000069
0.410028,	0.057218,	0.000070
0.418638,	0.058035,	0.000070
0.427127,	0.058942,	0.000071
0.435489,	0.059939,	0.000071
0.443714,	0.061030,	0.000072
0.451788,	0.062218,	0.000073
0.459694,	0.063508,	0.000073
0.467411,	0.064905,	0.000074
0.474918,	0.066413,	0.000074
0.482198,	0.068018,	0.000075
0.489329,	0.069553,	0.000073
0.495872,	0.071760,	0.000071
0.501817,	0.074529,	0.000067
0.507547,	0.077097,	0.000065
0.512906,	0.079791,	0.000063
0.517832,	0.082713,	0.000061
0.522288,	0.085904,	0.000058
0.526275,	0.089385,	0.000056
0.529901,	0.093264,	0.000055
0.533301,	0.097687,	0.000056
0.536514,	0.102676,	0.000056
0.539564,	0.108166,	0.000055
0.542521,	0.114048,	0.000054
0.545522,	0.120105,	0.000055
0.548881,	0.125730,	0.000057
0.552512,	0.131976,	0.000069
0.555605,	0.139641,	0.000063
0.558022,	0.147767,	0.000059
0.560293,	0.156004,	0.000054
0.562624,	0.164215,	0.000049
0.565075,	0.172373,	0.000045
0.567677,	0.180473,	0.000040
0.570474,	0.188496,	0.000036
0.573531,	0.196399,	0.000032
0.576943,	0.204115,	0.000029
0.580858,	0.211517,	0.000026
0.585465,	0.218345,	0.000024
0.591039,	0.223931,	0.000025
0.597659,	0.226891,	0.000026
0.604774,	0.228043,	0.000027
0.611918,	0.229116,	0.000028
0.619068,	0.230144,	0.000029
0.626216,	0.231132,	0.000029
0.633364,	0.232075,	0.000030
0.640514,	0.232975,	0.000031
0.647665,	0.233831,	0.000031
0.654820,	0.234645,	0.000032
0.661978,	0.235419,	0.000032
0.669140,	0.236153,	0.000033
0.676305,	0.236851,	0.000034
0.683475,	0.237516,	0.000034
0.690647,	0.238150,	0.000035
0.697823,	0.238755,	0.000035
0.705003,	0.239330,	0.000036
0.712186,	0.239879,	0.000036
0.719373,	0.240402,	0.000037
0.726565,	0.240900,	0.000037
0.733761,	0.241373,	0.000038
0.740964,	0.241823,	0.000038
0.748173,	0.242253,	0.000038
0.755385,	0.242675,	0.000039
0.762592,	0.243132,	0.000039
0.769953,	0.243422,	0.000040
0.777495,	0.243511,	0.000040
0.005899,	0.061110,	0.000085
0.017638,	0.061035,	0.000084
0.029282,	0.060970,	0.000083
0.040868,	0.060889,	0.000083
0.052420,	0.060786,	0.000083
0.063951,	0.060668,	0.000083
0.075471,	0.060534,	0.000083
0.086985,	0.060389,	0.000083
0.098493,	0.060240,	0.000083
0.109995,	0.060092,	0.000083
0.121491,	0.059949,	0.000083
0.132980,	0.059814,	0.000083
0.144461,	0.059688,	0.000083
0.155933,	0.059574,	0.000083
0.167394,	0.059474,	0.000083
0.178842,	0.059389,	0.000082
0.190276,	0.059321,	0.000082
0.201694,	0.059269,	0.000082
0.213094,	0.059235,	0.000082
0.224474,	0.059222,	0.000082
0.235832,	0.059230,	0.000082
0.247165,	0.059262,	0.000082
0.258472,	0.059321,	0.000082
0.269749,	0.059409,	0.000082
0.280992,	0.059530,	0.000082
0.292201,	0.059686,	0.000082
0.303370,	0.059880,	0.000082
0.314498,	0.060114,	0.000082
0.325580,	0.060394,	0.000081
0.336611,	0.060725,	0.000081
0.347587,	0.061114,	0.000081
0.358499,	0.061569,	0.000081
0.369330,	0.062102,	0.000081
0.380029,	0.062725,	0.000081
0.389719,	0.063390,	0.000067
0.398418,	0.064098,	0.000067
0.406990,	0.064903,	0.000067
0.415445,	0.065805,	0.000067
0.423775,	0.066805,	0.000067
0.431970,	0.067908,	0.000067
0.440016,	0.069116,	0.000067
0.447897,	0.070435,	0.000067
0.455595,	0.071870,	0.000067
0.463088,	0.073428,	0.000067
0.470354,	0.075112,	0.000067
0.477375,	0.076915,	0.000067
0.484198,	0.078711,	0.000070
0.490591,	0.080875,	0.000068
0.496524,	0.083422,	0.000064
0.502178,	0.085990,	0.000061
0.507459,	0.088725,	0.000059
0.512325,	0.091662,	0.000056
0.516745,	0.094814,	0.000053
0.520716,	0.098195,	0.000050
0.524358,	0.101924,	0.000050
0.527831,	0.106172,	0.000052
0.531177,	0.110978,	0.000053
0.534405,	0.116293,	0.000053
0.537544,	0.122048,	0.000053
0.540650,	0.128135,	0.000054
0.543875,	0.134251,	0.000059
0.547159,	0.140790,	0.000069
0.550158,	0.148035,	0.000065
0.552900,	0.155532,	0.000060
0.555643,	0.163140,	0.000056
0.558458,	0.170805,	0.000051
0.561376,	0.178496,	0.000048
0.564433,	0.186175,	0.000044
0.567688,	0.193793,	0.000040
0.571212,	0.201285,	0.000037
0.575095,	0.208562,	0.000033
0.579461,	0.215502,	0.000029
0.584456,	0.221898,	0.000026
0.590297,	0.227385,	0.000026
0.597016,	0.230475,	0.000026
0.604135,	0.231708,	0.000027
0.611269,	0.232882,	0.000028
0.618411,	0.234013,	0.000028
0.625557,	0.235099,	0.000029
0.632709,	0.236136,	0.000029
0.639866,	0.237125,	0.000030
0.647029,	0.238068,	0.000031
0.654197,	0.238967,	0.000031
0.661370,	0.239822,	0.000032
0.668548,	0.240634,	0.000032
0.675731,	0.241408,	0.000033
0.682917,	0.242146,	0.000033
0.690107,	0.242853,	0.000034
0.697300,	0.243528,	0.000034
0.704496,	0.244173,	0.000035
0.711696,	0.244790,	0.000035
0.718898,	0.245383,	0.000036
0.726103,	0.245950,	0.000036
0.733310,	0.246492,	0.000037
0.740521,	0.247008,	0.000037
0.747736,	0.247501,	0.000038
0.754953,	0.247972,	0.000038
0.762172,	0.248438,	0.000038
0.769566,	0.248732,	0.000040
0.777145,	0.248848,	0.000040
0.005887,	0.068294,	0.000085
0.017592,	0.068208,	0.000084
0.029187,	0.068142,	0.000083
0.040715,	0.068059,	0.000082
0.052205,	0.067951,	0.000082
0.063670,	0.067827,	0.000082
0.075122,	0.067685,	0.000081
0.086568,	0.067531,	0.000081
0.098006,	0.067371,	0.000081
0.109437,	0.067213,	0.000080
0.120861,	0.067061,	0.000080
0.132279,	0.066917,	0.000080
0.143688,	0.066783,	0.000080
0.155087,	0.066662,	0.000079
0.166475,	0.066555,	0.000079
0.177848,	0.066466,	0.000079
0.189206,	0.066394,	0.000079
0.200547,	0.066339,	0.000078
0.211868,	0.066305,	0.000078
0.223168,	0.066292,	0.000078
0.234444,	0.066303,	0.000078
0.245694,	0.066339,	0.000078
0.256914,	0.066403,	0.000078
0.268102,	0.066499,	0.000077
0.279255,	0.066630,	0.000077
0.290369,	0.066799,	0.000077
0.301441,	0.067008,	0.000077
0.312468,	0.067259,	0.000078
0.323444,	0.067560,	0.000078
0.334367,	0.067915,	0.000078
0.345230,	0.068331,	0.000078
0.356027,	0.068818,	0.000078
0.366744,	0.069390,	0.000078
0.377361,	0.070069,	0.000079
0.386930,	0.070795,	0.000065
0.395458,	0.071561,	0.000065
0.403878,	0.072428,	0.000065
0.412183,	0.073398,	0.000066
0.420361,	0.074475,	0.000066
0.428399,	0.075662,	0.000066
0.436282,	0.076963,	0.000066
0.443995,	0.078385,	0.000067
0.451519,	0.079932,	0.000067
0.458833,	0.081610,	0.000067
0.465915,	0.083427,	0.000066
0.472739,	0.085389,	0.000066
0.479280,	0.087499,	0.000065
0.485515,	0.089765,	0.000064
0.491422,	0.092192,	0.000063
0.496980,	0.094786,	0.000062
0.502173,	0.097550,	0.000060
0.506983,	0.100495,	0.000058
0.511390,	0.103631,	0.000056
0.515391,	0.106972,	0.000053
0.519110,	0.110649,	0.000054
0.522711,	0.114835,	0.000055
0.526220,	0.119557,	0.000055
0.529637,	0.124767,	0.000055
0.532969,	0.130403,	0.000054
0.536226,	0.136411,	0.000053
0.539422,	0.142739,	0.000051
0.542571,	0.149339,	0.000049
0.545694,	0.156162,	0.000047
0.548814,	0.163163,	0.000045
0.551954,	0.170299,	0.000042
0.555146,	0.177524,	0.000040
0.558428,	0.184789,	0.000037
0.561846,	0.192045,	0.000034
0.565464,	0.199235,	0.000032
0.569355,	0.206287,	0.000029
0.573603,	0.213102,	0.000027
0.578310,	0.219562,	0.000025
0.583587,	0.225497,	0.000024
0.589604,	0.230742,	0.000024
0.596382,	0.233860,	0.000024
0.603502,	0.235197,	0.000024
0.610632,	0.236482,	0.000025
0.617771,	0.237720,	0.000026
0.624918,	0.238909,	0.000027
0.632073,	0.240046,	0.000028
0.639237,	0.241132,	0.000029
0.646409,	0.242169,	0.000029
0.653587,	0.243159,	0.000030
0.660772,	0.244102,	0.000031
0.667962,	0.244998,	0.000032
0.675158,	0.245854,	0.000032
0.682358,	0.246672,	0.000033
0.689562,	0.247456,	0.000033
0.696770,	0.248206,	0.000034
0.703980,	0.248923,	0.000034
0.711194,	0.249613,	0.000035
0.718410,	0.250275,	0.000035
0.725629,	0.250912,	0.000036
0.732850,	0.251521,	0.000036
0.740073,	0.252104,	0.000037
0.747298,	0.252662,	0.000037
0.754525,	0.253194,	0.000038
0.761754,	0.253700,	0.000038
0.769174,	0.254020,	0.000040
0.776789,	0.254163,	0.000040
0.005879,	0.075487,	0.000085
0.017558,	0.075398,	0.000083
0.029108,	0.075325,	0.000083
0.040581,	0.075231,	0.000082
0.052009,	0.075108,	0.000082
0.063410,	0.074966,	0.000081
0.074798,	0.074804,	0.000081
0.086177,	0.074628,	0.000081
0.097550,	0.074445,	0.000080
0.108915,	0.074264,	0.000080
0.120273,	0.074090,	0.000080
0.131624,	0.073924,	0.000079
0.142966,	0.073771,	0.000079
0.154297,	0.073632,	0.000079
0.165614,	0.073509,	0.000079
0.176917,	0.073406,	0.000078
0.188202,	0.073321,	0.000078
0.199468,	0.073258,	0.000078
0.210712,	0.073216,	0.000078
0.221932,	0.073199,	0.000077
0.233125,	0.073208,	0.000077
0.244289,	0.073245,	0.000077
0.255420,	0.073313,	0.000077
0.266515,	0.073416,	0.000077
0.277569,	0.073559,	0.000077
0.288580,	0.073744,	0.000077
0.299544,	0.073972,	0.000077
0.310457,	0.074248,	0.000077
0.321314,	0.074578,	0.000077
0.332109,	0.074967,	0.000077
0.342838,	0.075422,	0.000077