TITLE = "MeshVolumeStats"
VARIABLES = "X", "Y", "VOL"
<<<<<<< HEAD
ZONE I=139, J=40, DATAPACKING=POINT
-0.001211,	0.002570,	0.000013
-0.000973,	0.007505,	0.000013
-0.000499,	0.012422,	0.000013
0.000210,	0.017312,	0.000013
0.001154,	0.022161,	0.000013
0.002330,	0.026959,	0.000013
0.003735,	0.031696,	0.000013
0.005365,	0.036359,	0.000013
0.007218,	0.040939,	0.000013
0.009289,	0.045425,	0.000013
0.011572,	0.049805,	0.000013
0.014064,	0.054071,	0.000013
0.016757,	0.058213,	0.000013
0.019646,	0.062220,	0.000013
0.022725,	0.066084,	0.000013
0.025985,	0.069795,	0.000012
0.029420,	0.073346,	0.000012
0.033022,	0.076727,	0.000012
0.036781,	0.079932,	0.000012
0.040691,	0.082952,	0.000012
0.044740,	0.085781,	0.000012
0.048921,	0.088412,	0.000012
0.053224,	0.090839,	0.000012
0.057629,	0.093053,	0.000012
0.062124,	0.095049,	0.000012
0.066709,	0.096831,	0.000012
0.071371,	0.098393,	0.000012
0.076101,	0.099734,	0.000013
0.080888,	0.100848,	0.000013
0.086148,	0.101870,	0.000015
0.091856,	0.102911,	0.000016
0.097565,	0.103952,	0.000016
0.103273,	0.104994,	0.000016
0.108981,	0.106035,	0.000017
0.114689,	0.107076,	0.000017
0.120398,	0.108117,	0.000018
0.126106,	0.109159,	0.000018
0.131814,	0.110200,	0.000018
0.137522,	0.111241,	0.000019
0.143231,	0.112282,	0.000019
0.148939,	0.113324,	0.000020
0.154647,	0.114365,	0.000020
0.160355,	0.115406,	0.000020
0.166063,	0.116448,	0.000021
0.171772,	0.117489,	0.000021
0.177480,	0.118530,	0.000022
0.183188,	0.119571,	0.000022
0.188896,	0.120613,	0.000022
0.194605,	0.121654,	0.000023
0.200313,	0.122695,	0.000023
0.206021,	0.123737,	0.000024
0.211729,	0.124778,	0.000024
0.217438,	0.125819,	0.000024
0.223146,	0.126860,	0.000025
0.228854,	0.127902,	0.000025
0.234562,	0.128943,	0.000026
0.240271,	0.129984,	0.000026
0.245979,	0.131025,	0.000026
0.251687,	0.132067,	0.000027
0.257395,	0.133108,	0.000027
0.263103,	0.134149,	0.000027
0.268812,	0.135191,	0.000028
0.274520,	0.136232,	0.000028
0.280228,	0.137273,	0.000029
0.285936,	0.138314,	0.000029
0.291645,	0.139356,	0.000029
0.297353,	0.140397,	0.000030
0.303061,	0.141438,	0.000030
0.308769,	0.142480,	0.000031
0.314478,	0.143521,	0.000031
0.320186,	0.144562,	0.000031
0.325894,	0.145603,	0.000032
0.331602,	0.146645,	0.000032
0.337311,	0.147686,	0.000033
0.343019,	0.148727,	0.000033
0.348727,	0.149768,	0.000033
0.354435,	0.150810,	0.000034
0.360143,	0.151851,	0.000034
0.365852,	0.152892,	0.000035
0.371560,	0.153934,	0.000035
0.377268,	0.154975,	0.000035
0.382976,	0.156016,	0.000036
0.388685,	0.157057,	0.000036
0.394393,	0.158099,	0.000037
0.400101,	0.159140,	0.000037
0.405809,	0.160181,	0.000037
0.411518,	0.161222,	0.000038
0.417226,	0.162264,	0.000038
0.422934,	0.163305,	0.000039
0.428642,	0.164346,	0.000039
0.434351,	0.165388,	0.000039
0.440059,	0.166429,	0.000040
0.445767,	0.167470,	0.000040
0.451475,	0.168511,	0.000041
0.457183,	0.169553,	0.000041
0.462892,	0.170594,	0.000041
0.468600,	0.171635,	0.000042
0.474308,	0.172677,	0.000042
0.480016,	0.173718,	0.000043
0.485725,	0.174759,	0.000043
0.491433,	0.175800,	0.000043
0.497141,	0.176842,	0.000044
0.502849,	0.177883,	0.000044
0.508558,	0.178924,	0.000045
0.514266,	0.179965,	0.000045
0.519974,	0.181007,	0.000045
0.525682,	0.182048,	0.000046
0.531391,	0.183089,	0.000046
0.537099,	0.184131,	0.000047
0.542807,	0.185172,	0.000047
0.548515,	0.186213,	0.000047
0.554224,	0.187254,	0.000048
0.559932,	0.188296,	0.000048
0.565640,	0.189337,	0.000048
0.571348,	0.190378,	0.000049
0.577056,	0.191419,	0.000049
0.582765,	0.192461,	0.000050
0.588473,	0.193502,	0.000050
0.594181,	0.194543,	0.000050
0.599889,	0.195585,	0.000051
0.605598,	0.196626,	0.000051
0.611306,	0.197667,	0.000052
0.617014,	0.198708,	0.000052
0.622722,	0.199750,	0.000052
0.628431,	0.200791,	0.000053
0.634139,	0.201832,	0.000053
0.639847,	0.202874,	0.000054
0.645555,	0.203915,	0.000054
0.651264,	0.204956,	0.000054
0.656972,	0.205997,	0.000055
0.662680,	0.207039,	0.000055
0.668388,	0.208080,	0.000056
0.674096,	0.209121,	0.000056
0.679805,	0.210162,	0.000056
0.685513,	0.211204,	0.000057
0.691221,	0.212245,	0.000057
0.696929,	0.213286,	0.000058
0.702638,	0.214328,	0.000058
0.708346,	0.215369,	0.000058
-0.003750,	0.002621,	0.000013
-0.003508,	0.007656,	0.000013
-0.003026,	0.012675,	0.000013
-0.002305,	0.017664,	0.000013
-0.001346,	0.022614,	0.000013
-0.000150,	0.027511,	0.000013
0.001278,	0.032346,	0.000013
0.002936,	0.037107,	0.000013
0.004819,	0.041783,	0.000013
0.006925,	0.046364,	0.000013
0.009247,	0.050838,	0.000013
0.011780,	0.055197,	0.000013
0.014520,	0.059429,	0.000013
0.017458,	0.063525,	0.000013
0.020589,	0.067475,	0.000013
0.023906,	0.071272,	0.000013
0.027400,	0.074905,	0.000013
0.031064,	0.078366,	0.000013
0.034890,	0.081649,	0.000013
0.038868,	0.084744,	0.000013
0.042989,	0.087646,	0.000013
0.047245,	0.090346,	0.000013
0.051625,	0.092841,	0.000013
0.056091,	0.095109,	0.000013
0.060629,	0.097153,	0.000013
0.065254,	0.098987,	0.000013
0.069955,	0.100608,	0.000013
0.074722,	0.102013,	0.000013
0.079544,	0.103197,	0.000013
0.084828,	0.104291,	0.000015
0.090548,	0.105404,	0.000016
0.096268,	0.106517,	0.000016
0.101988,	0.107630,	0.000017
0.107709,	0.108743,	0.000017
0.113429,	0.109855,	0.000017
0.119149,	0.110968,	0.000018
0.124870,	0.112081,	0.000018
0.130590,	0.113194,	0.000018
0.136310,	0.114307,	0.000019
0.142031,	0.115420,	0.000019
0.147751,	0.116533,	0.000020
0.153471,	0.117646,	0.000020
0.159191,	0.118759,	0.000020
0.164912,	0.119872,	0.000021
0.170632,	0.120985,	0.000021
0.176352,	0.122098,	0.000022
0.182073,	0.123211,	0.000022
0.187793,	0.124323,	0.000022
0.193513,	0.125436,	0.000023
0.199233,	0.126549,	0.000023
0.204954,	0.127662,	0.000024
0.210674,	0.128775,	0.000024
0.216394,	0.129888,	0.000024
0.222115,	0.131001,	0.000025
0.227835,	0.132114,	0.000025
0.233555,	0.133227,	0.000026
0.239276,	0.134340,	0.000026
0.244996,	0.135453,	0.000026
0.250716,	0.136566,	0.000027
0.256436,	0.137679,	0.000027
0.262157,	0.138791,	0.000028
0.267877,	0.139904,	0.000028
0.273597,	0.141017,	0.000028
0.279318,	0.142130,	0.000029
0.285038,	0.143243,	0.000029
0.290758,	0.144356,	0.000030
0.296479,	0.145469,	0.000030
0.302199,	0.146582,	0.000030
0.307919,	0.147695,	0.000031
0.313639,	0.148808,	0.000031
0.319360,	0.149921,	0.000032
0.325080,	0.151034,	0.000032
0.330800,	0.152147,	0.000032
0.336521,	0.153259,	0.000033
0.342241,	0.154372,	0.000033
0.347961,	0.155485,	0.000034
0.353681,	0.156598,	0.000034
0.359402,	0.157711,	0.000034
0.365122,	0.158824,	0.000035
0.370842,	0.159937,	0.000035
0.376563,	0.161050,	0.000036
0.382283,	0.162163,	0.000036
0.388003,	0.163276,	0.000036
0.393724,	0.164389,	0.000037
0.399444,	0.165502,	0.000037
0.405164,	0.166615,	0.000038
0.410884,	0.167727,	0.000038
0.416605,	0.168840,	0.000038
0.422325,	0.169953,	0.000039
0.428045,	0.171066,	0.000039
0.433766,	0.172179,	0.000040
0.439486,	0.173292,	0.000040
0.445206,	0.174405,	0.000040
0.450927,	0.175518,	0.000041
0.456647,	0.176631,	0.000041
0.462367,	0.177744,	0.000041
0.468087,	0.178857,	0.000042
0.473808,	0.179970,	0.000042
0.479528,	0.181083,	0.000043
0.485248,	0.182195,	0.000043
0.490969,	0.183308,	0.000043
0.496689,	0.184421,	0.000044
0.502409,	0.185534,	0.000044
0.508129,	0.186647,	0.000045
0.513850,	0.187760,	0.000045
0.519570,	0.188873,	0.000045
0.525290,	0.189986,	0.000046
0.531011,	0.191099,	0.000046
0.536731,	0.192212,	0.000047
0.542451,	0.193325,	0.000047
0.548172,	0.194438,	0.000047
0.553892,	0.195551,	0.000048
0.559612,	0.196663,	0.000048
0.565332,	0.197776,	0.000049
0.571053,	0.198889,	0.000049
0.576773,	0.200002,	0.000049
0.582493,	0.201115,	0.000050
0.588214,	0.202228,	0.000050
0.593934,	0.203341,	0.000051
0.599654,	0.204454,	0.000051
0.605375,	0.205567,	0.000051
0.611095,	0.206680,	0.000052
0.616815,	0.207793,	0.000052
0.622535,	0.208906,	0.000053
0.628256,	0.210019,	0.000053
0.633976,	0.211131,	0.000053
0.639696,	0.212244,	0.000054
0.645417,	0.213357,	0.000054
0.651137,	0.214470,	0.000055
0.656857,	0.215583,	0.000055
0.662577,	0.216696,	0.000055
0.668298,	0.217809,	0.000056
0.674018,	0.218922,	0.000056
0.679738,	0.220035,	0.000057
0.685459,	0.221148,	0.000057
0.691179,	0.222261,	0.000057
0.696899,	0.223374,	0.000058
0.702620,	0.224487,	0.000058
0.708340,	0.225599,	0.000059
-0.006289,	0.002671,	0.000013
-0.006043,	0.007808,	0.000013
-0.005554,	0.012927,	0.000013
-0.004820,	0.018017,	0.000013
-0.003845,	0.023066,	0.000013
-0.002631,	0.028063,	0.000013
-0.001179,	0.032997,	0.000013
0.000506,	0.037855,	0.000013
0.002421,	0.042628,	0.000013
0.004561,	0.047303,	0.000013
0.006922,	0.051872,	0.000013
0.009497,	0.056322,	0.000013
0.012282,	0.060645,	0.000013
0.015270,	0.064829,	0.000013
0.018454,	0.068867,	0.000013
0.021826,	0.072748,	0.000013
0.025380,	0.076463,	0.000013
0.029107,	0.080005,	0.000013
0.032998,	0.083365,	0.000013
0.037045,	0.086536,	0.000013
0.041238,	0.089510,	0.000013
0.045568,	0.092281,	0.000013
0.050025,	0.094842,	0.000013
0.054553,	0.097165,	0.000013
0.059134,	0.099257,	0.000013
0.063799,	0.101144,	0.000013
0.068539,	0.102824,	0.000013
0.073342,	0.104292,	0.000013
0.078200,	0.105546,	0.000013
0.083507,	0.106712,	0.000015
0.089239,	0.107896,	0.000016
0.094972,	0.109081,	0.000016
0.100704,	0.110266,	0.000017
0.106436,	0.111450,	0.000017
0.112169,	0.112635,	0.000017
0.117901,	0.113819,	0.000018
0.123633,	0.115004,	0.000018
0.129366,	0.116188,	0.000019
0.135098,	0.117373,	0.000019
0.140831,	0.118558,	0.000019
0.146563,	0.119742,	0.000020
0.152295,	0.120927,	0.000020
0.158028,	0.122111,	0.000021
0.163760,	0.123296,	0.000021
0.169492,	0.124480,	0.000021
0.175225,	0.125665,	0.000022
0.180957,	0.126850,	0.000022
0.186689,	0.128034,	0.000023
0.192422,	0.129219,	0.000023
0.198154,	0.130403,	0.000023
0.203886,	0.131588,	0.000024
0.209619,	0.132772,	0.000024
0.215351,	0.133957,	0.000025
0.221084,	0.135142,	0.000025
0.226816,	0.136326,	0.000025
0.232548,	0.137511,	0.000026
0.238281,	0.138695,	0.000026
0.244013,	0.139880,	0.000027
0.249745,	0.141064,	0.000027
0.255478,	0.142249,	0.000027
0.261210,	0.143434,	0.000028
0.266942,	0.144618,	0.000028
0.272675,	0.145803,	0.000029
0.278407,	0.146987,	0.000029
0.284139,	0.148172,	0.000029
0.289872,	0.149356,	0.000030
0.295604,	0.150541,	0.000030
0.301337,	0.151726,	0.000031
0.307069,	0.152910,	0.000031
0.312801,	0.154095,	0.000031
0.318534,	0.155279,	0.000032
0.324266,	0.156464,	0.000032
0.329998,	0.157648,	0.000032
0.335731,	0.158833,	0.000033
0.341463,	0.160018,	0.000033
0.347195,	0.161202,	0.000034
0.352928,	0.162387,	0.000034
0.358660,	0.163571,	0.000034
0.364392,	0.164756,	0.000035
0.370125,	0.165940,	0.000035
0.375857,	0.167125,	0.000036
0.381590,	0.168310,	0.000036
0.387322,	0.169494,	0.000036
0.393054,	0.170679,	0.000037
0.398787,	0.171863,	0.000037
0.404519,	0.173048,	0.000038
0.410251,	0.174232,	0.000038
0.415984,	0.175417,	0.000038
0.421716,	0.176602,	0.000039
0.427448,	0.177786,	0.000039
0.433181,	0.178971,	0.000040
0.438913,	0.180155,	0.000040
0.444645,	0.181340,	0.000040
0.450378,	0.182524,	0.000041
0.456110,	0.183709,	0.000041
0.461842,	0.184894,	0.000042
0.467575,	0.186078,	0.000042
0.473307,	0.187263,	0.000042
0.479040,	0.188447,	0.000043
0.484772,	0.189632,	0.000043
0.490504,	0.190816,	0.000044
0.496237,	0.192001,	0.000044
0.501969,	0.193186,	0.000044
0.507701,	0.194370,	0.000045
0.513434,	0.195555,	0.000045
0.519166,	0.196739,	0.000046
0.524898,	0.197924,	0.000046
0.530631,	0.199108,	0.000046
0.536363,	0.200293,	0.000047
0.542095,	0.201478,	0.000047
0.547828,	0.202662,	0.000048
0.553560,	0.203847,	0.000048
0.559293,	0.205031,	0.000048
0.565025,	0.206216,	0.000049
0.570757,	0.207400,	0.000049
0.576490,	0.208585,	0.000050
0.582222,	0.209770,	0.000050
0.587954,	0.210954,	0.000050
0.593687,	0.212139,	0.000051
0.599419,	0.213323,	0.000051
0.605151,	0.214508,	0.000052
0.610884,	0.215692,	0.000052
0.616616,	0.216877,	0.000052
0.622348,	0.218062,	0.000053
0.628081,	0.219246,	0.000053
0.633813,	0.220431,	0.000053
0.639546,	0.221615,	0.000054
0.645278,	0.222800,	0.000054
0.651010,	0.223984,	0.000055
0.656743,	0.225169,	0.000055
0.662475,	0.226354,	0.000055
0.668207,	0.227538,	0.000056
0.673940,	0.228723,	0.000056
0.679672,	0.229907,	0.000057
0.685404,	0.231092,	0.000057
0.691137,	0.232276,	0.000057
0.696869,	0.233461,	0.000058
0.702601,	0.234646,	0.000058
0.708334,	0.235830,	0.000059
-0.008828,	0.002722,	0.000013
-0.008579,	0.007960,	0.000013
-0.008081,	0.013180,	0.000013
-0.007336,	0.018370,	0.000013
-0.006345,	0.023519,	0.000013
-0.005111,	0.028615,	0.000013
-0.003636,	0.033647,	0.000013
-0.001923,	0.038603,	0.000013
0.000023,	0.043472,	0.000013
0.002197,	0.048243,	0.000013
0.004597,	0.052905,	0.000013
0.007214,	0.057447,	0.000013
0.010045,	0.061860,	0.000013
0.013082,	0.066134,	0.000013
0.016318,	0.070258,	0.000013
0.019747,	0.074224,	0.000013
0.023360,	0.078022,	0.000013
0.027149,	0.081644,	0.000013
0.031106,	0.085082,	0.000013
0.035222,	0.088328,	0.000013
0.039487,	0.091375,	0.000013
0.043891,	0.094215,	0.000013
0.048426,	0.096843,	0.000013
0.053015,	0.099221,	0.000013
0.057638,	0.101360,	0.000013
0.062344,	0.103301,	0.000013
0.067122,	0.105039,	0.000013
0.071963,	0.106571,	0.000013
0.076856,	0.107895,	0.000013
0.082186,	0.109133,	0.000016
0.087931,	0.110389,	0.000016
0.093675,	0.111645,	0.000016
0.099420,	0.112902,	0.000017
0.105164,	0.114158,	0.000017
0.110908,	0.115414,	0.000018
0.116653,	0.116670,	0.000018
0.122397,	0.117926,	0.000018
0.128142,	0.119183,	0.000019
0.133886,	0.120439,	0.000019
0.139631,	0.121695,	0.000020
0.145375,	0.122951,	0.000020
0.151119,	0.124208,	0.000020
0.156864,	0.125464,	0.000021
0.162608,	0.126720,	0.000021
0.168353,	0.127976,	0.000022
0.174097,	0.129232,	0.000022
0.179841,	0.130489,	0.000022
0.185586,	0.131745,	0.000023
0.191330,	0.133001,	0.000023
0.197075,	0.134257,	0.000023
0.202819,	0.135514,	0.000024
0.208564,	0.136770,	0.000024
0.214308,	0.138026,	0.000025
0.220052,	0.139282,	0.000025
0.225797,	0.140538,	0.000025
0.231541,	0.141795,	0.000026
0.237286,	0.143051,	0.000026
0.243030,	0.144307,	0.000027
0.248774,	0.145563,	0.000027
0.254519,	0.146820,	0.000027
0.260263,	0.148076,	0.000028
0.266008,	0.149332,	0.000028
0.271752,	0.150588,	0.000029
0.277497,	0.151844,	0.000029
0.283241,	0.153101,	0.000029
0.288985,	0.154357,	0.000030
0.294730,	0.155613,	0.000030
0.300474,	0.156869,	0.000031
0.306219,	0.158125,	0.000031
0.311963,	0.159382,	0.000031
0.317707,	0.160638,	0.000032
0.323452,	0.161894,	0.000032
0.329196,	0.163150,	0.000033
0.334941,	0.164407,	0.000033
0.340685,	0.165663,	0.000033
0.346430,	0.166919,	0.000034
0.352174,	0.168175,	0.000034
0.357918,	0.169431,	0.000035
0.363663,	0.170688,	0.000035
0.369407,	0.171944,	0.000035
0.375152,	0.173200,	0.000036
0.380896,	0.174456,	0.000036
0.386640,	0.175713,	0.000037
0.392385,	0.176969,	0.000037
0.398129,	0.178225,	0.000037
0.403874,	0.179481,	0.000038
0.409618,	0.180737,	0.000038
0.415363,	0.181994,	0.000039
0.421107,	0.183250,	0.000039
0.426851,	0.184506,	0.000039
0.432596,	0.185762,	0.000040
0.438340,	0.187018,	0.000040
0.444085,	0.188275,	0.000041
0.449829,	0.189531,	0.000041
0.455573,	0.190787,	0.000041
0.461318,	0.192043,	0.000042
0.467062,	0.193300,	0.000042
0.472807,	0.194556,	0.000043
0.478551,	0.195812,	0.000043
0.484296,	0.197068,	0.000043
0.490040,	0.198324,	0.000044
0.495784,	0.199581,	0.000044
0.501529,	0.200837,	0.000045
0.507273,	0.202093,	0.000045
0.513018,	0.203349,	0.000045
0.518762,	0.204606,	0.000046
0.524506,	0.205862,	0.000046
0.530251,	0.207118,	0.000046
0.535995,	0.208374,	0.000047
0.541740,	0.209630,	0.000047
0.547484,	0.210887,	0.000048
0.553229,	0.212143,	0.000048
0.558973,	0.213399,	0.000048
0.564717,	0.214655,	0.000049
0.570462,	0.215911,	0.000049
0.576206,	0.217168,	0.000050
0.581951,	0.218424,	0.000050
0.587695,	0.219680,	0.000050
0.593439,	0.220936,	0.000051
0.599184,	0.222193,	0.000051
0.604928,	0.223449,	0.000052
0.610673,	0.224705,	0.000052
0.616417,	0.225961,	0.000052
0.622162,	0.227217,	0.000053
0.627906,	0.228474,	0.000053
0.633650,	0.229730,	0.000054
0.639395,	0.230986,	0.000054
0.645139,	0.232242,	0.000054
0.650884,	0.233499,	0.000055
0.656628,	0.234755,	0.000055
0.662372,	0.236011,	0.000056
0.668117,	0.237267,	0.000056
0.673861,	0.238523,	0.000056
0.679606,	0.239780,	0.000057
0.685350,	0.241036,	0.000057
0.691095,	0.242292,	0.000058
0.696839,	0.243548,	0.000058
0.702583,	0.244805,	0.000058
0.708328,	0.246061,	0.000059
-0.011367,	0.002772,	0.000014
-0.011114,	0.008111,	0.000014
-0.010608,	0.013432,	0.000014
-0.009851,	0.018723,	0.000014
-0.008845,	0.023972,	0.000014
-0.007591,	0.029167,	0.000014
-0.006092,	0.034297,	0.000014
-0.004353,	0.039351,	0.000014
-0.002376,	0.044316,	0.000014
-0.000166,	0.049182,	0.000014
0.002271,	0.053938,	0.000014
0.004931,	0.058573,	0.000014
0.007807,	0.063076,	0.000014
0.010894,	0.067438,	0.000014
0.014183,	0.071650,	0.000014
0.017667,	0.075700,	0.000014
0.021340,	0.079581,	0.000014
0.025192,	0.083283,	0.000014
0.029214,	0.086799,	0.000014
0.033399,	0.090120,	0.000014
0.037735,	0.093239,	0.000014
0.042215,	0.096149,	0.000013
0.046827,	0.098844,	0.000013
0.051477,	0.101278,	0.000013
0.056143,	0.103464,	0.000013
0.060890,	0.105457,	0.000013
0.065706,	0.107254,	0.000013
0.070583,	0.108850,	0.000013
0.075512,	0.110244,	0.000013
0.080866,	0.111554,	0.000016
0.086622,	0.112882,	0.000016
0.092379,	0.114210,	0.000016
0.098135,	0.115538,	0.000017
0.103892,	0.116866,	0.000017
0.109648,	0.118193,	0.000018
0.115405,	0.119521,	0.000018
0.121161,	0.120849,	0.000018
0.126918,	0.122177,	0.000019
0.132674,	0.123505,	0.000019
0.138431,	0.124833,	0.000020
0.144187,	0.126161,	0.000020
0.149944,	0.127488,	0.000020
0.155700,	0.128816,	0.000021
0.161456,	0.130144,	0.000021
0.167213,	0.131472,	0.000022
0.172969,	0.132800,	0.000022
0.178726,	0.134128,	0.000022
0.184482,	0.135456,	0.000023
0.190239,	0.136783,	0.000023
0.195995,	0.138111,	0.000024
0.201752,	0.139439,	0.000024
0.207508,	0.140767,	0.000024
0.213265,	0.142095,	0.000025
0.219021,	0.143423,	0.000025
0.224778,	0.144751,	0.000026
0.230534,	0.146079,	0.000026
0.236291,	0.147406,	0.000026
0.242047,	0.148734,	0.000027
0.247804,	0.150062,	0.000027
0.253560,	0.151390,	0.000028
0.259317,	0.152718,	0.000028
0.265073,	0.154046,	0.000028
0.270830,	0.155374,	0.000029
0.276586,	0.156701,	0.000029
0.282342,	0.158029,	0.000030
0.288099,	0.159357,	0.000030
0.293855,	0.160685,	0.000030
0.299612,	0.162013,	0.000031
0.305368,	0.163341,	0.000031
0.311125,	0.164669,	0.000032
0.316881,	0.165997,	0.000032
0.322638,	0.167324,	0.000032
0.328394,	0.168652,	0.000033
0.334151,	0.169980,	0.000033
0.339907,	0.171308,	0.000034
0.345664,	0.172636,	0.000034
0.351420,	0.173964,	0.000034
0.357177,	0.175292,	0.000035
0.362933,	0.176619,	0.000035
0.368690,	0.177947,	0.000036
0.374446,	0.179275,	0.000036
0.380203,	0.180603,	0.000036
0.385959,	0.181931,	0.000037
0.391716,	0.183259,	0.000037
0.397472,	0.184587,	0.000037
0.403228,	0.185914,	0.000038
0.408985,	0.187242,	0.000038
0.414741,	0.188570,	0.000039
0.420498,	0.189898,	0.000039
0.426254,	0.191226,	0.000039
0.432011,	0.192554,	0.000040
0.437767,	0.193882,	0.000040
0.443524,	0.195210,	0.000041
0.449280,	0.196537,	0.000041
0.455037,	0.197865,	0.000041
0.460793,	0.199193,	0.000042
0.466550,	0.200521,	0.000042
0.472306,	0.201849,	0.000043
0.478063,	0.203177,	0.000043
0.483819,	0.204505,	0.000043
0.489576,	0.205832,	0.000044
0.495332,	0.207160,	0.000044
0.501089,	0.208488,	0.000045
0.506845,	0.209816,	0.000045
0.512602,	0.211144,	0.000045
0.518358,	0.212472,	0.000046
0.524115,	0.213800,	0.000046
0.529871,	0.215128,	0.000047
0.535627,	0.216455,	0.000047
0.541384,	0.217783,	0.000047
0.547140,	0.219111,	0.000048
0.552897,	0.220439,	0.000048
0.558653,	0.221767,	0.000049
0.564410,	0.223095,	0.000049
0.570166,	0.224423,	0.000049
0.575923,	0.225750,	0.000050
0.581679,	0.227078,	0.000050
0.587436,	0.228406,	0.000051
0.593192,	0.229734,	0.000051
0.598949,	0.231062,	0.000051
0.604705,	0.232390,	0.000052
0.610462,	0.233718,	0.000052
0.616218,	0.235046,	0.000053
0.621975,	0.236373,	0.000053
0.627731,	0.237701,	0.000053
0.633488,	0.239029,	0.000054
0.639244,	0.240357,	0.000054
0.645001,	0.241685,	0.000055
0.650757,	0.243013,	0.000055
0.656513,	0.244341,	0.000055
0.662270,	0.245668,	0.000056
0.668026,	0.246996,	0.000056
0.673783,	0.248324,	0.000057
0.679539,	0.249652,	0.000057
0.685296,	0.250980,	0.000057
0.691052,	0.252308,	0.000058
0.696809,	0.253636,	0.000058
0.702565,	0.254963,	0.000059
0.708322,	0.256291,	0.000059
-0.013906,	0.002823,	0.000014
-0.013649,	0.008263,	0.000014
-0.013135,	0.013684,	0.000014
-0.012367,	0.019076,	0.000014
-0.011344,	0.024424,	0.000014
-0.010071,	0.029719,	0.000014
-0.008549,	0.034948,	0.000014
-0.006782,	0.040099,	0.000014
-0.004774,	0.045160,	0.000014
-0.002530,	0.050121,	0.000014
-0.000054,	0.054971,	0.000014
0.002648,	0.059698,	0.000014
0.005570,	0.064292,	0.000014
0.008706,	0.068743,	0.000014
0.012047,	0.073041,	0.000014
0.015588,	0.077176,	0.000014
0.019320,	0.081140,	0.000014
0.023234,	0.084922,	0.000014
0.027323,	0.088516,	0.000014
0.031576,	0.091912,	0.000014
0.035984,	0.095104,	0.000014
0.040538,	0.098084,	0.000014
0.045227,	0.100845,	0.000014
0.049939,	0.103334,	0.000013
0.054648,	0.105568,	0.000013
0.059435,	0.107614,	0.000013
0.064290,	0.109469,	0.000013
0.069204,	0.111129,	0.000013
0.074168,	0.112593,	0.000014
0.079545,	0.113975,	0.000016
0.085314,	0.115375,	0.000016
0.091082,	0.116774,	0.000017
0.096851,	0.118174,	0.000017
0.102619,	0.119573,	0.000017
0.108388,	0.120973,	0.000018
0.114156,	0.122372,	0.000018
0.119925,	0.123772,	0.000019
0.125694,	0.125171,	0.000019
0.131462,	0.126571,	0.000019
0.137231,	0.127970,	0.000020
0.142999,	0.129370,	0.000020
0.148768,	0.130769,	0.000021
0.154536,	0.132169,	0.000021
0.160305,	0.133568,	0.000021
0.166073,	0.134968,	0.000022
0.171842,	0.136367,	0.000022
0.177610,	0.137767,	0.000023
0.183379,	0.139166,	0.000023
0.189147,	0.140566,	0.000023
0.194916,	0.141965,	0.000024
0.200684,	0.143365,	0.000024
0.206453,	0.144764,	0.000025
0.212222,	0.146164,	0.000025
0.217990,	0.147563,	0.000025
0.223759,	0.148963,	0.000026
0.229527,	0.150362,	0.000026
0.235296,	0.151762,	0.000027
0.241064,	0.153161,	0.000027
0.246833,	0.154561,	0.000027
0.252601,	0.155960,	0.000028
0.258370,	0.157360,	0.000028
0.264138,	0.158760,	0.000028
0.269907,	0.160159,	0.000029
0.275675,	0.161559,	0.000029
0.281444,	0.162958,	0.000030
0.287213,	0.164358,	0.000030
0.292981,	0.165757,	0.000030
0.298750,	0.167157,	0.000031
0.304518,	0.168556,	0.000031
0.310287,	0.169956,	0.000032
0.316055,	0.171355,	0.000032
0.321824,	0.172755,	0.000032
0.327592,	0.174154,	0.000033
0.333361,	0.175554,	0.000033
0.339129,	0.176953,	0.000034
0.344898,	0.178353,	0.000034
0.350666,	0.179752,	0.000034
0.356435,	0.181152,	0.000035
0.362204,	0.182551,	0.000035
0.367972,	0.183951,	0.000036
0.373741,	0.185350,	0.000036
0.379509,	0.186750,	0.000036
0.385278,	0.188149,	0.000037
0.391046,	0.189549,	0.000037
0.396815,	0.190948,	0.000038
0.402583,	0.192348,	0.000038
0.408352,	0.193747,	0.000038
0.414120,	0.195147,	0.000039
0.419889,	0.196546,	0.000039
0.425657,	0.197946,	0.000040
0.431426,	0.199345,	0.000040
0.437194,	0.200745,	0.000040
0.442963,	0.202144,	0.000041
0.448732,	0.203544,	0.000041
0.454500,	0.204943,	0.000042
0.460269,	0.206343,	0.000042
0.466037,	0.207742,	0.000042
0.471806,	0.209142,	0.000043
0.477574,	0.210541,	0.000043
0.483343,	0.211941,	0.000044
0.489111,	0.213341,	0.000044
0.494880,	0.214740,	0.000044
0.500648,	0.216140,	0.000045
0.506417,	0.217539,	0.000045
0.512185,	0.218939,	0.000046
0.517954,	0.220338,	0.000046
0.523723,	0.221738,	0.000046
0.529491,	0.223137,	0.000047
0.535260,	0.224537,	0.000047
0.541028,	0.225936,	0.000048
0.546797,	0.227336,	0.000048
0.552565,	0.228735,	0.000048
0.558334,	0.230135,	0.000049
0.564102,	0.231534,	0.000049
0.569871,	0.232934,	0.000050
0.575639,	0.234333,	0.000050
0.581408,	0.235733,	0.000050
0.587176,	0.237132,	0.000051
0.592945,	0.238532,	0.000051
0.598714,	0.239931,	0.000051
0.604482,	0.241331,	0.000052
0.610251,	0.242730,	0.000052
0.616019,	0.244130,	0.000053
0.621788,	0.245529,	0.000053
0.627556,	0.246929,	0.000053
0.633325,	0.248328,	0.000054
0.639093,	0.249728,	0.000054
0.644862,	0.251127,	0.000055
0.650630,	0.252527,	0.000055
0.656399,	0.253926,	0.000055
0.662167,	0.255326,	0.000056
0.667936,	0.256725,	0.000056
0.673705,	0.258125,	0.000057
0.679473,	0.259524,	0.000057
0.685242,	0.260924,	0.000057
0.691010,	0.262323,	0.000058
0.696779,	0.263723,	0.000058
0.702547,	0.265122,	0.000059
0.708316,	0.266522,	0.000059
-0.016445,	0.002873,	0.000014
-0.016184,	0.008414,	0.000014
-0.015663,	0.013937,	0.000014
-0.014882,	0.019428,	0.000014
-0.013844,	0.024877,	0.000014
-0.012551,	0.030271,	0.000014
-0.011006,	0.035598,	0.000014
-0.009212,	0.040846,	0.000014
-0.007173,	0.046004,	0.000014
-0.004894,	0.051061,	0.000014
-0.002379,	0.056004,	0.000014
0.000365,	0.060823,	0.000014
0.003333,	0.065508,	0.000014
0.006517,	0.070048,	0.000014
0.009912,	0.074432,	0.000014
0.013509,	0.078652,	0.000014
0.017300,	0.082698,	0.000014
0.021277,	0.086561,	0.000014
0.025431,	0.090232,	0.000014
0.029753,	0.093704,	0.000014
0.034233,	0.096968,	0.000014
0.038862,	0.100018,	0.000014
0.043628,	0.102846,	0.000014
0.048401,	0.105390,	0.000013
0.053153,	0.107671,	0.000013
0.057980,	0.109770,	0.000013
0.062874,	0.111684,	0.000013
0.067825,	0.113408,	0.000014
0.072824,	0.114942,	0.000014
0.078225,	0.116396,	0.000016
0.084005,	0.117867,	0.000016
0.089786,	0.119339,	0.000017
0.095566,	0.120810,	0.000017
0.101347,	0.122281,	0.000018
0.107128,	0.123752,	0.000018
0.112908,	0.125223,	0.000018
0.118689,	0.126694,	0.000019
0.124469,	0.128165,	0.000019
0.130250,	0.129637,	0.000020
0.136031,	0.131108,	0.000020
0.141811,	0.132579,	0.000020
0.147592,	0.134050,	0.000021
0.153372,	0.135521,	0.000021
0.159153,	0.136992,	0.000021
0.164934,	0.138464,	0.000022
0.170714,	0.139935,	0.000022
0.176495,	0.141406,	0.000023
0.182275,	0.142877,	0.000023
0.188056,	0.144348,	0.000023
0.193837,	0.145819,	0.000024
0.199617,	0.147291,	0.000024
0.205398,	0.148762,	0.000025
0.211178,	0.150233,	0.000025
0.216959,	0.151704,	0.000025
0.222740,	0.153175,	0.000026
0.228520,	0.154646,	0.000026
0.234301,	0.156118,	0.000027
0.240081,	0.157589,	0.000027
0.245862,	0.159060,	0.000027
0.251643,	0.160531,	0.000028
0.257423,	0.162002,	0.000028
0.263204,	0.163473,	0.000029
0.268984,	0.164944,	0.000029
0.274765,	0.166416,	0.000029
0.280546,	0.167887,	0.000030
0.286326,	0.169358,	0.000030
0.292107,	0.170829,	0.000031
0.297887,	0.172300,	0.000031
0.303668,	0.173771,	0.000031
0.309449,	0.175243,	0.000032
0.315229,	0.176714,	0.000032
0.321010,	0.178185,	0.000033
0.326790,	0.179656,	0.000033
0.332571,	0.181127,	0.000033
0.338351,	0.182598,	0.000034
0.344132,	0.184070,	0.000034
0.349913,	0.185541,	0.000035
0.355693,	0.187012,	0.000035
0.361474,	0.188483,	0.000035
0.367254,	0.189954,	0.000036
0.373035,	0.191425,	0.000036
0.378816,	0.192897,	0.000037
0.384596,	0.194368,	0.000037
0.390377,	0.195839,	0.000037
0.396157,	0.197310,	0.000038
0.401938,	0.198781,	0.000038
0.407719,	0.200252,	0.000039
0.413499,	0.201723,	0.000039
0.419280,	0.203195,	0.000039
0.425060,	0.204666,	0.000040
0.430841,	0.206137,	0.000040
0.436622,	0.207608,	0.000041
0.442402,	0.209079,	0.000041
0.448183,	0.210550,	0.000041
0.453963,	0.212022,	0.000042
0.459744,	0.213493,	0.000042
0.465525,	0.214964,	0.000042
0.471305,	0.216435,	0.000043
0.477086,	0.217906,	0.000043
0.482866,	0.219377,	0.000044
0.488647,	0.220849,	0.000044
0.494428,	0.222320,	0.000044
0.500208,	0.223791,	0.000045
0.505989,	0.225262,	0.000045
0.511769,	0.226733,	0.000046
0.517550,	0.228204,	0.000046
0.523331,	0.229675,	0.000046
0.529111,	0.231147,	0.000047
0.534892,	0.232618,	0.000047
0.540672,	0.234089,	0.000048
0.546453,	0.235560,	0.000048
0.552234,	0.237031,	0.000048
0.558014,	0.238502,	0.000049
0.563795,	0.239974,	0.000049
0.569575,	0.241445,	0.000050
0.575356,	0.242916,	0.000050
0.581137,	0.244387,	0.000050
0.586917,	0.245858,	0.000051
0.592698,	0.247329,	0.000051
0.598478,	0.248801,	0.000052
0.604259,	0.250272,	0.000052
0.610040,	0.251743,	0.000052
0.615820,	0.253214,	0.000053
0.621601,	0.254685,	0.000053
0.627381,	0.256156,	0.000054
0.633162,	0.257628,	0.000054
0.638943,	0.259099,	0.000054
0.644723,	0.260570,	0.000055
0.650504,	0.262041,	0.000055
0.656284,	0.263512,	0.000056
0.662065,	0.264983,	0.000056
0.667846,	0.266454,	0.000056
0.673626,	0.267926,	0.000057
0.679407,	0.269397,	0.000057
0.685187,	0.270868,	0.000058
0.690968,	0.272339,	0.000058
0.696749,	0.273810,	0.000058
0.702529,	0.275281,	0.000059
0.708310,	0.276753,	0.000059
-0.018984,	0.002924,	0.000014
-0.018719,	0.008566,	0.000014
-0.018190,	0.014189,	0.000014
-0.017398,	0.019781,	0.000014
-0.016344,	0.025330,	0.000014
-0.015031,	0.030823,	0.000014
-0.013463,	0.036248,	0.000014
-0.011641,	0.041594,	0.000014
-0.009571,	0.046849,	0.000014
-0.007257,	0.052000,	0.000014
-0.004704,	0.057037,	0.000014
-0.001918,	0.061948,	0.000014
0.001095,	0.066724,	0.000014
0.004329,	0.071352,	0.000014
0.007776,	0.075824,	0.000014
0.011429,	0.080128,	0.000014
0.015280,	0.084257,	0.000014
0.019319,	0.088200,	0.000014
0.023539,	0.091949,	0.000014
0.027930,	0.095496,	0.000014
0.032482,	0.098833,	0.000014
0.037185,	0.101952,	0.000014
0.042029,	0.104848,	0.000014
0.046863,	0.107446,	0.000013
0.051657,	0.109775,	0.000014
0.056525,	0.111927,	0.000014
0.061458,	0.113899,	0.000014
0.066445,	0.115688,	0.000014
0.071480,	0.117291,	0.000014
0.076904,	0.118817,	0.000016
0.082697,	0.120360,	0.000016
0.088489,	0.121903,	0.000017
0.094282,	0.123446,	0.000017
0.100075,	0.124989,	0.000018
0.105867,	0.126531,	0.000018
0.111660,	0.128074,	0.000018
0.117453,	0.129617,	0.000019
0.123245,	0.131160,	0.000019
0.129038,	0.132703,	0.000020
0.134831,	0.134245,	0.000020
0.140623,	0.135788,	0.000020
0.146416,	0.137331,	0.000021
0.152209,	0.138874,	0.000021
0.158001,	0.140417,	0.000022
0.163794,	0.141959,	0.000022
0.169587,	0.143502,	0.000022
0.175379,	0.145045,	0.000023
0.181172,	0.146588,	0.000023
0.186965,	0.148131,	0.000024
0.192757,	0.149673,	0.000024
0.198550,	0.151216,	0.000024
0.204342,	0.152759,	0.000025
0.210135,	0.154302,	0.000025
0.215928,	0.155845,	0.000026
0.221720,	0.157387,	0.000026