TITLE = "MeshVolumeStats"
VARIABLES = "X", "Y", "VOL"
ZONE I=200, J=74, DATAPACKING=POINT
0.000311,	0.000172,	0.000000
0.000932,	0.000173,	0.000000
0.001553,	0.000173,	0.000000
0.002174,	0.000174,	0.000000
0.002795,	0.000175,	0.000000
0.003416,	0.000175,	0.000000
0.004037,	0.000176,	0.000000
0.004658,	0.000177,	0.000000
0.005279,	0.000177,	0.000000
0.005900,	0.000178,	0.000000
0.006521,	0.000179,	0.000000
0.007142,	0.000179,	0.000000
0.007763,	0.000180,	0.000000
0.008384,	0.000181,	0.000000
0.009005,	0.000181,	0.000000
0.009626,	0.000182,	0.000000
0.010247,	0.000183,	0.000000
0.010868,	0.000184,	0.000000
0.011489,	0.000184,	0.000000
0.012110,	0.000185,	0.000000
0.012731,	0.000186,	0.000000
0.013352,	0.000186,	0.000000
0.013973,	0.000187,	0.000000
0.014594,	0.000188,	0.000000
0.015215,	0.000189,	0.000000
0.015836,	0.000189,	0.000000
0.016457,	0.000190,	0.000000
0.017078,	0.000191,	0.000000
0.017699,	0.000192,	0.000000
0.018320,	0.000192,	0.000000
0.018941,	0.000193,	0.000000
0.019562,	0.000194,	0.000000
0.020183,	0.000195,	0.000000
0.020805,	0.000195,	0.000000
0.021426,	0.000196,	0.000000
0.022047,	0.000197,	0.000000
0.022668,	0.000198,	0.000000
0.023289,	0.000199,	0.000000
0.023910,	0.000199,	0.000000
0.024531,	0.000200,	0.000000
0.025152,	0.000201,	0.000000
0.025773,	0.000202,	0.000000
0.026394,	0.000202,	0.000000
0.027015,	0.000203,	0.000000
0.027636,	0.000204,	0.000000
0.028257,	0.000205,	0.000000
0.028878,	0.000206,	0.000000
0.029499,	0.000206,	0.000000
0.030120,	0.000207,	0.000000
0.030741,	0.000208,	0.000000
0.031362,	0.000209,	0.000000
0.031983,	0.000210,	0.000000
0.032604,	0.000210,	0.000000
0.033225,	0.000211,	0.000000
0.033846,	0.000212,	0.000000
0.034467,	0.000213,	0.000000
0.035088,	0.000214,	0.000000
0.035709,	0.000214,	0.000000
0.036330,	0.000215,	0.000000
0.036951,	0.000216,	0.000000
0.037572,	0.000217,	0.000000
0.038193,	0.000218,	0.000000
0.038814,	0.000218,	0.000000
0.039435,	0.000219,	0.000000
0.040056,	0.000220,	0.000000
0.040677,	0.000221,	0.000000
0.041298,	0.000222,	0.000000
0.041920,	0.000222,	0.000000
0.042541,	0.000223,	0.000000
0.043162,	0.000224,	0.000000
0.043783,	0.000225,	0.000000
0.044404,	0.000226,	0.000000
0.045025,	0.000226,	0.000000
0.045646,	0.000227,	0.000000
0.046267,	0.000228,	0.000000
0.046888,	0.000229,	0.000000
0.047509,	0.000230,	0.000000
0.048130,	0.000231,	0.000000
0.048751,	0.000231,	0.000000
0.049372,	0.000232,	0.000000
0.049993,	0.000233,	0.000000
0.050614,	0.000234,	0.000000
0.051235,	0.000235,	0.000000
0.051856,	0.000235,	0.000000
0.052477,	0.000236,	0.000000
0.053098,	0.000237,	0.000000
0.053719,	0.000238,	0.000000
0.054340,	0.000239,	0.000000
0.054961,	0.000239,	0.000000
0.055582,	0.000240,	0.000000
0.056203,	0.000241,	0.000000
0.056824,	0.000242,	0.000000
0.057445,	0.000243,	0.000000
0.058066,	0.000244,	0.000000
0.058687,	0.000244,	0.000000
0.059308,	0.000245,	0.000000
0.059929,	0.000246,	0.000000
0.060550,	0.000247,	0.000000
0.061171,	0.000248,	0.000000
0.061792,	0.000248,	0.000000
0.062414,	0.000249,	0.000000
0.063035,	0.000250,	0.000000
0.063656,	0.000251,	0.000000
0.064277,	0.000252,	0.000000
0.064898,	0.000252,	0.000000
0.065519,	0.000253,	0.000000
0.066140,	0.000254,	0.000000
0.066761,	0.000255,	0.000000
0.067382,	0.000256,	0.000000
0.068003,	0.000256,	0.000000
0.068624,	0.000257,	0.000000
0.069245,	0.000258,	0.000000
0.069866,	0.000259,	0.000000
0.070487,	0.000260,	0.000000
0.071108,	0.000260,	0.000000
0.071729,	0.000261,	0.000000
0.072350,	0.000262,	0.000000
0.072971,	0.000263,	0.000000
0.073592,	0.000264,	0.000000
0.074213,	0.000264,	0.000000
0.074834,	0.000265,	0.000000
0.075455,	0.000266,	0.000000
0.076076,	0.000267,	0.000000
0.076697,	0.000268,	0.000000
0.077318,	0.000268,	0.000000
0.077939,	0.000269,	0.000000
0.078560,	0.000270,	0.000000
0.079181,	0.000271,	0.000000
0.079802,	0.000271,	0.000000
0.080423,	0.000272,	0.000000
0.081044,	0.000273,	0.000000
0.081665,	0.000274,	0.000000
0.082286,	0.000275,	0.000000
0.082908,	0.000275,	0.000000
0.083529,	0.000276,	0.000000
0.084150,	0.000277,	0.000000
0.084771,	0.000278,	0.000000
0.085392,	0.000278,	0.000000
0.086013,	0.000279,	0.000000
0.086634,	0.000280,	0.000000
0.087255,	0.000281,	0.000000
0.087876,	0.000282,	0.000000
0.088497,	0.000282,	0.000000
0.089118,	0.000283,	0.000000
0.089739,	0.000284,	0.000000
0.090360,	0.000285,	0.000000
0.090981,	0.000285,	0.000000
0.091602,	0.000286,	0.000000
0.092223,	0.000287,	0.000000
0.092844,	0.000288,	0.000000
0.093465,	0.000288,	0.000000
0.094086,	0.000289,	0.000000
0.094707,	0.000290,	0.000000
0.095328,	0.000291,	0.000000
0.095949,	0.000291,	0.000000
0.096570,	0.000292,	0.000000
0.097191,	0.000293,	0.000000
0.097812,	0.000294,	0.000000
0.098433,	0.000294,	0.000000
0.099054,	0.000295,	0.000000
0.099675,	0.000296,	0.000000
0.100296,	0.000296,	0.000000
0.100917,	0.000297,	0.000000
0.101538,	0.000298,	0.000000
0.102159,	0.000299,	0.000000
0.102780,	0.000299,	0.000000
0.103401,	0.000300,	0.000000
0.104023,	0.000301,	0.000000
0.104644,	0.000301,	0.000000
0.105265,	0.000302,	0.000000
0.105886,	0.000303,	0.000000
0.106507,	0.000304,	0.000000
0.107128,	0.000304,	0.000000
0.107749,	0.000305,	0.000000
0.108370,	0.000306,	0.000000
0.108991,	0.000306,	0.000000
0.109612,	0.000307,	0.000000
0.110233,	0.000308,	0.000000
0.110854,	0.000309,	0.000000
0.111475,	0.000309,	0.000000
0.112096,	0.000310,	0.000000
0.112717,	0.000311,	0.000000
0.113338,	0.000311,	0.000000
0.113959,	0.000312,	0.000000
0.114580,	0.000313,	0.000000
0.115201,	0.000313,	0.000000
0.115822,	0.000314,	0.000000
0.116443,	0.000315,	0.000000
0.117064,	0.000315,	0.000000
0.117685,	0.000316,	0.000000
0.118306,	0.000317,	0.000000
0.118927,	0.000317,	0.000000
0.119548,	0.000318,	0.000000
0.120169,	0.000319,	0.000000
0.120790,	0.000319,	0.000000
0.121411,	0.000320,	0.000000
0.122032,	0.000321,	0.000000
0.122653,	0.000321,	0.000000
0.123274,	0.000322,	0.000000
0.123895,	0.000323,	0.000000
0.000311,	0.000516,	0.000000
0.000932,	0.000518,	0.000000
0.001553,	0.000520,	0.000000
0.002174,	0.000522,	0.000000
0.002795,	0.000524,	0.000000
0.003416,	0.000526,	0.000000
0.004037,	0.000528,	0.000000
0.004658,	0.000530,	0.000000
0.005279,	0.000532,	0.000000
0.005900,	0.000534,	0.000000
0.006521,	0.000536,	0.000000
0.007142,	0.000538,	0.000000
0.007763,	0.000540,	0.000000
0.008384,	0.000542,	0.000000
0.009005,	0.000544,	0.000000
0.009626,	0.000546,	0.000000
0.010247,	0.000548,	0.000000
0.010868,	0.000551,	0.000000
0.011489,	0.000553,	0.000000
0.012110,	0.000555,	0.000000
0.012731,	0.000557,	0.000000
0.013352,	0.000559,	0.000000
0.013973,	0.000562,	0.000000
0.014594,	0.000564,	0.000000
0.015215,	0.000566,	0.000000
0.015836,	0.000568,	0.000000
0.016457,	0.000571,	0.000000
0.017078,	0.000573,	0.000000
0.017699,	0.000575,	0.000000
0.018320,	0.000577,	0.000000
0.018941,	0.000580,	0.000000
0.019562,	0.000582,	0.000000
0.020183,	0.000584,	0.000000
0.020805,	0.000586,	0.000000
0.021426,	0.000589,	0.000000
0.022047,	0.000591,	0.000000
0.022668,	0.000593,	0.000000
0.023289,	0.000596,	0.000000
0.023910,	0.000598,	0.000000
0.024531,	0.000600,	0.000000
0.025152,	0.000603,	0.000000
0.025773,	0.000605,	0.000000
0.026394,	0.000607,	0.000000
0.027015,	0.000610,	0.000000
0.027636,	0.000612,	0.000000
0.028257,	0.000614,	0.000000
0.028878,	0.000617,	0.000000
0.029499,	0.000619,	0.000000
0.030120,	0.000622,	0.000000
0.030741,	0.000624,	0.000000
0.031362,	0.000626,	0.000000
0.031983,	0.000629,	0.000000
0.032604,	0.000631,	0.000000
0.033225,	0.000634,	0.000000
0.033846,	0.000636,	0.000000
0.034467,	0.000638,	0.000000
0.035088,	0.000641,	0.000000
0.035709,	0.000643,	0.000000
0.036330,	0.000646,	0.000000
0.036951,	0.000648,	0.000000
0.037572,	0.000650,	0.000000
0.038193,	0.000653,	0.000000
0.038814,	0.000655,	0.000000
0.039435,	0.000658,	0.000000
0.040056,	0.000660,	0.000000
0.040677,	0.000662,	0.000000
0.041298,	0.000665,	0.000000
0.041920,	0.000667,	0.000000
0.042541,	0.000670,	0.000000
0.043162,	0.000672,	0.000000
0.043783,	0.000675,	0.000000
0.044404,	0.000677,	0.000000
0.045025,	0.000679,	0.000000
0.045646,	0.000682,	0.000000
0.046267,	0.000684,	0.000000
0.046888,	0.000687,	0.000000
0.047509,	0.000689,	0.000000
0.048130,	0.000692,	0.000000
0.048751,	0.000694,	0.000000
0.049372,	0.000697,	0.000000
0.049993,	0.000699,	0.000000
0.050614,	0.000701,	0.000000
0.051235,	0.000704,	0.000000
0.051856,	0.000706,	0.000000
0.052477,	0.000709,	0.000000
0.053098,	0.000711,	0.000000
0.053719,	0.000714,	0.000000
0.054340,	0.000716,	0.000000
0.054961,	0.000718,	0.000000
0.055582,	0.000721,	0.000000
0.056203,	0.000723,	0.000000
0.056824,	0.000726,	0.000000
0.057445,	0.000728,	0.000000
0.058066,	0.000731,	0.000000
0.058687,	0.000733,	0.000000
0.059308,	0.000735,	0.000000
0.059929,	0.000738,	0.000000
0.060550,	0.000740,	0.000000
0.061171,	0.000743,	0.000000
0.061792,	0.000745,	0.000000
0.062414,	0.000748,	0.000000
0.063035,	0.000750,	0.000000
0.063656,	0.000753,	0.000000
0.064277,	0.000755,	0.000000
0.064898,	0.000757,	0.000000
0.065519,	0.000760,	0.000000
0.066140,	0.000762,	0.000000
0.066761,	0.000765,	0.000000
0.067382,	0.000767,	0.000000
0.068003,	0.000769,	0.000000
0.068624,	0.000772,	0.000000
0.069245,	0.000774,	0.000000
0.069866,	0.000777,	0.000000
0.070487,	0.000779,	0.000000
0.071108,	0.000781,	0.000000
0.071729,	0.000784,	0.000000
0.072350,	0.000786,	0.000000
0.072971,	0.000788,	0.000000
0.073592,	0.000791,	0.000000
0.074213,	0.000793,	0.000000
0.074834,	0.000796,	0.000000
0.075455,	0.000798,	0.000000
0.076076,	0.000800,	0.000000
0.076697,	0.000803,	0.000000
0.077318,	0.000805,	0.000000
0.077939,	0.000807,	0.000000
0.078560,	0.000810,	0.000000
0.079181,	0.000812,	0.000000
0.079802,	0.000814,	0.000000
0.080423,	0.000817,	0.000000
0.081044,	0.000819,	0.000000
0.081665,	0.000821,	0.000000
0.082286,	0.000824,	0.000000
0.082908,	0.000826,	0.000000
0.083529,	0.000828,	0.000000
0.084150,	0.000831,	0.000000
0.084771,	0.000833,	0.000000
0.085392,	0.000835,	0.000000
0.086013,	0.000838,	0.000000
0.086634,	0.000840,	0.000000
0.087255,	0.000842,	0.000000
0.087876,	0.000845,	0.000000
0.088497,	0.000847,	0.000000
0.089118,	0.000849,	0.000000
0.089739,	0.000851,	0.000000
0.090360,	0.000854,	0.000000
0.090981,	0.000856,	0.000000
0.091602,	0.000858,	0.000000
0.092223,	0.000860,	0.000000
0.092844,	0.000863,	0.000000
0.093465,	0.000865,	0.000000
0.094086,	0.000867,	0.000000
0.094707,	0.000869,	0.000000
0.095328,	0.000872,	0.000000
0.095949,	0.000874,	0.000000
0.096570,	0.000876,	0.000000
0.097191,	0.000878,	0.000000
0.097812,	0.000881,	0.000000
0.098433,	0.000883,	0.000000
0.099054,	0.000885,	0.000000
0.099675,	0.000887,	0.000000
0.100296,	0.000889,	0.000000
0.100917,	0.000891,	0.000000
0.101538,	0.000894,	0.000000
0.102159,	0.000896,	0.000000
0.102780,	0.000898,	0.000000
0.103401,	0.000900,	0.000000
0.104023,	0.000902,	0.000000
0.104644,	0.000904,	0.000000
0.105265,	0.000907,	0.000000
0.105886,	0.000909,	0.000000
0.106507,	0.000911,	0.000000
0.107128,	0.000913,	0.000000
0.107749,	0.000915,	0.000000
0.108370,	0.000917,	0.000000
0.108991,	0.000919,	0.000000
0.109612,	0.000921,	0.000000
0.110233,	0.000923,	0.000000
0.110854,	0.000926,	0.000000
0.111475,	0.000928,	0.000000
0.112096,	0.000930,	0.000000
0.112717,	0.000932,	0.000000
0.113338,	0.000934,	0.000000
0.113959,	0.000936,	0.000000
0.114580,	0.000938,	0.000000
0.115201,	0.000940,	0.000000
0.115822,	0.000942,	0.000000
0.116443,	0.000944,	0.000000
0.117064,	0.000946,	0.000000
0.117685,	0.000948,	0.000000
0.118306,	0.000950,	0.000000
0.118927,	0.000952,	0.000000
0.119548,	0.000954,	0.000000
0.120169,	0.000956,	0.000000
0.120790,	0.000958,	0.000000
0.121411,	0.000960,	0.000000
0.122032,	0.000962,	0.000000
0.122653,	0.000964,	0.000000
0.123274,	0.000966,	0.000000
0.123895,	0.000968,	0.000000
0.000311,	0.000860,	0.000000
0.000932,	0.000863,	0.000000
0.001553,	0.000866,	0.000000
0.002174,	0.000870,	0.000000
0.002795,	0.000873,	0.000000
0.003416,	0.000876,	0.000000
0.004037,	0.000879,	0.000000
0.004658,	0.000883,	0.000000
0.005279,	0.000886,	0.000000
0.005900,	0.000890,	0.000000
0.006521,	0.000893,	0.000000
0.007142,	0.000897,	0.000000
0.007763,	0.000900,	0.000000
0.008384,	0.000904,	0.000000
0.009005,	0.000907,	0.000000
0.009626,	0.000911,	0.000000
0.010247,	0.000914,	0.000000
0.010868,	0.000918,	0.000000
0.011489,	0.000921,	0.000000
0.012110,	0.000925,	0.000000
0.012731,	0.000929,	0.000000
0.013352,	0.000932,	0.000000
0.013973,	0.000936,	0.000000
0.014594,	0.000940,	0.000000
0.015215,	0.000943,	0.000000
0.015836,	0.000947,	0.000000
0.016457,	0.000951,	0.000000
0.017078,	0.000955,	0.000000
0.017699,	0.000958,	0.000000
0.018320,	0.000962,	0.000000
0.018941,	0.000966,	0.000000
0.019562,	0.000970,	0.000000
0.020183,	0.000974,	0.000000
0.020805,	0.000977,	0.000000
0.021426,	0.000981,	0.000000
0.022047,	0.000985,	0.000000
0.022668,	0.000989,	0.000000
0.023289,	0.000993,	0.000000
0.023910,	0.000997,	0.000000
0.024531,	0.001000,	0.000000
0.025152,	0.001004,	0.000000
0.025773,	0.001008,	0.000000
0.026394,	0.001012,	0.000000
0.027015,	0.001016,	0.000000
0.027636,	0.001020,	0.000000
0.028257,	0.001024,	0.000000
0.028878,	0.001028,	0.000000
0.029499,	0.001032,	0.000000
0.030120,	0.001036,	0.000000
0.030741,	0.001040,	0.000000
0.031362,	0.001044,	0.000000
0.031983,	0.001048,	0.000000
0.032604,	0.001052,	0.000000
0.033225,	0.001056,	0.000000
0.033846,	0.001060,	0.000000
0.034467,	0.001064,	0.000000
0.035088,	0.001068,	0.000000
0.035709,	0.001072,	0.000000
0.036330,	0.001076,	0.000000
0.036951,	0.001080,	0.000000
0.037572,	0.001084,	0.000000
0.038193,	0.001088,	0.000000
0.038814,	0.001092,	0.000000
0.039435,	0.001096,	0.000000
0.040056,	0.001100,	0.000000
0.040677,	0.001104,	0.000000
0.041298,	0.001108,	0.000000
0.041920,	0.001112,	0.000000
0.042541,	0.001116,	0.000000
0.043162,	0.001120,	0.000000
0.043783,	0.001124,	0.000000
0.044404,	0.001128,	0.000000
0.045025,	0.001132,	0.000000
0.045646,	0.001137,	0.000000
0.046267,	0.001141,	0.000000
0.046888,	0.001145,	0.000000
0.047509,	0.001149,	0.000000
0.048130,	0.001153,	0.000000
0.048751,	0.001157,	0.000000
0.049372,	0.001161,	0.000000
0.049993,	0.001165,	0.000000
0.050614,	0.001169,	0.000000
0.051235,	0.001173,	0.000000
0.051856,	0.001177,	0.000000
0.052477,	0.001181,	0.000000
0.053098,	0.001185,	0.000000
0.053719,	0.001189,	0.000000
0.054340,	0.001193,	0.000000
0.054961,	0.001197,	0.000000
0.055582,	0.001201,	0.000000
0.056203,	0.001206,	0.000000
0.056824,	0.001210,	0.000000
0.057445,	0.001214,	0.000000
0.058066,	0.001218,	0.000000
0.058687,	0.001222,	0.000000
0.059308,	0.001226,	0.000000
0.059929,	0.001230,	0.000000
0.060550,	0.001234,	0.000000
0.061171,	0.001238,	0.000000
0.061792,	0.001242,	0.000000
0.062414,	0.001246,	0.000000
0.063035,	0.001250,	0.000000
0.063656,	0.001254,	0.000000
0.064277,	0.001258,	0.000000
0.064898,	0.001262,	0.000000
0.065519,	0.001266,	0.000000
0.066140,	0.001270,	0.000000
0.066761,	0.001274,	0.000000
0.067382,	0.001278,	0.000000
0.068003,	0.001282,	0.000000
0.068624,	0.001286,	0.000000
0.069245,	0.001290,	0.000000
0.069866,	0.001294,	0.000000
0.070487,	0.001298,	0.000000
0.071108,	0.001302,	0.000000
0.071729,	0.001306,	0.000000
0.072350,	0.001310,	0.000000
0.072971,	0.001314,	0.000000
0.073592,	0.001318,	0.000000
0.074213,	0.001322,	0.000000
0.074834,	0.001326,	0.000000
0.075455,	0.001330,	0.000000
0.076076,	0.001334,	0.000000
0.076697,	0.001338,	0.000000
0.077318,	0.001342,	0.000000
0.077939,	0.001346,	0.000000
0.078560,	0.001350,	0.000000
0.079181,	0.001354,	0.000000
0.079802,	0.001357,	0.000000
0.080423,	0.001361,	0.000000
0.081044,	0.001365,	0.000000
0.081665,	0.001369,	0.000000
0.082286,	0.001373,	0.000000
0.082908,	0.001377,	0.000000
0.083529,	0.001381,	0.000000
0.084150,	0.001385,	0.000000
0.084771,	0.001388,	0.000000
0.085392,	0.001392,	0.000000
0.086013,	0.001396,	0.000000
0.086634,	0.001400,	0.000000
0.087255,	0.001404,	0.000000
0.087876,	0.001408,	0.000000
0.088497,	0.001411,	0.000000
0.089118,	0.001415,	0.000000
0.089739,	0.001419,	0.000000
0.090360,	0.001423,	0.000000
0.090981,	0.001426,	0.000000
0.091602,	0.001430,	0.000000
0.092223,	0.001434,	0.000000
0.092844,	0.001438,	0.000000
0.093465,	0.001442,	0.000000
0.094086,	0.001445,	0.000000
0.094707,	0.001449,	0.000000
0.095328,	0.001453,	0.000000
0.095949,	0.001457,	0.000000
0.096570,	0.001460,	0.000000
0.097191,	0.001464,	0.000000
0.097812,	0.001468,	0.000000
0.098433,	0.001471,	0.000000
0.099054,	0.001475,	0.000000
0.099675,	0.001479,	0.000000
0.100296,	0.001482,	0.000000
0.100917,	0.001486,	0.000000
0.101538,	0.001489,	0.000000
0.102159,	0.001493,	0.000000
0.102780,	0.001497,	0.000000
0.103401,	0.001500,	0.000000
0.104023,	0.001504,	0.000000
0.104644,	0.001507,	0.000000
0.105265,	0.001511,	0.000000
0.105886,	0.001514,	0.000000
0.106507,	0.001518,	0.000000
0.107128,	0.001522,	0.000000
0.107749,	0.001525,	0.000000
0.108370,	0.001529,	0.000000
0.108991,	0.001532,	0.000000
0.109612,	0.001536,	0.000000
0.110233,	0.001539,	0.000000
0.110854,	0.001543,	0.000000
0.111475,	0.001546,	0.000000
0.112096,	0.001549,	0.000000
0.112717,	0.001553,	0.000000
0.113338,	0.001556,	0.000000
0.113959,	0.001560,	0.000000
0.114580,	0.001563,	0.000000
0.115201,	0.001566,	0.000000
0.115822,	0.001570,	0.000000
0.116443,	0.001573,	0.000000
0.117064,	0.001577,	0.000000
0.117685,	0.001580,	0.000000
0.118306,	0.001583,	0.000000
0.118927,	0.001587,	0.000000
0.119548,	0.001590,	0.000000
0.120169,	0.001593,	0.000000
0.120790,	0.001596,	0.000000
0.121411,	0.001600,	0.000000
0.122032,	0.001603,	0.000000
0.122653,	0.001606,	0.000000
0.123274,	0.001609,	0.000000
0.123895,	0.001613,	0.000000
0.000311,	0.001204,	0.000000
0.000932,	0.001208,	0.000000
0.001553,	0.001213,	0.000000
0.002174,	0.001217,	0.000000
0.002795,	0.001222,	0.000000
0.003416,	0.001227,	0.000000
0.004037,	0.001231,	0.000000
0.004658,	0.001236,	0.000000
0.005279,	0.001241,	0.000000
0.005900,	0.001246,	0.000000
0.006521,	0.001250,	0.000000
0.007142,	0.001255,	0.000000
0.007763,	0.001260,	0.000000
0.008384,	0.001265,	0.000000
0.009005,	0.001270,	0.000000
0.009626,	0.001275,	0.000000
0.010247,	0.001280,	0.000000
0.010868,	0.001285,	0.000000
0.011489,	0.001290,	0.000000
0.012110,	0.001295,	0.000000
0.012731,	0.001300,	0.000000
0.013352,	0.001305,	0.000000
0.013973,	0.001310,	0.000000
0.014594,	0.001316,	0.000000
0.015215,	0.001321,	0.000000
0.015836,	0.001326,	0.000000
0.016457,	0.001331,	0.000000
0.017078,	0.001337,	0.000000
0.017699,	0.001342,	0.000000
0.018320,	0.001347,	0.000000
0.018941,	0.001352,	0.000000
0.019562,	0.001358,	0.000000
0.020183,	0.001363,	0.000000
0.020805,	0.001368,	0.000000
0.021426,	0.001374,	0.000000
0.022047,	0.001379,	0.000000
0.022668,	0.001384,	0.000000
0.023289,	0.001390,	0.000000
0.023910,	0.001395,	0.000000
0.024531,	0.001401,	0.000000
0.025152,	0.001406,	0.000000
0.025773,	0.001412,	0.000000
0.026394,	0.001417,	0.000000
0.027015,	0.001423,	0.000000
0.027636,	0.001428,	0.000000
0.028257,	0.001434,	0.000000
0.028878,	0.001439,	0.000000
0.029499,	0.001445,	0.000000
0.030120,	0.001450,	0.000000
0.030741,	0.001456,	0.000000
0.031362,	0.001461,	0.000000
0.031983,	0.001467,	0.000000
0.032604,	0.001473,	0.000000
0.033225,	0.001478,	0.000000
0.033846,	0.001484,	0.000000
0.034467,	0.001489,	0.000000
0.035088,	0.001495,	0.000000
0.035709,	0.001501,	0.000000
0.036330,	0.001506,	0.000000
0.036951,	0.001512,	0.000000
0.037572,	0.001517,	0.000000
0.038193,	0.001523,	0.000000
0.038814,	0.001529,	0.000000
0.039435,	0.001534,	0.000000
0.040056,	0.001540,	0.000000
0.040677,	0.001546,	0.000000
0.041298,	0.001551,	0.000000
0.041920,	0.001557,	0.000000
0.042541,	0.001563,	0.000000
0.043162,	0.001568,	0.000000
0.043783,	0.001574,	0.000000
0.044404,	0.001580,	0.000000
0.045025,	0.001585,	0.000000
0.045646,	0.001591,	0.000000
0.046267,	0.001597,	0.000000
0.046888,	0.001603,	0.000000
0.047509,	0.001608,	0.000000
0.048130,	0.001614,	0.000000
0.048751,	0.001620,	0.000000
0.049372,	0.001625,	0.000000
0.049993,	0.001631,	0.000000
0.050614,	0.001637,	0.000000
0.051235,	0.001642,	0.000000
0.051856,	0.001648,	0.000000
0.052477,	0.001654,	0.000000
0.053098,	0.001659,	0.000000
0.053719,	0.001665,	0.000000
0.054340,	0.001671,	0.000000
0.054961,	0.001676,	0.000000
0.055582,	0.001682,	0.000000
0.056203,	0.001688,	0.000000
0.056824,	0.001693,	0.000000
0.057445,	0.001699,	0.000000
0.058066,	0.001705,	0.000000
0.058687,	0.001710,	0.000000
0.059308,	0.001716,	0.000000
0.059929,	0.001722,	0.000000
0.060550,	0.001727,	0.000000
0.061171,	0.001733,	0.000000
0.061792,	0.001739,	0.000000
0.062414,	0.001745,	0.000000
0.063035,	0.001750,	0.000000
0.063656,	0.001756,	0.000000
0.064277,	0.001762,	0.000000
0.064898,	0.001767,	0.000000
0.065519,	0.001773,	0.000000
0.066140,	0.001778,	0.000000
0.066761,	0.001784,	0.000000
0.067382,	0.001790,	0.000000
0.068003,	0.001795,	0.000000
0.068624,	0.001801,	0.000000
0.069245,	0.001806,	0.000000
0.069866,	0.001812,	0.000000
0.070487,	0.001817,	0.000000
0.071108,	0.001823,	0.000000
0.071729,	0.001829,	0.000000
0.072350,	0.001834,	0.000000
0.072971,	0.001840,	0.000000
0.073592,	0.001845,	0.000000
0.074213,	0.001851,	0.000000
0.074834,	0.001856,	0.000000
0.075455,	0.001862,	0.000000
0.076076,	0.001867,	0.000000
0.076697,	0.001873,	0.000000
0.077318,	0.001878,	0.000000
0.077939,	0.001884,	0.000000
0.078560,	0.001889,	0.000000
0.079181,	0.001895,	0.000000
0.079802,	0.001900,	0.000000
0.080423,	0.001906,	0.000000
0.081044,	0.001911,	0.000000
0.081665,	0.001917,	0.000000
0.082286,	0.001922,	0.000000
0.082908,	0.001928,	0.000000
0.083529,	0.001933,	0.000000
0.084150,	0.001938,	0.000000
0.084771,	0.001944,	0.000000
0.085392,	0.001949,	0.000000
0.086013,	0.001955,	0.000000
0.086634,	0.001960,	0.000000
0.087255,	0.001965,	0.000000
0.087876,	0.001971,	0.000000
0.088497,	0.001976,	0.000000
0.089118,	0.001981,	0.000000
0.089739,	0.001986,	0.000000
0.090360,	0.001992,	0.000000
0.090981,	0.001997,	0.000000
0.091602,	0.002002,	0.000000
0.092223,	0.002008,	0.000000
0.092844,	0.002013,	0.000000
0.093465,	0.002018,	0.000000
0.094086,	0.002023,	0.000000
0.094707,	0.002029,	0.000000
0.095328,	0.002034,	0.000000
0.095949,	0.002039,	0.000000
0.096570,	0.002044,	0.000000
0.097191,	0.002049,	0.000000
0.097812,	0.002055,	0.000000
0.098433,	0.002060,	0.000000
0.099054,	0.002065,	0.000000
0.099675,	0.002070,	0.000000
0.100296,	0.002075,	0.000000
0.100917,	0.002080,	0.000000
0.101538,	0.002085,	0.000000
0.102159,	0.002090,	0.000000
0.102780,	0.002095,	0.000000
0.103401,	0.002100,	0.000000
0.104023,	0.002105,	0.000000
0.104644,	0.002110,	0.000000
0.105265,	0.002115,	0.000000
0.105886,	0.002120,	0.000000
0.106507,	0.002125,	0.000000
0.107128,	0.002130,	0.000000
0.107749,	0.002135,	0.000000
0.108370,	0.002140,	0.000000
0.108991,	0.002145,	0.000000
0.109612,	0.002150,	0.000000
0.110233,	0.002155,	0.000000
0.110854,	0.002160,	0.000000
0.111475,	0.002164,	0.000000
0.112096,	0.002169,	0.000000
0.112717,	0.002174,	0.000000
0.113338,	0.002179,	0.000000
0.113959,	0.002184,	0.000000
0.114580,	0.002188,	0.000000
0.115201,	0.002193,	0.000000
0.115822,	0.002198,	0.000000
0.116443,	0.002203,	0.000000
0.117064,	0.002207,	0.000000
0.117685,	0.002212,	0.000000
0.118306,	0.002216,	0.000000
0.118927,	0.002221,	0.000000
0.119548,	0.002226,	0.000000
0.120169,	0.002230,	0.000000
0.120790,	0.002235,	0.000000
0.121411,	0.002239,	0.000000
0.122032,	0.002244,	0.000000
0.122653,	0.002249,	0.000000
0.123274,	0.002253,	0.000000
0.123895,	0.002258,	0.000000
0.000311,	0.001548,	0.000000
0.000932,	0.001553,	0.000000
0.001553,	0.001559,	0.000000
0.002174,	0.001565,	0.000000
0.002795,	0.001571,	0.000000
0.003416,	0.001577,	0.000000
0.004037,	0.001583,	0.000000
0.004658,	0.001589,	0.000000
0.005279,	0.001595,	0.000000
0.005900,	0.001601,	0.000000
0.006521,	0.001608,	0.000000
0.007142,	0.001614,	0.000000
0.007763,	0.001620,	0.000000
0.008384,	0.001626,	0.000000
0.009005,	0.001633,	0.000000
0.009626,	0.001639,	0.000000
0.010247,	0.001645,	0.000000
0.010868,	0.001652,	0.000000
0.011489,	0.001658,	0.000000
0.012110,	0.001665,	0.000000
0.012731,	0.001672,	0.000000
0.013352,	0.001678,	0.000000
0.013973,	0.001685,	0.000000
0.014594,	0.001691,	0.000000
0.015215,	0.001698,	0.000000
0.015836,	0.001705,	0.000000
0.016457,	0.001712,	0.000000
0.017078,	0.001718,	0.000000
0.017699,	0.001725,	0.000000
0.018320,	0.001732,	0.000000
0.018941,	0.001739,	0.000000
0.019562,	0.001746,	0.000000
0.020183,	0.001752,	0.000000
0.020805,	0.001759,	0.000000
0.021426,	0.001766,	0.000000
0.022047,	0.001773,	0.000000
0.022668,	0.001780,	0.000000
0.023289,	0.001787,	0.000000
0.023910,	0.001794,	0.000000
0.024531,	0.001801,	0.000000
0.025152,	0.001808,	0.000000
0.025773,	0.001815,	0.000000
0.026394,	0.001822,	0.000000
0.027015,	0.001829,	0.000000
0.027636,	0.001836,	0.000000
0.028257,	0.001843,	0.000000
0.028878,	0.001850,	0.000000
0.029499,	0.001858,	0.000000
0.030120,	0.001865,	0.000000
0.030741,	0.001872,	0.000000
0.031362,	0.001879,	0.000000
0.031983,	0.001886,	0.000000
0.032604,	0.001893,	0.000000
0.033225,	0.001901,	0.000000
0.033846,	0.001908,	0.000000
0.034467,	0.001915,	0.000000
0.035088,	0.001922,	0.000000
0.035709,	0.001929,	0.000000
0.036330,	0.001937,	0.000000
0.036951,	0.001944,	0.000000
0.037572,	0.001951,	0.000000
0.038193,	0.001958,	0.000000
0.038814,	0.001966,	0.000000
0.039435,	0.001973,	0.000000
0.040056,	0.001980,	0.000000
0.040677,	0.001987,	0.000000
0.041298,	0.001995,	0.000000
0.041920,	0.002002,	0.000000
0.042541,	0.002009,	0.000000
0.043162,	0.002016,	0.000000
0.043783,	0.002024,	0.000000
0.044404,	0.002031,	0.000000
0.045025,	0.002038,	0.000000
0.045646,	0.002046,	0.000000
0.046267,	0.002053,	0.000000
0.046888,	0.002060,	0.000000
0.047509,	0.002068,	0.000000
0.048130,	0.002075,	0.000000
0.048751,	0.002082,	0.000000
0.049372,	0.002090,	0.000000
0.049993,	0.002097,	0.000000
0.050614,	0.002104,	0.000000
0.051235,	0.002112,	0.000000
0.051856,	0.002119,	0.000000
0.052477,	0.002126,	0.000000
0.053098,	0.002134,	0.000000
0.053719,	0.002141,	0.000000
0.054340,	0.002148,	0.000000
0.054961,	0.002155,	0.000000
0.055582,	0.002163,	0.000000
0.056203,	0.002170,	0.000000
0.056824,	0.002177,	0.000000
0.057445,	0.002185,	0.000000
0.058066,	0.002192,	0.000000
0.058687,	0.002199,	0.000000
0.059308,	0.002206,	0.000000
0.059929,	0.002214,	0.000000
0.060550,	0.002221,	0.000000
0.061171,	0.002228,	0.000000
0.061792,	0.002236,	0.000000
0.062414,	0.002243,	0.000000
0.063035,	0.002250,	0.000000
0.063656,	0.002258,	0.000000
0.064277,	0.002265,	0.000000
0.064898,	0.002272,	0.000000
0.065519,	0.002279,	0.000000
0.066140,	0.002286,	0.000000
0.066761,	0.002294,	0.000000
0.067382,	0.002301,	0.000000
0.068003,	0.002308,	0.000000
0.068624,	0.002315,	0.000000
0.069245,	0.002322,	0.000000
0.069866,	0.002330,	0.000000
0.070487,	0.002337,	0.000000
0.071108,	0.002344,	0.000000
0.071729,	0.002351,	0.000000
0.072350,	0.002358,	0.000000
0.072971,	0.002365,	0.000000
0.073592,	0.002372,	0.000000
0.074213,	0.002380,	0.000000
0.074834,	0.002387,	0.000000
0.075455,	0.002394,	0.000000
0.076076,	0.002401,	0.000000
0.076697,	0.002408,	0.000000
0.077318,	0.002415,	0.000000
0.077939,	0.002422,	0.000000
0.078560,	0.002429,	0.000000
0.079181,	0.002436,	0.000000
0.079802,	0.002443,	0.000000
0.080423,	0.002450,	0.000000
0.081044,	0.002457,	0.000000
0.081665,	0.002464,	0.000000
0.082286,	0.002471,	0.000000
0.082908,	0.002478,	0.000000
0.083529,	0.002485,	0.000000
0.084150,	0.002492,	0.000000
0.084771,	0.002499,	0.000000
0.085392,	0.002506,	0.000000
0.086013,	0.002513,	0.000000
0.086634,	0.002520,	0.000000
0.087255,	0.002527,	0.000000
0.087876,	0.002534,	0.000000
0.088497,	0.002540,	0.000000
0.089118,	0.002547,	0.000000
0.089739,	0.002554,	0.000000
0.090360,	0.002561,	0.000000
0.090981,	0.002568,	0.000000
0.091602,	0.002574,	0.000000
0.092223,	0.002581,	0.000000
0.092844,	0.002588,	0.000000
0.093465,	0.002595,	0.000000
0.094086,	0.002602,	0.000000
0.094707,	0.002608,	0.000000
0.095328,	0.002615,	0.000000
0.095949,	0.002622,	0.000000
0.096570,	0.002628,	0.000000
0.097191,	0.002635,	0.000000
0.097812,	0.002642,	0.000000
0.098433,	0.002648,	0.000000
0.099054,	0.002655,	0.000000
0.099675,	0.002661,	0.000000
0.100296,	0.002668,	0.000000
0.100917,	0.002674,	0.000000
0.101538,	0.002681,	0.000000
0.102159,	0.002687,	0.000000
0.102780,	0.002694,	0.000000
0.103401,	0.002700,	0.000000
0.104023,	0.002707,	0.000000
0.104644,	0.002713,	0.000000
0.105265,	0.002720,	0.000000
0.105886,	0.002726,	0.000000
0.106507,	0.002732,	0.000000
0.107128,	0.002739,	0.000000
0.107749,	0.002745,	0.000000
0.108370,	0.002751,	0.000000
0.108991,	0.002758,	0.000000
0.109612,	0.002764,	0.000000
0.110233,	0.002770,	0.000000
0.110854,	0.002777,	0.000000
0.111475,	0.002783,	0.000000
0.112096,	0.002789,	0.000000
0.112717,	0.002795,	0.000000
0.113338,	0.002801,	0.000000
0.113959,	0.002808,	0.000000
0.114580,	0.002814,	0.000000
0.115201,	0.002820,	0.000000
0.115822,	0.002826,	0.000000
0.116443,	0.002832,	0.000000
0.117064,	0.002838,	0.000000
0.117685,	0.002844,	0.000000
0.118306,	0.002850,	0.000000
0.118927,	0.002856,	0.000000
0.119548,	0.002862,	0.000000
0.120169,	0.002868,	0.000000
0.120790,	0.002873,	0.000000
0.121411,	0.002879,	0.000000
0.122032,	0.002885,	0.000000
0.122653,	0.002891,	0.000000
0.123274,	0.002897,	0.000000
0.123895,	0.002903,	0.000000
0.000311,	0.001891,	0.000000
0.000932,	0.001899,	0.000000
0.001553,	0.001906,	0.000000
0.002174,	0.001913,	0.000000
0.002795,	0.001920,	0.000000
0.003416,	0.001928,	0.000000
0.004037,	0.001935,	0.000000
0.004658,	0.001942,	0.000000
0.005279,	0.001950,	0.000000
0.005900,	0.001957,	0.000000
0.006521,	0.001965,	0.000000
0.007142,	0.001972,	0.000000
0.007763,	0.001980,	0.000000
0.008384,	0.001988,	0.000000
0.009005,	0.001995,	0.000000
0.009626,	0.002003,	0.000000
0.010247,	0.002011,	0.000000
0.010868,	0.002019,	0.000000
0.011489,	0.002027,	0.000000
0.012110,	0.002035,	0.000000
0.012731,	0.002043,	0.000000
0.013352,	0.002051,	0.000000
0.013973,	0.002059,	0.000000
0.014594,	0.002067,	0.000000
0.015215,	0.002076,	0.000000
0.015836,	0.002084,	0.000000
0.016457,	0.002092,	0.000000
0.017078,	0.002100,	0.000000
0.017699,	0.002109,	0.000000
0.018320,	0.002117,	0.000000
0.018941,	0.002125,	0.000000