TITLE = "MeshVolumeStats"
VARIABLES = "X", "Y", "VOL"
ZONE I=75, J=14, DATAPACKING=POINT
0.261076,	0.025925,	0.000001
0.263381,	0.025964,	0.000001
0.265706,	0.026004,	0.000001
0.268052,	0.026045,	0.000001
0.270419,	0.026085,	0.000001
0.272807,	0.026126,	0.000001
0.275216,	0.026168,	0.000001
0.277647,	0.026209,	0.000001
0.280099,	0.026252,	0.000001
0.282574,	0.026294,	0.000001
0.285071,	0.026337,	0.000001
0.287591,	0.026380,	0.000001
0.290133,	0.026424,	0.000001
0.292698,	0.026468,	0.000001
0.295286,	0.026513,	0.000001
0.297898,	0.026557,	0.000001
0.300534,	0.026603,	0.000001
0.303193,	0.026648,	0.000001
0.305877,	0.026695,	0.000001
0.308586,	0.026741,	0.000001
0.311319,	0.026788,	0.000001
0.314077,	0.026836,	0.000001
0.316860,	0.026883,	0.000001
0.319669,	0.026932,	0.000001
0.322504,	0.026980,	0.000002
0.325365,	0.027030,	0.000002
0.328252,	0.027079,	0.000002
0.331166,	0.027129,	0.000002
0.334107,	0.027180,	0.000002
0.337075,	0.027231,	0.000002
0.340071,	0.027282,	0.000002
0.343094,	0.027334,	0.000002
0.346145,	0.027387,	0.000002
0.349225,	0.027440,	0.000002
0.352334,	0.027493,	0.000002
0.355471,	0.027547,	0.000002
0.358638,	0.027601,	0.000002
0.361834,	0.027656,	0.000002
0.365060,	0.027712,	0.000002
0.368316,	0.027768,	0.000002
0.371603,	0.027824,	0.000002
0.374920,	0.027881,	0.000002
0.378268,	0.027939,	0.000002
0.381648,	0.027997,	0.000002
0.385060,	0.028055,	0.000002
0.388504,	0.028115,	0.000002
0.391980,	0.028174,	0.000002
0.395489,	0.028235,	0.000002
0.399031,	0.028295,	0.000002
0.402607,	0.028357,	0.000002
0.406216,	0.028419,	0.000002
0.409859,	0.028482,	0.000002
0.413537,	0.028545,	0.000002
0.417250,	0.028609,	0.000002
0.420998,	0.028673,	0.000002
0.424781,	0.028738,	0.000002
0.428600,	0.028804,	0.000002
0.432456,	0.028870,	0.000002
0.436348,	0.028937,	0.000002
0.440277,	0.029004,	0.000002
0.444243,	0.029072,	0.000002
0.448247,	0.029141,	0.000002
0.452290,	0.029211,	0.000002
0.456370,	0.029281,	0.000002
0.460490,	0.029352,	0.000002
0.464649,	0.029423,	0.000002
0.468848,	0.029495,	0.000003
0.473087,	0.029568,	0.000003
0.477366,	0.029642,	0.000003
0.481686,	0.029716,	0.000003
0.486048,	0.029791,	0.000003
0.490451,	0.029866,	0.000003
0.494897,	0.029943,	0.000003
0.499385,	0.030020,	0.000003
0.503916,	0.030098,	0.000003
0.261072,	0.026419,	0.000001
0.263377,	0.026460,	0.000001
0.265702,	0.026501,	0.000001
0.268048,	0.026542,	0.000001
0.270415,	0.026584,	0.000001
0.272803,	0.026627,	0.000001
0.275212,	0.026669,	0.000001
0.277643,	0.026712,	0.000001
0.280096,	0.026755,	0.000001
0.282570,	0.026799,	0.000001
0.285067,	0.026843,	0.000001
0.287587,	0.026888,	0.000001
0.290129,	0.026933,	0.000001
0.292694,	0.026978,	0.000001
0.295282,	0.027024,	0.000001
0.297894,	0.027070,	0.000001
0.300530,	0.027117,	0.000001
0.303189,	0.027164,	0.000001
0.305873,	0.027211,	0.000001
0.308582,	0.027259,	0.000001
0.311315,	0.027307,	0.000001
0.314073,	0.027356,	0.000001
0.316856,	0.027405,	0.000001
0.319665,	0.027455,	0.000001
0.322500,	0.027505,	0.000001
0.325361,	0.027556,	0.000002
0.328248,	0.027607,	0.000002
0.331162,	0.027658,	0.000002
0.334103,	0.027710,	0.000002
0.337071,	0.027762,	0.000002
0.340067,	0.027815,	0.000002
0.343090,	0.027869,	0.000002
0.346141,	0.027923,	0.000002
0.349221,	0.027977,	0.000002
0.352329,	0.028032,	0.000002
0.355467,	0.028088,	0.000002
0.358633,	0.028144,	0.000002
0.361829,	0.028200,	0.000002
0.365055,	0.028257,	0.000002
0.368312,	0.028315,	0.000002
0.371598,	0.028373,	0.000002
0.374916,	0.028431,	0.000002
0.378264,	0.028490,	0.000002
0.381644,	0.028550,	0.000002
0.385056,	0.028611,	0.000002
0.388500,	0.028671,	0.000002
0.391976,	0.028733,	0.000002
0.395485,	0.028795,	0.000002
0.399027,	0.028857,	0.000002
0.402602,	0.028921,	0.000002
0.406212,	0.028984,	0.000002
0.409855,	0.029049,	0.000002
0.413533,	0.029114,	0.000002
0.417245,	0.029179,	0.000002
0.420993,	0.029246,	0.000002
0.424776,	0.029312,	0.000002
0.428596,	0.029380,	0.000002
0.432451,	0.029448,	0.000002
0.436343,	0.029517,	0.000002
0.440272,	0.029586,	0.000002
0.444239,	0.029656,	0.000002
0.448243,	0.029727,	0.000002
0.452285,	0.029799,	0.000002
0.456366,	0.029871,	0.000002
0.460486,	0.029943,	0.000002
0.464645,	0.030017,	0.000002
0.468843,	0.030091,	0.000003
0.473082,	0.030166,	0.000003
0.477361,	0.030242,	0.000003
0.481682,	0.030318,	0.000003
0.486043,	0.030395,	0.000003
0.490447,	0.030473,	0.000003
0.494892,	0.030551,	0.000003
0.499380,	0.030631,	0.000003
0.503912,	0.030711,	0.000003
0.261070,	0.026908,	0.000001
0.263375,	0.026950,	0.000001
0.265700,	0.026992,	0.000001
0.268046,	0.027035,	0.000001
0.270413,	0.027078,	0.000001
0.272801,	0.027121,	0.000001
0.275210,	0.027165,	0.000001
0.277641,	0.027209,	0.000001
0.280094,	0.027254,	0.000001
0.282568,	0.027299,	0.000001
0.285065,	0.027344,	0.000001
0.287585,	0.027390,	0.000001
0.290127,	0.027436,	0.000001
0.292692,	0.027483,	0.000001
0.295280,	0.027530,	0.000001
0.297892,	0.027577,	0.000001
0.300528,	0.027625,	0.000001
0.303188,	0.027674,	0.000001
0.305871,	0.027722,	0.000001
0.308580,	0.027772,	0.000001
0.311313,	0.027821,	0.000001
0.314071,	0.027871,	0.000001
0.316854,	0.027922,	0.000001
0.319663,	0.027973,	0.000001
0.322498,	0.028025,	0.000001
0.325359,	0.028077,	0.000001
0.328246,	0.028129,	0.000002
0.331160,	0.028182,	0.000002
0.334101,	0.028235,	0.000002
0.337069,	0.028289,	0.000002
0.340065,	0.028344,	0.000002
0.343088,	0.028399,	0.000002
0.346139,	0.028454,	0.000002
0.349219,	0.028510,	0.000002
0.352327,	0.028567,	0.000002
0.355465,	0.028624,	0.000002
0.358631,	0.028681,	0.000002
0.361827,	0.028739,	0.000002
0.365053,	0.028798,	0.000002
0.368310,	0.028857,	0.000002
0.371596,	0.028917,	0.000002
0.374914,	0.028977,	0.000002
0.378262,	0.029038,	0.000002
0.381642,	0.029099,	0.000002
0.385054,	0.029161,	0.000002
0.388498,	0.029224,	0.000002
0.391974,	0.029287,	0.000002
0.395483,	0.029351,	0.000002
0.399025,	0.029415,	0.000002
0.402600,	0.029480,	0.000002
0.406210,	0.029545,	0.000002
0.409853,	0.029612,	0.000002
0.413531,	0.029678,	0.000002
0.417243,	0.029746,	0.000002
0.420991,	0.029814,	0.000002
0.424774,	0.029883,	0.000002
0.428593,	0.029952,	0.000002
0.432449,	0.030022,	0.000002
0.436341,	0.030093,	0.000002
0.440270,	0.030164,	0.000002
0.444236,	0.030236,	0.000002
0.448241,	0.030309,	0.000002
0.452283,	0.030382,	0.000002
0.456364,	0.030456,	0.000002
0.460483,	0.030531,	0.000002
0.464642,	0.030607,	0.000002
0.468841,	0.030683,	0.000002
0.473080,	0.030760,	0.000003
0.477359,	0.030838,	0.000003
0.481680,	0.030916,	0.000003
0.486041,	0.030995,	0.000003
0.490445,	0.031075,	0.000003
0.494890,	0.031156,	0.000003
0.499378,	0.031238,	0.000003
0.503910,	0.031320,	0.000003
0.261070,	0.027392,	0.000001
0.263374,	0.027435,	0.000001
0.265700,	0.027478,	0.000001
0.268046,	0.027522,	0.000001
0.270412,	0.027566,	0.000001
0.272800,	0.027611,	0.000001
0.275209,	0.027656,	0.000001
0.277640,	0.027701,	0.000001
0.280093,	0.027747,	0.000001
0.282568,	0.027793,	0.000001
0.285064,	0.027840,	0.000001
0.287584,	0.027887,	0.000001
0.290126,	0.027934,	0.000001
0.292691,	0.027982,	0.000001
0.295280,	0.028030,	0.000001
0.297891,	0.028079,	0.000001
0.300527,	0.028128,	0.000001
0.303187,	0.028178,	0.000001
0.305871,	0.028228,	0.000001
0.308579,	0.028279,	0.000001
0.311312,	0.028330,	0.000001
0.314070,	0.028381,	0.000001
0.316854,	0.028433,	0.000001
0.319663,	0.028486,	0.000001
0.322497,	0.028539,	0.000001
0.325358,	0.028592,	0.000001
0.328245,	0.028646,	0.000001
0.331159,	0.028700,	0.000002
0.334100,	0.028755,	0.000002
0.337068,	0.028811,	0.000002
0.340064,	0.028867,	0.000002
0.343087,	0.028923,	0.000002
0.346138,	0.028980,	0.000002
0.349218,	0.029038,	0.000002
0.352326,	0.029096,	0.000002
0.355464,	0.029154,	0.000002
0.358630,	0.029213,	0.000002
0.361826,	0.029273,	0.000002
0.365052,	0.029333,	0.000002
0.368309,	0.029394,	0.000002
0.371595,	0.029455,	0.000002
0.374913,	0.029517,	0.000002
0.378261,	0.029580,	0.000002
0.381641,	0.029643,	0.000002
0.385053,	0.029707,	0.000002
0.388497,	0.029771,	0.000002
0.391973,	0.029836,	0.000002
0.395482,	0.029901,	0.000002
0.399024,	0.029967,	0.000002
0.402599,	0.030034,	0.000002
0.406209,	0.030102,	0.000002
0.409852,	0.030170,	0.000002
0.413530,	0.030238,	0.000002
0.417242,	0.030307,	0.000002
0.420990,	0.030377,	0.000002
0.424773,	0.030448,	0.000002
0.428593,	0.030519,	0.000002
0.432448,	0.030591,	0.000002
0.436340,	0.030664,	0.000002
0.440269,	0.030737,	0.000002
0.444236,	0.030811,	0.000002
0.448240,	0.030886,	0.000002
0.452282,	0.030961,	0.000002
0.456363,	0.031038,	0.000002
0.460483,	0.031115,	0.000002
0.464642,	0.031192,	0.000002
0.468840,	0.031270,	0.000002
0.473079,	0.031350,	0.000003
0.477359,	0.031429,	0.000003
0.481679,	0.031510,	0.000003
0.486040,	0.031591,	0.000003
0.490444,	0.031674,	0.000003
0.494889,	0.031757,	0.000003
0.499378,	0.031840,	0.000003
0.503909,	0.031925,	0.000003
0.261069,	0.027869,	0.000001
0.263374,	0.027913,	0.000001
0.265699,	0.027958,	0.000001
0.268045,	0.028003,	0.000001
0.270412,	0.028048,	0.000001
0.272800,	0.028094,	0.000001
0.275209,	0.028140,	0.000001
0.277640,	0.028187,	0.000001
0.280093,	0.028234,	0.000001
0.282567,	0.028281,	0.000001
0.285064,	0.028329,	0.000001
0.287584,	0.028378,	0.000001
0.290126,	0.028426,	0.000001
0.292691,	0.028476,	0.000001
0.295279,	0.028525,	0.000001
0.297891,	0.028575,	0.000001
0.300527,	0.028626,	0.000001
0.303186,	0.028677,	0.000001
0.305870,	0.028728,	0.000001
0.308578,	0.028780,	0.000001
0.311312,	0.028833,	0.000001
0.314070,	0.028886,	0.000001
0.316853,	0.028939,	0.000001
0.319662,	0.028993,	0.000001
0.322497,	0.029047,	0.000001
0.325358,	0.029102,	0.000001
0.328245,	0.029158,	0.000001
0.331159,	0.029213,	0.000001
0.334100,	0.029270,	0.000002
0.337068,	0.029327,	0.000002
0.340063,	0.029384,	0.000002
0.343087,	0.029442,	0.000002
0.346138,	0.029501,	0.000002
0.349218,	0.029560,	0.000002
0.352326,	0.029619,	0.000002
0.355463,	0.029680,	0.000002
0.358630,	0.029740,	0.000002
0.361826,	0.029802,	0.000002
0.365052,	0.029863,	0.000002
0.368308,	0.029926,	0.000002
0.371595,	0.029989,	0.000002
0.374912,	0.030053,	0.000002
0.378261,	0.030117,	0.000002
0.381641,	0.030182,	0.000002
0.385052,	0.030247,	0.000002
0.388496,	0.030313,	0.000002
0.391973,	0.030380,	0.000002
0.395481,	0.030447,	0.000002
0.399023,	0.030515,	0.000002
0.402599,	0.030583,	0.000002
0.406208,	0.030653,	0.000002
0.409852,	0.030722,	0.000002
0.413529,	0.030793,	0.000002
0.417242,	0.030864,	0.000002
0.420990,	0.030936,	0.000002
0.424773,	0.031009,	0.000002
0.428592,	0.031082,	0.000002
0.432448,	0.031156,	0.000002
0.436340,	0.031230,	0.000002
0.440269,	0.031306,	0.000002
0.444235,	0.031382,	0.000002
0.448239,	0.031458,	0.000002
0.452282,	0.031536,	0.000002
0.456363,	0.031614,	0.000002
0.460482,	0.031693,	0.000002
0.464641,	0.031773,	0.000002
0.468840,	0.031853,	0.000002
0.473079,	0.031935,	0.000002
0.477358,	0.032017,	0.000003
0.481679,	0.032099,	0.000003
0.486040,	0.032183,	0.000003
0.490444,	0.032267,	0.000003
0.494889,	0.032353,	0.000003
0.499377,	0.032439,	0.000003
0.503909,	0.032525,	0.000003
0.261069,	0.028341,	0.000001
0.263374,	0.028386,	0.000001
0.265699,	0.028432,	0.000001
0.268045,	0.028478,	0.000001
0.270412,	0.028525,	0.000001
0.272800,	0.028572,	0.000001
0.275209,	0.028619,	0.000001
0.277640,	0.028667,	0.000001
0.280092,	0.028715,	0.000001
0.282567,	0.028764,	0.000001
0.285064,	0.028813,	0.000001
0.287583,	0.028863,	0.000001
0.290125,	0.028913,	0.000001
0.292691,	0.028964,	0.000001
0.295279,	0.029015,	0.000001
0.297891,	0.029066,	0.000001
0.300526,	0.029118,	0.000001
0.303186,	0.029170,	0.000001
0.305870,	0.029223,	0.000001
0.308578,	0.029277,	0.000001
0.311311,	0.029330,	0.000001
0.314070,	0.029385,	0.000001
0.316853,	0.029439,	0.000001
0.319662,	0.029495,	0.000001
0.322497,	0.029551,	0.000001
0.325358,	0.029607,	0.000001
0.328245,	0.029664,	0.000001
0.331159,	0.029721,	0.000001
0.334100,	0.029779,	0.000001
0.337068,	0.029838,	0.000002
0.340063,	0.029897,	0.000002
0.343086,	0.029956,	0.000002
0.346138,	0.030016,	0.000002
0.349217,	0.030077,	0.000002
0.352326,	0.030138,	0.000002
0.355463,	0.030200,	0.000002
0.358630,	0.030262,	0.000002
0.361826,	0.030325,	0.000002
0.365052,	0.030389,	0.000002
0.368308,	0.030453,	0.000002
0.371595,	0.030517,	0.000002
0.374912,	0.030583,	0.000002
0.378261,	0.030649,	0.000002
0.381641,	0.030715,	0.000002
0.385052,	0.030782,	0.000002
0.388496,	0.030850,	0.000002
0.391972,	0.030919,	0.000002
0.395481,	0.030988,	0.000002
0.399023,	0.031057,	0.000002
0.402599,	0.031128,	0.000002
0.406208,	0.031199,	0.000002
0.409851,	0.031271,	0.000002
0.413529,	0.031343,	0.000002
0.417242,	0.031416,	0.000002
0.420990,	0.031490,	0.000002
0.424773,	0.031564,	0.000002
0.428592,	0.031640,	0.000002
0.432448,	0.031715,	0.000002
0.436340,	0.031792,	0.000002
0.440269,	0.031869,	0.000002
0.444235,	0.031947,	0.000002
0.448239,	0.032026,	0.000002
0.452282,	0.032106,	0.000002
0.456363,	0.032186,	0.000002
0.460482,	0.032267,	0.000002
0.464641,	0.032349,	0.000002
0.468840,	0.032432,	0.000002
0.473079,	0.032515,	0.000002
0.477358,	0.032599,	0.000002
0.481679,	0.032684,	0.000003
0.486040,	0.032770,	0.000003
0.490444,	0.032857,	0.000003
0.494889,	0.032944,	0.000003
0.499377,	0.033033,	0.000003
0.503909,	0.033122,	0.000003
0.261069,	0.028807,	0.000001
0.263374,	0.028854,	0.000001
0.265699,	0.028901,	0.000001
0.268045,	0.028948,	0.000001
0.270412,	0.028996,	0.000001
0.272800,	0.029045,	0.000001
0.275209,	0.029093,	0.000001
0.277640,	0.029142,	0.000001
0.280092,	0.029192,	0.000001
0.282567,	0.029242,	0.000001
0.285064,	0.029293,	0.000001
0.287583,	0.029343,	0.000001
0.290125,	0.029395,	0.000001
0.292690,	0.029447,	0.000001
0.295279,	0.029499,	0.000001
0.297891,	0.029552,	0.000001
0.300526,	0.029605,	0.000001
0.303186,	0.029659,	0.000001
0.305870,	0.029713,	0.000001
0.308578,	0.029768,	0.000001
0.311311,	0.029823,	0.000001
0.314069,	0.029879,	0.000001
0.316853,	0.029935,	0.000001
0.319662,	0.029992,	0.000001
0.322497,	0.030049,	0.000001
0.325357,	0.030107,	0.000001
0.328245,	0.030165,	0.000001
0.331159,	0.030224,	0.000001
0.334099,	0.030284,	0.000001
0.337067,	0.030344,	0.000002
0.340063,	0.030404,	0.000002
0.343086,	0.030465,	0.000002
0.346138,	0.030527,	0.000002
0.349217,	0.030589,	0.000002
0.352326,	0.030652,	0.000002
0.355463,	0.030715,	0.000002
0.358630,	0.030779,	0.000002
0.361826,	0.030844,	0.000002
0.365052,	0.030909,	0.000002
0.368308,	0.030975,	0.000002
0.371594,	0.031041,	0.000002
0.374912,	0.031109,	0.000002
0.378260,	0.031176,	0.000002
0.381640,	0.031245,	0.000002
0.385052,	0.031313,	0.000002
0.388496,	0.031383,	0.000002
0.391972,	0.031453,	0.000002
0.395481,	0.031524,	0.000002
0.399023,	0.031596,	0.000002
0.402599,	0.031668,	0.000002
0.406208,	0.031741,	0.000002
0.409851,	0.031815,	0.000002
0.413529,	0.031889,	0.000002
0.417242,	0.031964,	0.000002
0.420990,	0.032040,	0.000002
0.424773,	0.032116,	0.000002
0.428592,	0.032193,	0.000002
0.432448,	0.032271,	0.000002
0.436340,	0.032350,	0.000002
0.440269,	0.032429,	0.000002
0.444235,	0.032509,	0.000002
0.448239,	0.032590,	0.000002
0.452282,	0.032672,	0.000002
0.456363,	0.032754,	0.000002
0.460482,	0.032837,	0.000002
0.464641,	0.032921,	0.000002
0.468840,	0.033006,	0.000002
0.473079,	0.033092,	0.000002
0.477358,	0.033178,	0.000002
0.481679,	0.033266,	0.000003
0.486040,	0.033354,	0.000003
0.490444,	0.033443,	0.000003
0.494889,	0.033532,	0.000003
0.499378,	0.033623,	0.000003
0.503909,	0.033715,	0.000003
0.261069,	0.029270,	0.000001
0.263374,	0.029317,	0.000001
0.265699,	0.029366,	0.000001
0.268045,	0.029414,	0.000001
0.270412,	0.029463,	0.000001
0.272800,	0.029513,	0.000001
0.275209,	0.029563,	0.000001
0.277640,	0.029613,	0.000001
0.280092,	0.029664,	0.000001
0.282567,	0.029716,	0.000001
0.285064,	0.029767,	0.000001
0.287583,	0.029820,	0.000001
0.290125,	0.029872,	0.000001
0.292690,	0.029925,	0.000001
0.295279,	0.029979,	0.000001
0.297891,	0.030033,	0.000001
0.300526,	0.030088,	0.000001
0.303186,	0.030143,	0.000001
0.305870,	0.030199,	0.000001
0.308578,	0.030255,	0.000001
0.311311,	0.030312,	0.000001
0.314069,	0.030369,	0.000001
0.316853,	0.030427,	0.000001
0.319662,	0.030485,	0.000001
0.322496,	0.030544,	0.000001
0.325357,	0.030603,	0.000001
0.328245,	0.030663,	0.000001
0.331159,	0.030723,	0.000001
0.334099,	0.030784,	0.000001
0.337067,	0.030846,	0.000001
0.340063,	0.030908,	0.000002
0.343086,	0.030971,	0.000002
0.346138,	0.031034,	0.000002
0.349217,	0.031098,	0.000002
0.352326,	0.031162,	0.000002
0.355463,	0.031227,	0.000002
0.358630,	0.031293,	0.000002
0.361826,	0.031359,	0.000002
0.365052,	0.031426,	0.000002
0.368308,	0.031493,	0.000002
0.371594,	0.031562,	0.000002
0.374912,	0.031630,	0.000002
0.378260,	0.031700,	0.000002
0.381640,	0.031770,	0.000002
0.385052,	0.031841,	0.000002
0.388496,	0.031912,	0.000002
0.391972,	0.031984,	0.000002
0.395481,	0.032057,	0.000002
0.399023,	0.032130,	0.000002
0.402599,	0.032204,	0.000002
0.406208,	0.032279,	0.000002
0.409851,	0.032355,	0.000002
0.413529,	0.032431,	0.000002
0.417242,	0.032508,	0.000002
0.420990,	0.032585,	0.000002
0.424773,	0.032664,	0.000002
0.428592,	0.032743,	0.000002
0.432448,	0.032823,	0.000002
0.436340,	0.032904,	0.000002
0.440269,	0.032985,	0.000002
0.444235,	0.033067,	0.000002
0.448239,	0.033150,	0.000002
0.452282,	0.033234,	0.000002
0.456363,	0.033319,	0.000002
0.460482,	0.033404,	0.000002
0.464641,	0.033490,	0.000002
0.468840,	0.033577,	0.000002
0.473079,	0.033665,	0.000002
0.477359,	0.033754,	0.000002
0.481679,	0.033843,	0.000003
0.486041,	0.033934,	0.000003
0.490444,	0.034025,	0.000003
0.494890,	0.034117,	0.000003
0.499378,	0.034210,	0.000003
0.503909,	0.034304,	0.000003
0.261069,	0.029728,	0.000001
0.263374,	0.029777,	0.000001
0.265699,	0.029827,	0.000001
0.268045,	0.029876,	0.000001
0.270412,	0.029927,	0.000001
0.272800,	0.029978,	0.000001
0.275209,	0.030029,	0.000001
0.277640,	0.030080,	0.000001
0.280092,	0.030133,	0.000001
0.282567,	0.030185,	0.000001
0.285064,	0.030238,	0.000001
0.287583,	0.030292,	0.000001
0.290125,	0.030346,	0.000001
0.292691,	0.030401,	0.000001
0.295279,	0.030456,	0.000001
0.297891,	0.030511,	0.000001
0.300526,	0.030567,	0.000001
0.303186,	0.030624,	0.000001
0.305870,	0.030681,	0.000001
0.308578,	0.030738,	0.000001
0.311311,	0.030797,	0.000001
0.314069,	0.030855,	0.000001
0.316853,	0.030914,	0.000001
0.319662,	0.030974,	0.000001
0.322497,	0.031034,	0.000001
0.325357,	0.031095,	0.000001
0.328245,	0.031157,	0.000001
0.331159,	0.031219,	0.000001
0.334099,	0.031281,	0.000001
0.337067,	0.031344,	0.000001
0.340063,	0.031408,	0.000002
0.343086,	0.031472,	0.000002
0.346138,	0.031537,	0.000002
0.349217,	0.031602,	0.000002
0.352326,	0.031669,	0.000002
0.355463,	0.031735,	0.000002
0.358630,	0.031803,	0.000002
0.361826,	0.031871,	0.000002
0.365052,	0.031939,	0.000002
0.368308,	0.032008,	0.000002
0.371595,	0.032078,	0.000002
0.374912,	0.032149,	0.000002
0.378260,	0.032220,	0.000002
0.381640,	0.032292,	0.000002
0.385052,	0.032364,	0.000002
0.388496,	0.032438,	0.000002
0.391972,	0.032511,	0.000002
0.395481,	0.032586,	0.000002
0.399023,	0.032661,	0.000002
0.402599,	0.032737,	0.000002
0.406208,	0.032814,	0.000002
0.409851,	0.032891,	0.000002
0.413529,	0.032970,	0.000002
0.417242,	0.033049,	0.000002
0.420990,	0.033128,	0.000002
0.424773,	0.033209,	0.000002
0.428592,	0.033290,	0.000002
0.432448,	0.033372,	0.000002
0.436340,	0.033455,	0.000002
0.440269,	0.033538,	0.000002
0.444235,	0.033622,	0.000002
0.448240,	0.033707,	0.000002
0.452282,	0.033793,	0.000002
0.456363,	0.033880,	0.000002
0.460483,	0.033968,	0.000002
0.464642,	0.034056,	0.000002
0.468841,	0.034145,	0.000002
0.473079,	0.034235,	0.000002
0.477359,	0.034326,	0.000002
0.481679,	0.034418,	0.000002
0.486041,	0.034511,	0.000003
0.490444,	0.034604,	0.000003
0.494890,	0.034699,	0.000003
0.499378,	0.034794,	0.000003
0.503910,	0.034891,	0.000003
0.261069,	0.030183,	0.000001
0.263374,	0.030234,	0.000001
0.265699,	0.030284,	0.000001
0.268045,	0.030335,	0.000001
0.270412,	0.030387,	0.000001
0.272800,	0.030439,	0.000001
0.275209,	0.030492,	0.000001
0.277640,	0.030544,	0.000001
0.280092,	0.030598,	0.000001
0.282567,	0.030652,	0.000001
0.285064,	0.030706,	0.000001
0.287583,	0.030761,	0.000001
0.290125,	0.030817,	0.000001
0.292691,	0.030873,	0.000001
0.295279,	0.030929,	0.000001
0.297891,	0.030986,	0.000001
0.300526,	0.031043,	0.000001
0.303186,	0.031101,	0.000001
0.305870,	0.031160,	0.000001
0.308578,	0.031219,	0.000001
0.311311,	0.031278,	0.000001
0.314069,	0.031338,	0.000001
0.316853,	0.031399,	0.000001
0.319662,	0.031460,	0.000001
0.322497,	0.031522,	0.000001
0.325357,	0.031584,	0.000001
0.328245,	0.031647,	0.000001
0.331159,	0.031711,	0.000001
0.334099,	0.031775,	0.000001
0.337068,	0.031840,	0.000001
0.340063,	0.031905,	0.000001
0.343086,	0.031971,	0.000002
0.346138,	0.032037,	0.000002
0.349217,	0.032104,	0.000002
0.352326,	0.032172,	0.000002
0.355463,	0.032241,	0.000002
0.358630,	0.032310,	0.000002
0.361826,	0.032379,	0.000002
0.365052,	0.032450,	0.000002
0.368308,	0.032520,	0.000002
0.371595,	0.032592,	0.000002
0.374912,	0.032664,	0.000002
0.378261,	0.032737,	0.000002
0.381641,	0.032811,	0.000002
0.385052,	0.032885,	0.000002
0.388496,	0.032960,	0.000002
0.391972,	0.033036,	0.000002
0.395481,	0.033113,	0.000002
0.399024,	0.033190,	0.000002
0.402599,	0.033268,	0.000002
0.406208,	0.033346,	0.000002
0.409852,	0.033426,	0.000002
0.413529,	0.033506,	0.000002
0.417242,	0.033587,	0.000002
0.420990,	0.033668,	0.000002
0.424773,	0.033751,	0.000002
0.428592,	0.033834,	0.000002
0.432448,	0.033918,	0.000002
0.436340,	0.034003,	0.000002
0.440269,	0.034088,	0.000002
0.444236,	0.034175,	0.000002
0.448240,	0.034262,	0.000002
0.452282,	0.034350,	0.000002
0.456363,	0.034439,	0.000002
0.460483,	0.034529,	0.000002
0.464642,	0.034619,	0.000002
0.468841,	0.034711,	0.000002
0.473080,	0.034803,	0.000002
0.477359,	0.034896,	0.000002
0.481680,	0.034991,	0.000002
0.486041,	0.035086,	0.000003
0.490445,	0.035181,	0.000003
0.494890,	0.035278,	0.000003
0.499379,	0.035376,	0.000003
0.503910,	0.035475,	0.000003
0.261069,	0.030636,	0.000001
0.263374,	0.030687,	0.000001
0.265699,	0.030739,	0.000001
0.268045,	0.030792,	0.000001
0.270412,	0.030845,	0.000001
0.272800,	0.030898,	0.000001
0.275209,	0.030952,	0.000001
0.277640,	0.031006,	0.000001
0.280092,	0.031061,	0.000001
0.282567,	0.031116,	0.000001
0.285064,	0.031172,	0.000001
0.287583,	0.031228,	0.000001
0.290125,	0.031285,	0.000001
0.292690,	0.031342,	0.000001
0.295279,	0.031400,	0.000001
0.297891,	0.031458,	0.000001
0.300526,	0.031517,	0.000001
0.303186,	0.031576,	0.000001
0.305870,	0.031636,	0.000001
0.308578,	0.031697,	0.000001
0.311311,	0.031758,	0.000001
0.314069,	0.031819,	0.000001
0.316853,	0.031882,	0.000001
0.319662,	0.031944,	0.000001
0.322496,	0.032008,	0.000001
0.325357,	0.032071,	0.000001
0.328245,	0.032136,	0.000001
0.331159,	0.032201,	0.000001
0.334099,	0.032267,	0.000001
0.337067,	0.032333,	0.000001
0.340063,	0.032400,	0.000001
0.343086,	0.032467,	0.000002
0.346138,	0.032535,	0.000002
0.349217,	0.032604,	0.000002
0.352326,	0.032674,	0.000002
0.355463,	0.032744,	0.000002
0.358630,	0.032814,	0.000002
0.361826,	0.032886,	0.000002
0.365052,	0.032958,	0.000002
0.368308,	0.033030,	0.000002
0.371595,	0.033104,	0.000002
0.374912,	0.033178,	0.000002
0.378260,	0.033253,	0.000002
0.381640,	0.033328,	0.000002
0.385052,	0.033404,	0.000002
0.388496,	0.033481,	0.000002
0.391972,	0.033559,	0.000002
0.395481,	0.033637,	0.000002
0.399023,	0.033716,	0.000002
0.402599,	0.033796,	0.000002
0.406208,	0.033876,	0.000002
0.409852,	0.033958,	0.000002
0.413529,	0.034040,	0.000002
0.417242,	0.034123,	0.000002
0.420990,	0.034206,	0.000002
0.424773,	0.034291,	0.000002
0.428592,	0.034376,	0.000002
0.432448,	0.034462,	0.000002
0.436340,	0.034549,	0.000002
0.440269,	0.034637,	0.000002
0.444236,	0.034725,	0.000002
0.448240,	0.034815,	0.000002
0.452282,	0.034905,	0.000002
0.456363,	0.034996,	0.000002
0.460483,	0.035088,	0.000002
0.464642,	0.035181,	0.000002
0.468841,	0.035275,	0.000002
0.473080,	0.035369,	0.000002
0.477359,	0.035465,	0.000002
0.481680,	0.035561,	0.000002
0.486041,	0.035658,	0.000003
0.490445,	0.035757,	0.000003
0.494891,	0.035856,	0.000003
0.499379,	0.035956,	0.000003
0.503910,	0.036057,	0.000003
0.261068,	0.031087,	0.000001
0.263373,	0.031139,	0.000001
0.265699,	0.031193,	0.000001
0.268044,	0.031246,	0.000001
0.270411,	0.031300,	0.000001
0.272799,	0.031355,	0.000001
0.275208,	0.031410,	0.000001
0.277639,	0.031466,	0.000001
0.280092,	0.031522,	0.000001
0.282566,	0.031578,	0.000001
0.285063,	0.031635,	0.000001
0.287582,	0.031693,	0.000001
0.290125,	0.031751,	0.000001
0.292690,	0.031810,	0.000001
0.295278,	0.031869,	0.000001
0.297890,	0.031929,	0.000001
0.300526,	0.031989,	0.000001
0.303185,	0.032050,	0.000001
0.305869,	0.032111,	0.000001
0.308577,	0.040395,	0.000004
0.674435,	0.040536,	0.000004
0.680657,	0.040678,	0.000004
0.686939,	0.040821,	0.000004
0.693282,	0.040966,	0.000004
0.699687,	0.041113,	0.000004
0.706154,	0.041261,	0.000004
0.712684,	0.041410,	0.000005
0.719277,	0.041560,	0.000005
0.725934,	0.041713,	0.000005
0.732657,	0.041866,	0.000005
0.739444,	0.042021,	0.000005
0.746298,	0.042178,	0.000005
0.753218,	0.042336,	0.000005
0.760205,	0.042496,	0.000005
0.767261,	0.042657,	0.000005
0.774385,	0.042820,	0.000005
0.781579,	0.042984,	0.000005
0.788842,	0.043150,	0.000005
0.796177,	0.043318,	0.000005
0.803582,	0.043487,	0.000006
0.811061,	0.043658,	0.000006
0.818611,	0.043830,	0.000006
0.826236,	0.044004,	0.000006
0.833935,	0.044180,	0.000006
0.841708,	0.044358,	0.000006
0.849558,	0.044537,	0.000006
0.857484,	0.044718,	0.000006
0.865488,	0.044901,	0.000006
0.873569,	0.045086,	0.000006
0.881729,	0.045272,	0.000006
0.889969,	0.045460,	0.000007
0.898290,	0.045651,	0.000007
0.906691,	0.045843,	0.000007
0.915175,	0.046036,	0.000007
0.923741,	0.046232,	0.000007
0.932391,	0.046430,	0.000007
0.941125,	0.046630,	0.000007
0.949945,	0.046831,	0.000007
0.958850,	0.047035,	0.000007
0.967843,	0.047241,	0.000008
0.976923,	0.047449,	0.000008
0.986091,	0.047658,	0.000008
0.995349,	0.047869,	0.000008
0.508481,	0.037326,	0.000003
0.513100,	0.037434,	0.000003
0.517763,	0.037543,	0.000003
0.522471,	0.037653,	0.000003
0.527224,	0.037764,	0.000003
0.532023,	0.037877,	0.000003
0.536868,	0.037990,	0.000003
0.541759,	0.038104,	0.000003
0.546698,	0.038220,	0.000003
0.551684,	0.038337,	0.000003
0.556718,	0.038454,	0.000003
0.561801,	0.038573,	0.000003
0.566933,	0.038693,	0.000003
0.572114,	0.038815,	0.000003
0.577346,	0.038937,	0.000003
0.582627,	0.039061,	0.000003
0.587960,	0.039185,	0.000003
0.593344,	0.039311,	0.000003
0.598781,	0.039439,	0.000003
0.604270,	0.039567,	0.000003
0.609812,	0.039697,	0.000004
0.615407,	0.039828,	0.000004
0.621057,	0.039960,	0.000004
0.626761,	0.040093,	0.000004
0.632521,	0.040228,	0.000004
0.638337,	0.040364,	0.000004
0.644208,	0.040501,	0.000004
0.650137,	0.040640,	0.000004
0.656123,	0.040780,	0.000004
0.662167,	0.040922,	0.000004
0.668270,	0.041064,	0.000004
0.674432,	0.041209,	0.000004
0.680654,	0.041354,	0.000004
0.686936,	0.041501,	0.000004
0.693279,	0.041649,	0.000004
0.699684,	0.041799,	0.000004
0.706151,	0.041951,	0.000004
0.712681,	0.042103,	0.000005
0.719275,	0.042258,	0.000005
0.725932,	0.042413,	0.000005
0.732654,	0.042571,	0.000005
0.739442,	0.042729,	0.000005
0.746295,	0.042890,	0.000005
0.753215,	0.043052,	0.000005
0.760203,	0.043215,	0.000005
0.767258,	0.043380,	0.000005
0.774383,	0.043547,	0.000005
0.781576,	0.043715,	0.000005
0.788840,	0.043885,	0.000005
0.796174,	0.044057,	0.000005
0.803580,	0.044230,	0.000006
0.811058,	0.044405,	0.000006
0.818609,	0.044581,	0.000006
0.826234,	0.044760,	0.000006
0.833932,	0.044940,	0.000006
0.841706,	0.045122,	0.000006
0.849556,	0.045305,	0.000006
0.857482,	0.045491,	0.000006
0.865486,	0.045678,	0.000006
0.873567,	0.045867,	0.000006
0.881728,	0.046058,	0.000006
0.889968,	0.046251,	0.000007
0.898288,	0.046445,	0.000007
0.906690,	0.046642,	0.000007
0.915173,	0.046840,	0.000007
0.923740,	0.047041,	0.000007
0.932390,	0.047243,	0.000007
0.941124,	0.047448,	0.000007
0.949944,	0.047654,	0.000007
0.958849,	0.047862,	0.000007
0.967842,	0.048073,	0.000008
0.976922,	0.048286,	0.000008
0.986091,	0.048501,	0.000008
0.995349,	0.048716,	0.000008
0.508475,	0.037908,	0.000003
0.513094,	0.038019,	0.000003
0.517756,	0.038131,	0.000003
0.522464,	0.038243,	0.000003
0.527217,	0.038357,	0.000003
0.532016,	0.038472,	0.000003
0.536861,	0.038588,	0.000003
0.541752,	0.038705,	0.000003
0.546691,	0.038823,	0.000003
0.551677,	0.038943,	0.000003
0.556712,	0.039063,	0.000003
0.561794,	0.039185,	0.000003
0.566926,	0.039308,	0.000003
0.572107,	0.039432,	0.000003
0.577339,	0.039557,	0.000003
0.582620,	0.039683,	0.000003
0.587953,	0.039811,	0.000003
0.593337,	0.039940,	0.000003
0.598774,	0.040070,	0.000003
0.604263,	0.040202,	0.000004
0.609805,	0.040334,	0.000004
0.615400,	0.040468,	0.000004
0.621050,	0.040603,	0.000004
0.626754,	0.040740,	0.000004
0.632514,	0.040878,	0.000004
0.638329,	0.041017,	0.000004
0.644201,	0.041158,	0.000004
0.650130,	0.041300,	0.000004
0.656116,	0.041443,	0.000004
0.662160,	0.041588,	0.000004
0.668263,	0.041734,	0.000004
0.674425,	0.041881,	0.000004
0.680647,	0.042030,	0.000004
0.686929,	0.042180,	0.000004
0.693272,	0.042332,	0.000004
0.699677,	0.042486,	0.000004
0.706144,	0.042640,	0.000004
0.712674,	0.042797,	0.000005
0.719267,	0.042955,	0.000005
0.725925,	0.043114,	0.000005
0.732647,	0.043275,	0.000005
0.739434,	0.043437,	0.000005
0.746288,	0.043601,	0.000005
0.753208,	0.043767,	0.000005
0.760196,	0.043934,	0.000005
0.767251,	0.044103,	0.000005
0.774375,	0.044274,	0.000005
0.781569,	0.044446,	0.000005
0.788833,	0.044620,	0.000005
0.796167,	0.044795,	0.000005
0.803573,	0.044973,	0.000006
0.811051,	0.045152,	0.000006
0.818602,	0.045333,	0.000006
0.826226,	0.045515,	0.000006
0.833925,	0.045699,	0.000006
0.841699,	0.045885,	0.000006
0.849549,	0.046073,	0.000006
0.857475,	0.046263,	0.000006
0.865479,	0.046455,	0.000006
0.873560,	0.046648,	0.000006
0.881721,	0.046843,	0.000006
0.889961,	0.047041,	0.000007
0.898282,	0.047240,	0.000007
0.906684,	0.047441,	0.000007
0.915167,	0.047644,	0.000007
0.923734,	0.047849,	0.000007
0.932384,	0.048056,	0.000007
0.941119,	0.048265,	0.000007
0.949939,	0.048477,	0.000007