TITLE = "MeshVolumeStats"
VARIABLES = "X", "Y", "VOL"
ZONE I=50, J=47, DATAPACKING=POINT
2.279350,	0.471989,	0.000043
2.286818,	0.471986,	0.000043
2.294285,	0.471982,	0.000043
2.301753,	0.471979,	0.000043
2.309221,	0.471976,	0.000043
2.316689,	0.471973,	0.000043
2.324157,	0.471970,	0.000043
2.331625,	0.471967,	0.000043
2.339093,	0.471964,	0.000043
2.346560,	0.471961,	0.000043
2.354029,	0.471958,	0.000043
2.361496,	0.471955,	0.000043
2.368964,	0.471952,	0.000043
2.376432,	0.471949,	0.000043
2.383900,	0.471946,	0.000043
2.391368,	0.471943,	0.000043
2.398836,	0.471940,	0.000043
2.406303,	0.471937,	0.000043
2.413772,	0.471933,	0.000043
2.421240,	0.471930,	0.000043
2.428708,	0.471927,	0.000043
2.436176,	0.471924,	0.000043
2.443643,	0.471921,	0.000043
2.451111,	0.471918,	0.000043
2.458579,	0.471915,	0.000043
2.466047,	0.471912,	0.000043
2.473515,	0.471909,	0.000043
2.480983,	0.471906,	0.000043
2.488450,	0.471903,	0.000043
2.495919,	0.471899,	0.000043
2.503386,	0.471896,	0.000043
2.510854,	0.471893,	0.000043
2.518322,	0.471890,	0.000043
2.525790,	0.471887,	0.000043
2.533258,	0.471884,	0.000043
2.540725,	0.471881,	0.000043
2.548194,	0.471878,	0.000043
2.555662,	0.471875,	0.000043
2.563130,	0.471871,	0.000043
2.570597,	0.471868,	0.000043
2.578065,	0.471865,	0.000043
2.585533,	0.471862,	0.000043
2.593001,	0.471859,	0.000043
2.600469,	0.471856,	0.000043
2.607937,	0.471853,	0.000043
2.615405,	0.471850,	0.000043
2.622873,	0.471846,	0.000043
2.630341,	0.471843,	0.000043
2.637808,	0.471840,	0.000043
2.645276,	0.471837,	0.000043
2.279346,	0.477749,	0.000043
2.286814,	0.477746,	0.000043
2.294282,	0.477743,	0.000043
2.301749,	0.477740,	0.000043
2.309217,	0.477737,	0.000043
2.316685,	0.477735,	0.000043
2.324153,	0.477732,	0.000043
2.331621,	0.477729,	0.000043
2.339089,	0.477726,	0.000043
2.346557,	0.477723,	0.000043
2.354025,	0.477720,	0.000043
2.361493,	0.477717,	0.000043
2.368961,	0.477714,	0.000043
2.376429,	0.477711,	0.000043
2.383897,	0.477708,	0.000043
2.391364,	0.477705,	0.000043
2.398833,	0.477702,	0.000043
2.406301,	0.477699,	0.000043
2.413769,	0.477696,	0.000043
2.421237,	0.477693,	0.000043
2.428705,	0.477691,	0.000043
2.436173,	0.477688,	0.000043
2.443640,	0.477685,	0.000043
2.451108,	0.477682,	0.000043
2.458576,	0.477679,	0.000043
2.466044,	0.477676,	0.000043
2.473511,	0.477673,	0.000043
2.480980,	0.477670,	0.000043
2.488447,	0.477667,	0.000043
2.495915,	0.477664,	0.000043
2.503383,	0.477661,	0.000043
2.510852,	0.477658,	0.000043
2.518320,	0.477655,	0.000043
2.525788,	0.477652,	0.000043
2.533255,	0.477649,	0.000043
2.540723,	0.477646,	0.000043
2.548191,	0.477643,	0.000043
2.555659,	0.477640,	0.000043
2.563127,	0.477637,	0.000043
2.570595,	0.477634,	0.000043
2.578063,	0.477631,	0.000043
2.585531,	0.477628,	0.000043
2.592999,	0.477625,	0.000043
2.600467,	0.477622,	0.000043
2.607935,	0.477619,	0.000043
2.615403,	0.477616,	0.000043
2.622871,	0.477613,	0.000043
2.630338,	0.477610,	0.000043
2.637806,	0.477607,	0.000043
2.645274,	0.477604,	0.000043
2.279342,	0.483510,	0.000043
2.286810,	0.483507,	0.000043
2.294278,	0.483504,	0.000043
2.301746,	0.483502,	0.000043
2.309214,	0.483499,	0.000043
2.316682,	0.483496,	0.000043
2.324149,	0.483493,	0.000043
2.331618,	0.483491,	0.000043
2.339085,	0.483488,	0.000043
2.346553,	0.483485,	0.000043
2.354021,	0.483482,	0.000043
2.361490,	0.483479,	0.000043
2.368958,	0.483477,	0.000043
2.376426,	0.483474,	0.000043
2.383894,	0.483471,	0.000043
2.391362,	0.483468,	0.000043
2.398830,	0.483465,	0.000043
2.406297,	0.483463,	0.000043
2.413766,	0.483460,	0.000043
2.421234,	0.483457,	0.000043
2.428701,	0.483454,	0.000043
2.436170,	0.483451,	0.000043
2.443637,	0.483448,	0.000043
2.451105,	0.483446,	0.000043
2.458573,	0.483443,	0.000043
2.466041,	0.483440,	0.000043
2.473509,	0.483437,	0.000043
2.480977,	0.483434,	0.000043
2.488445,	0.483432,	0.000043
2.495913,	0.483429,	0.000043
2.503381,	0.483426,	0.000043
2.510849,	0.483423,	0.000043
2.518317,	0.483420,	0.000043
2.525785,	0.483417,	0.000043
2.533253,	0.483415,	0.000043
2.540721,	0.483412,	0.000043
2.548189,	0.483409,	0.000043
2.555657,	0.483406,	0.000043
2.563125,	0.483403,	0.000043
2.570593,	0.483400,	0.000043
2.578061,	0.483398,	0.000043
2.585529,	0.483395,	0.000043
2.592997,	0.483392,	0.000043
2.600465,	0.483389,	0.000043
2.607933,	0.483386,	0.000043
2.615401,	0.483383,	0.000043
2.622869,	0.483380,	0.000043
2.630336,	0.483377,	0.000043
2.637805,	0.483375,	0.000043
2.645272,	0.483372,	0.000043
2.279338,	0.489271,	0.000043
2.286806,	0.489269,	0.000043
2.294274,	0.489266,	0.000043
2.301742,	0.489263,	0.000043
2.309210,	0.489261,	0.000043
2.316678,	0.489258,	0.000043
2.324146,	0.489255,	0.000043
2.331614,	0.489253,	0.000043
2.339082,	0.489250,	0.000043
2.346551,	0.489247,	0.000043
2.354019,	0.489245,	0.000043
2.361487,	0.489242,	0.000043
2.368955,	0.489239,	0.000043
2.376423,	0.489237,	0.000043
2.383891,	0.489234,	0.000043
2.391358,	0.489231,	0.000043
2.398827,	0.489229,	0.000043
2.406295,	0.489226,	0.000043
2.413762,	0.489223,	0.000043
2.421231,	0.489221,	0.000043
2.428698,	0.489218,	0.000043
2.436167,	0.489215,	0.000043
2.443634,	0.489213,	0.000043
2.451103,	0.489210,	0.000043
2.458571,	0.489207,	0.000043
2.466039,	0.489204,	0.000043
2.473507,	0.489202,	0.000043
2.480975,	0.489199,	0.000043
2.488443,	0.489196,	0.000043
2.495910,	0.489194,	0.000043
2.503379,	0.489191,	0.000043
2.510846,	0.489188,	0.000043
2.518314,	0.489186,	0.000043
2.525783,	0.489183,	0.000043
2.533251,	0.489180,	0.000043
2.540719,	0.489178,	0.000043
2.548186,	0.489175,	0.000043
2.555655,	0.489172,	0.000043
2.563123,	0.489169,	0.000043
2.570591,	0.489167,	0.000043
2.578059,	0.489164,	0.000043
2.585527,	0.489161,	0.000043
2.592995,	0.489158,	0.000043
2.600463,	0.489156,	0.000043
2.607931,	0.489153,	0.000043
2.615399,	0.489150,	0.000043
2.622867,	0.489148,	0.000043
2.630335,	0.489145,	0.000043
2.637803,	0.489142,	0.000043
2.645271,	0.489139,	0.000043
2.279335,	0.495033,	0.000043
2.286803,	0.495030,	0.000043
2.294271,	0.495028,	0.000043
2.301738,	0.495025,	0.000043
2.309207,	0.495023,	0.000043
2.316675,	0.495020,	0.000043
2.324143,	0.495018,	0.000043
2.331611,	0.495015,	0.000043
2.339079,	0.495013,	0.000043
2.346547,	0.495010,	0.000043
2.354016,	0.495008,	0.000043
2.361484,	0.495005,	0.000043
2.368952,	0.495002,	0.000043
2.376419,	0.495000,	0.000043
2.383888,	0.494997,	0.000043
2.391355,	0.494995,	0.000043
2.398823,	0.494992,	0.000043
2.406292,	0.494990,	0.000043
2.413760,	0.494987,	0.000043
2.421228,	0.494985,	0.000043
2.428695,	0.494982,	0.000043
2.436164,	0.494979,	0.000043
2.443632,	0.494977,	0.000043
2.451100,	0.494974,	0.000043
2.458568,	0.494972,	0.000043
2.466036,	0.494969,	0.000043
2.473504,	0.494967,	0.000043
2.480972,	0.494964,	0.000043
2.488440,	0.494962,	0.000043
2.495908,	0.494959,	0.000043
2.503376,	0.494956,	0.000043
2.510844,	0.494954,	0.000043
2.518312,	0.494951,	0.000043
2.525780,	0.494949,	0.000043
2.533248,	0.494946,	0.000043
2.540716,	0.494943,	0.000043
2.548184,	0.494941,	0.000043
2.555652,	0.494938,	0.000043
2.563120,	0.494936,	0.000043
2.570588,	0.494933,	0.000043
2.578056,	0.494931,	0.000043
2.585525,	0.494928,	0.000043
2.592993,	0.494925,	0.000043
2.600461,	0.494923,	0.000043
2.607929,	0.494920,	0.000043
2.615397,	0.494918,	0.000043
2.622865,	0.494915,	0.000043
2.630333,	0.494912,	0.000043
2.637801,	0.494910,	0.000043
2.645269,	0.494907,	0.000043
2.279332,	0.500795,	0.000043
2.286799,	0.500792,	0.000043
2.294268,	0.500790,	0.000043
2.301735,	0.500788,	0.000043
2.309203,	0.500785,	0.000043
2.316671,	0.500783,	0.000043
2.324140,	0.500780,	0.000043
2.331608,	0.500778,	0.000043
2.339075,	0.500775,	0.000043
2.346544,	0.500773,	0.000043
2.354013,	0.500771,	0.000043
2.361480,	0.500768,	0.000043
2.368949,	0.500766,	0.000043
2.376416,	0.500763,	0.000043
2.383884,	0.500761,	0.000043
2.391352,	0.500759,	0.000043
2.398821,	0.500756,	0.000043
2.406289,	0.500754,	0.000043
2.413757,	0.500751,	0.000043
2.421225,	0.500749,	0.000043
2.428693,	0.500746,	0.000043
2.436161,	0.500744,	0.000043
2.443629,	0.500742,	0.000043
2.451097,	0.500739,	0.000043
2.458565,	0.500737,	0.000043
2.466033,	0.500734,	0.000043
2.473501,	0.500732,	0.000043
2.480970,	0.500729,	0.000043
2.488438,	0.500727,	0.000043
2.495906,	0.500724,	0.000043
2.503374,	0.500722,	0.000043
2.510842,	0.500720,	0.000043
2.518310,	0.500717,	0.000043
2.525778,	0.500715,	0.000043
2.533246,	0.500712,	0.000043
2.540714,	0.500710,	0.000043
2.548182,	0.500707,	0.000043
2.555650,	0.500705,	0.000043
2.563118,	0.500702,	0.000043
2.570586,	0.500700,	0.000043
2.578054,	0.500697,	0.000043
2.585523,	0.500695,	0.000043
2.592991,	0.500692,	0.000043
2.600459,	0.500690,	0.000043
2.607927,	0.500687,	0.000043
2.615395,	0.500685,	0.000043
2.622863,	0.500683,	0.000043
2.630331,	0.500680,	0.000043
2.637799,	0.500678,	0.000043
2.645267,	0.500675,	0.000043
2.279329,	0.506557,	0.000043
2.286796,	0.506555,	0.000043
2.294264,	0.506552,	0.000043
2.301732,	0.506550,	0.000043
2.309201,	0.506548,	0.000043
2.316669,	0.506546,	0.000043
2.324137,	0.506543,	0.000043
2.331605,	0.506541,	0.000043
2.339073,	0.506539,	0.000043
2.346541,	0.506536,	0.000043
2.354010,	0.506534,	0.000043
2.361477,	0.506532,	0.000043
2.368945,	0.506530,	0.000043
2.376413,	0.506527,	0.000043
2.383882,	0.506525,	0.000043
2.391350,	0.506523,	0.000043
2.398818,	0.506520,	0.000043
2.406286,	0.506518,	0.000043
2.413754,	0.506516,	0.000043
2.421222,	0.506513,	0.000043
2.428691,	0.506511,	0.000043
2.436158,	0.506509,	0.000043
2.443626,	0.506506,	0.000043
2.451095,	0.506504,	0.000043
2.458563,	0.506502,	0.000043
2.466031,	0.506499,	0.000043
2.473499,	0.506497,	0.000043
2.480967,	0.506495,	0.000043
2.488435,	0.506492,	0.000043
2.495903,	0.506490,	0.000043
2.503371,	0.506488,	0.000043
2.510840,	0.506485,	0.000043
2.518308,	0.506483,	0.000043
2.525776,	0.506481,	0.000043
2.533244,	0.506478,	0.000043
2.540712,	0.506476,	0.000043
2.548180,	0.506474,	0.000043
2.555648,	0.506471,	0.000043
2.563116,	0.506469,	0.000043
2.570585,	0.506467,	0.000043
2.578053,	0.506464,	0.000043
2.585521,	0.506462,	0.000043
2.592989,	0.506460,	0.000043
2.600457,	0.506457,	0.000043
2.607925,	0.506455,	0.000043
2.615393,	0.506453,	0.000043
2.622861,	0.506450,	0.000043
2.630329,	0.506448,	0.000043
2.637798,	0.506446,	0.000043
2.645266,	0.506443,	0.000043
2.279326,	0.512320,	0.000043
2.286793,	0.512317,	0.000043
2.294262,	0.512315,	0.000043
2.301730,	0.512313,	0.000043
2.309198,	0.512311,	0.000043
2.316666,	0.512309,	0.000043
2.324134,	0.512307,	0.000043
2.331602,	0.512304,	0.000043
2.339071,	0.512302,	0.000043
2.346539,	0.512300,	0.000043
2.354007,	0.512298,	0.000043
2.361474,	0.512296,	0.000043
2.368943,	0.512293,	0.000043
2.376411,	0.512291,	0.000043
2.383879,	0.512289,	0.000043
2.391347,	0.512287,	0.000043
2.398815,	0.512285,	0.000043
2.406283,	0.512282,	0.000043
2.413752,	0.512280,	0.000043
2.421220,	0.512278,	0.000043
2.428688,	0.512276,	0.000043
2.436156,	0.512274,	0.000043
2.443624,	0.512271,	0.000043
2.451092,	0.512269,	0.000043
2.458560,	0.512267,	0.000043
2.466029,	0.512265,	0.000043
2.473497,	0.512263,	0.000043
2.480965,	0.512260,	0.000043
2.488433,	0.512258,	0.000043
2.495901,	0.512256,	0.000043
2.503369,	0.512254,	0.000043
2.510838,	0.512252,	0.000043
2.518306,	0.512249,	0.000043
2.525774,	0.512247,	0.000043
2.533242,	0.512245,	0.000043
2.540710,	0.512243,	0.000043
2.548178,	0.512241,	0.000043
2.555646,	0.512238,	0.000043
2.563115,	0.512236,	0.000043
2.570583,	0.512234,	0.000043
2.578051,	0.512232,	0.000043
2.585519,	0.512229,	0.000043
2.592987,	0.512227,	0.000043
2.600455,	0.512225,	0.000043
2.607924,	0.512223,	0.000043
2.615392,	0.512220,	0.000043
2.622860,	0.512218,	0.000043
2.630328,	0.512216,	0.000043
2.637796,	0.512214,	0.000043
2.645264,	0.512211,	0.000043
2.279323,	0.518082,	0.000043
2.286791,	0.518080,	0.000043
2.294259,	0.518078,	0.000043
2.301727,	0.518076,	0.000043
2.309195,	0.518074,	0.000043
2.316663,	0.518072,	0.000043
2.324131,	0.518070,	0.000043
2.331600,	0.518068,	0.000043
2.339068,	0.518066,	0.000043
2.346535,	0.518064,	0.000043
2.354004,	0.518062,	0.000043
2.361472,	0.518060,	0.000043
2.368940,	0.518058,	0.000043
2.376409,	0.518056,	0.000043
2.383876,	0.518053,	0.000043
2.391345,	0.518051,	0.000043
2.398813,	0.518049,	0.000043
2.406281,	0.518047,	0.000043
2.413749,	0.518045,	0.000043
2.421217,	0.518043,	0.000043
2.428686,	0.518041,	0.000043
2.436154,	0.518039,	0.000043
2.443622,	0.518037,	0.000043
2.451090,	0.518035,	0.000043
2.458558,	0.518033,	0.000043
2.466026,	0.518031,	0.000043
2.473495,	0.518028,	0.000043
2.480963,	0.518026,	0.000043
2.488431,	0.518024,	0.000043
2.495899,	0.518022,	0.000043
2.503367,	0.518020,	0.000043
2.510835,	0.518018,	0.000043
2.518304,	0.518016,	0.000043
2.525772,	0.518014,	0.000043
2.533240,	0.518012,	0.000043
2.540708,	0.518010,	0.000043
2.548176,	0.518007,	0.000043
2.555645,	0.518005,	0.000043
2.563113,	0.518003,	0.000043
2.570581,	0.518001,	0.000043
2.578049,	0.517999,	0.000043
2.585517,	0.517997,	0.000043
2.592986,	0.517995,	0.000043
2.600454,	0.517993,	0.000043
2.607922,	0.517991,	0.000043
2.615390,	0.517988,	0.000043
2.622858,	0.517986,	0.000043
2.630327,	0.517984,	0.000043
2.637795,	0.517982,	0.000043
2.645263,	0.517980,	0.000043
2.279320,	0.523846,	0.000043
2.286787,	0.523844,	0.000043
2.294256,	0.523842,	0.000043
2.301724,	0.523840,	0.000043
2.309192,	0.523838,	0.000043
2.316661,	0.523836,	0.000043
2.324129,	0.523834,	0.000043
2.331597,	0.523832,	0.000043
2.339065,	0.523830,	0.000043
2.346533,	0.523828,	0.000043
2.354001,	0.523826,	0.000043
2.361470,	0.523824,	0.000043
2.368938,	0.523822,	0.000043
2.376406,	0.523820,	0.000043
2.383874,	0.523818,	0.000043
2.391342,	0.523816,	0.000043
2.398811,	0.523814,	0.000043
2.406279,	0.523812,	0.000043
2.413747,	0.523810,	0.000043
2.421215,	0.523808,	0.000043
2.428683,	0.523806,	0.000043
2.436152,	0.523804,	0.000043
2.443620,	0.523802,	0.000043
2.451088,	0.523800,	0.000043
2.458556,	0.523798,	0.000043
2.466024,	0.523796,	0.000043
2.473492,	0.523794,	0.000043
2.480961,	0.523792,	0.000043
2.488429,	0.523790,	0.000043
2.495897,	0.523788,	0.000043
2.503365,	0.523786,	0.000043
2.510834,	0.523784,	0.000043
2.518302,	0.523782,	0.000043
2.525770,	0.523781,	0.000043
2.533238,	0.523779,	0.000043
2.540706,	0.523776,	0.000043
2.548175,	0.523775,	0.000043
2.555643,	0.523772,	0.000043
2.563111,	0.523771,	0.000043
2.570579,	0.523769,	0.000043
2.578047,	0.523767,	0.000043
2.585516,	0.523764,	0.000043
2.592984,	0.523763,	0.000043
2.600452,	0.523761,	0.000043
2.607920,	0.523758,	0.000043
2.615388,	0.523756,	0.000043
2.622857,	0.523754,	0.000043
2.630325,	0.523752,	0.000043
2.637793,	0.523750,	0.000043
2.645262,	0.523748,	0.000043
2.279317,	0.529609,	0.000043
2.286785,	0.529607,	0.000043
2.294253,	0.529605,	0.000043
2.301721,	0.529603,	0.000043
2.309190,	0.529602,	0.000043
2.316658,	0.529600,	0.000043
2.324126,	0.529598,	0.000043
2.331594,	0.529596,	0.000043
2.339062,	0.529594,	0.000043
2.346531,	0.529592,	0.000043
2.353999,	0.529590,	0.000043
2.361467,	0.529589,	0.000043
2.368935,	0.529587,	0.000043
2.376404,	0.529585,	0.000043
2.383872,	0.529583,	0.000043
2.391340,	0.529581,	0.000043
2.398808,	0.529579,	0.000043
2.406276,	0.529577,	0.000043
2.413745,	0.529576,	0.000043
2.421213,	0.529574,	0.000043
2.428681,	0.529572,	0.000043
2.436149,	0.529570,	0.000043
2.443618,	0.529568,	0.000043
2.451086,	0.529566,	0.000043
2.458554,	0.529564,	0.000043
2.466022,	0.529562,	0.000043
2.473490,	0.529561,	0.000043
2.480959,	0.529559,	0.000043
2.488427,	0.529557,	0.000043
2.495895,	0.529555,	0.000043
2.503363,	0.529553,	0.000043
2.510832,	0.529551,	0.000043
2.518300,	0.529549,	0.000043
2.525768,	0.529547,	0.000043
2.533236,	0.529546,	0.000043
2.540705,	0.529544,	0.000043
2.548173,	0.529542,	0.000043
2.555641,	0.529540,	0.000043
2.563109,	0.529538,	0.000043
2.570578,	0.529536,	0.000043
2.578046,	0.529534,	0.000043
2.585514,	0.529532,	0.000043
2.592983,	0.529530,	0.000043
2.600450,	0.529529,	0.000043
2.607919,	0.529527,	0.000043
2.615387,	0.529525,	0.000043
2.622856,	0.529523,	0.000043
2.630324,	0.529521,	0.000043
2.637792,	0.529519,	0.000043
2.645260,	0.529517,	0.000043
2.279314,	0.535373,	0.000043
2.286782,	0.535371,	0.000043
2.294251,	0.535369,	0.000043
2.301719,	0.535367,	0.000043
2.309187,	0.535366,	0.000043
2.316655,	0.535364,	0.000043
2.324124,	0.535362,	0.000043
2.331592,	0.535360,	0.000043
2.339060,	0.535359,	0.000043
2.346528,	0.535357,	0.000043
2.353997,	0.535355,	0.000043
2.361465,	0.535353,	0.000043
2.368933,	0.535352,	0.000043
2.376401,	0.535350,	0.000043
2.383870,	0.535348,	0.000043
2.391338,	0.535346,	0.000043
2.398806,	0.535345,	0.000043
2.406274,	0.535343,	0.000043
2.413743,	0.535341,	0.000043
2.421211,	0.535339,	0.000043
2.428679,	0.535338,	0.000043
2.436147,	0.535336,	0.000043
2.443616,	0.535334,	0.000043
2.451084,	0.535332,	0.000043
2.458552,	0.535331,	0.000043
2.466020,	0.535329,	0.000043
2.473489,	0.535327,	0.000043
2.480957,	0.535325,	0.000043
2.488425,	0.535323,	0.000043
2.495893,	0.535322,	0.000043
2.503362,	0.535320,	0.000043
2.510830,	0.535318,	0.000043
2.518298,	0.535316,	0.000043
2.525767,	0.535315,	0.000043
2.533235,	0.535313,	0.000043
2.540703,	0.535311,	0.000043
2.548171,	0.535309,	0.000043
2.555639,	0.535307,	0.000043
2.563108,	0.535306,	0.000043
2.570576,	0.535304,	0.000043
2.578044,	0.535302,	0.000043
2.585513,	0.535300,	0.000043
2.592981,	0.535298,	0.000043
2.600449,	0.535297,	0.000043
2.607918,	0.535295,	0.000043
2.615386,	0.535293,	0.000043
2.622854,	0.535291,	0.000043
2.630323,	0.535290,	0.000043
2.637791,	0.535288,	0.000043
2.645259,	0.535286,	0.000043
2.279312,	0.541137,	0.000043
2.286780,	0.541135,	0.000043
2.294248,	0.541133,	0.000043
2.301716,	0.541132,	0.000043
2.309185,	0.541130,	0.000043
2.316653,	0.541128,	0.000043
2.324121,	0.541127,	0.000043
2.331590,	0.541125,	0.000043
2.339058,	0.541123,	0.000043
2.346526,	0.541122,	0.000043
2.353994,	0.541120,	0.000043
2.361463,	0.541118,	0.000043
2.368931,	0.541117,	0.000043
2.376399,	0.541115,	0.000043
2.383868,	0.541113,	0.000043
2.391336,	0.541112,	0.000043
2.398804,	0.541110,	0.000043
2.406272,	0.541109,	0.000043
2.413740,	0.541107,	0.000043
2.421209,	0.541105,	0.000043
2.428677,	0.541104,	0.000043
2.436146,	0.541102,	0.000043
2.443614,	0.541100,	0.000043
2.451082,	0.541099,	0.000043
2.458550,	0.541097,	0.000043
2.466019,	0.541095,	0.000043
2.473487,	0.541094,	0.000043
2.480955,	0.541092,	0.000043
2.488423,	0.541090,	0.000043
2.495892,	0.541089,	0.000043
2.503360,	0.541087,	0.000043
2.510828,	0.541085,	0.000043
2.518297,	0.541083,	0.000043
2.525765,	0.541082,	0.000043
2.533233,	0.541080,	0.000043
2.540701,	0.541078,	0.000043
2.548170,	0.541077,	0.000043
2.555638,	0.541075,	0.000043
2.563106,	0.541073,	0.000043
2.570575,	0.541072,	0.000043
2.578043,	0.541070,	0.000043
2.585511,	0.541068,	0.000043
2.592979,	0.541067,	0.000043
2.600448,	0.541065,	0.000043
2.607916,	0.541063,	0.000043
2.615385,	0.541062,	0.000043
2.622853,	0.541060,	0.000043
2.630321,	0.541058,	0.000043
2.637789,	0.541057,	0.000043
2.645258,	0.541055,	0.000043
2.279309,	0.546901,	0.000043
2.286778,	0.546899,	0.000043
2.294246,	0.546898,	0.000043
2.301714,	0.546896,	0.000043
2.309182,	0.546895,	0.000043
2.316651,	0.546893,	0.000043
2.324119,	0.546892,	0.000043
2.331587,	0.546890,	0.000043
2.339056,	0.546888,	0.000043
2.346524,	0.546887,	0.000043
2.353992,	0.546885,	0.000043
2.361460,	0.546884,	0.000043
2.368929,	0.546882,	0.000043
2.376397,	0.546881,	0.000043
2.383865,	0.546879,	0.000043
2.391334,	0.546877,	0.000043
2.398802,	0.546876,	0.000043
2.406270,	0.546874,	0.000043
2.413739,	0.546873,	0.000043
2.421207,	0.546871,	0.000043
2.428675,	0.546870,	0.000043
2.436144,	0.546868,	0.000043
2.443612,	0.546867,	0.000043
2.451080,	0.546865,	0.000043
2.458549,	0.546863,	0.000043
2.466017,	0.546862,	0.000043
2.473485,	0.546860,	0.000043
2.480953,	0.546859,	0.000043
2.488422,	0.546857,	0.000043
2.495890,	0.546856,	0.000043
2.503358,	0.546854,	0.000043
2.510827,	0.546852,	0.000043
2.518295,	0.546851,	0.000043
2.525763,	0.546849,	0.000043
2.533232,	0.546848,	0.000043
2.540700,	0.546846,	0.000043
2.548168,	0.546845,	0.000043
2.555636,	0.546843,	0.000043
2.563105,	0.546841,	0.000043
2.570573,	0.546840,	0.000043
2.578042,	0.546838,	0.000043
2.585510,	0.546837,	0.000043
2.592978,	0.546835,	0.000043
2.600446,	0.546833,	0.000043
2.607915,	0.546832,	0.000043
2.615383,	0.546830,	0.000043
2.622852,	0.546829,	0.000043
2.630320,	0.546827,	0.000043
2.637788,	0.546826,	0.000043
2.645256,	0.546824,	0.000043
2.279307,	0.552665,	0.000043
2.286775,	0.552664,	0.000043
2.294244,	0.552662,	0.000043
2.301712,	0.552661,	0.000043
2.309180,	0.552659,	0.000043
2.316648,	0.552658,	0.000043
2.324117,	0.552656,	0.000043
2.331585,	0.552655,	0.000043
2.339053,	0.552654,	0.000043
2.346522,	0.552652,	0.000043
2.353990,	0.552651,	0.000043
2.361458,	0.552649,	0.000043
2.368927,	0.552648,	0.000043
2.376395,	0.552646,	0.000043
2.383863,	0.552645,	0.000043
2.391332,	0.552643,	0.000043
2.398800,	0.552642,	0.000043
2.406268,	0.552640,	0.000043
2.413737,	0.552639,	0.000043
2.421205,	0.552637,	0.000043
2.428673,	0.552636,	0.000043
2.436142,	0.552635,	0.000043
2.443610,	0.552633,	0.000043
2.451078,	0.552632,	0.000043
2.458547,	0.552630,	0.000043
2.466015,	0.552629,	0.000043
2.473483,	0.552627,	0.000043
2.480952,	0.552626,	0.000043
2.488420,	0.552624,	0.000043
2.495889,	0.552623,	0.000043
2.503357,	0.552621,	0.000043
2.510825,	0.552620,	0.000043
2.518293,	0.552618,	0.000043
2.525762,	0.552617,	0.000043
2.533230,	0.552615,	0.000043
2.540699,	0.552614,	0.000043
2.548167,	0.552612,	0.000043
2.555635,	0.552611,	0.000043
2.563103,	0.552609,	0.000043
2.570572,	0.552608,	0.000043
2.578040,	0.552607,	0.000043
2.585508,	0.552605,	0.000043
2.592977,	0.552604,	0.000043
2.600445,	0.552602,	0.000043
2.607913,	0.552601,	0.000043
2.615382,	0.552599,	0.000043
2.622850,	0.552598,	0.000043
2.630319,	0.552596,	0.000043
2.637787,	0.552595,	0.000043
2.645256,	0.552593,	0.000043
2.279305,	0.558430,	0.000043
2.286773,	0.558429,	0.000043
2.294242,	0.558427,	0.000043
2.301710,	0.558426,	0.000043
2.309178,	0.558424,	0.000043
2.316647,	0.558423,	0.000043
2.324115,	0.558422,	0.000043
2.331583,	0.558420,	0.000043
2.339052,	0.558419,	0.000043
2.346520,	0.558418,	0.000043
2.353988,	0.558416,	0.000043
2.361457,	0.558415,	0.000043
2.368925,	0.558414,	0.000043
2.376393,	0.558412,	0.000043
2.383862,	0.558411,	0.000043
2.391330,	0.558409,	0.000043
2.398798,	0.558408,	0.000043
2.406267,	0.558407,	0.000043
2.413735,	0.558405,	0.000043
2.421203,	0.558404,	0.000043
2.428672,	0.558403,	0.000043
2.436140,	0.558401,	0.000043
2.443608,	0.558400,	0.000043
2.451077,	0.558398,	0.000043
2.458545,	0.558397,	0.000043
2.466014,	0.558396,	0.000043
2.473482,	0.558394,	0.000043
2.480950,	0.558393,	0.000043
2.488419,	0.558392,	0.000043
2.495887,	0.558390,	0.000043
2.503355,	0.558389,	0.000043
2.510824,	0.558387,	0.000043
2.518292,	0.558386,	0.000043
2.525761,	0.558385,	0.000043
2.533229,	0.558383,	0.000043
2.540697,	0.558382,	0.000043
2.548166,	0.558380,	0.000043
2.555634,	0.558379,	0.000043
2.563102,	0.558378,	0.000043
2.570571,	0.558376,	0.000043
2.578039,	0.558375,	0.000043
2.585507,	0.558374,	0.000043
2.592976,	0.558372,	0.000043
2.600444,	0.558371,	0.000043
2.607913,	0.558369,	0.000043
2.615381,	0.558368,	0.000043
2.622849,	0.558367,	0.000043
2.630317,	0.558365,	0.000043
2.637786,	0.558364,	0.000043
2.645255,	0.558362,	0.000043
2.279303,	0.564195,	0.000043
2.286771,	0.564193,	0.000043
2.294239,	0.564192,	0.000043
2.301708,	0.564191,	0.000043
2.309176,	0.564190,	0.000043
2.316644,	0.564188,	0.000043
2.324113,	0.564187,	0.000043
2.331581,	0.564186,	0.000043
2.339050,	0.564185,	0.000043
2.346518,	0.564183,	0.000043
2.353986,	0.564182,	0.000043
2.361455,	0.564181,	0.000043
2.368923,	0.564179,	0.000043
2.376391,	0.564178,	0.000043
2.383860,	0.564177,	0.000043
2.391328,	0.564176,	0.000043
2.398797,	0.564174,	0.000043
2.406265,	0.564173,	0.000043
2.413733,	0.564172,	0.000043
2.421202,	0.564171,	0.000043
2.428670,	0.564169,	0.000043
2.436138,	0.564168,	0.000043
2.443607,	0.564167,	0.000043
2.451075,	0.564165,	0.000043
2.458544,	0.564164,	0.000043
2.466012,	0.564163,	0.000043
2.473480,	0.564162,	0.000043
2.480949,	0.564160,	0.000043
2.488417,	0.564159,	0.000043
2.495885,	0.564158,	0.000043
2.503354,	0.564156,	0.000043
2.510822,	0.564155,	0.000043
2.518291,	0.564154,	0.000043
2.525759,	0.564153,	0.000043
2.533228,	0.564151,	0.000043
2.540696,	0.564150,	0.000043
2.548164,	0.564149,	0.000043
2.555633,	0.564147,	0.000043
2.563101,	0.564146,	0.000043
2.570570,	0.564145,	0.000043
2.578038,	0.564143,	0.000043
2.585506,	0.564142,	0.000043
2.592974,	0.564141,	0.000043
2.600443,	0.564140,	0.000043
2.607912,	0.564138,	0.000043
2.615380,	0.564137,	0.000043
2.622848,	0.564136,	0.000043
2.630317,	0.564134,	0.000043
2.637785,	0.564133,	0.000043
2.645253,	0.564132,	0.000043
2.279301,	0.569960,	0.000043
2.286769,	0.569959,	0.000043
2.294237,	0.569957,	0.000043
2.301706,	0.569956,	0.000043
2.309174,	0.569955,	0.000043
2.316643,	0.569954,	0.000043
2.324111,	0.569953,	0.000043
2.331580,	0.569952,	0.000043
2.339048,	0.569950,	0.000043
2.346516,	0.569949,	0.000043
2.353985,	0.569948,	0.000043
2.361453,	0.569947,	0.000043
2.368921,	0.569946,	0.000043
2.376390,	0.569944,	0.000043
2.383858,	0.569943,	0.000043
2.391327,	0.569942,	0.000043
2.398795,	0.569941,	0.000043
2.406263,	0.569940,	0.000043
2.413732,	0.569938,	0.000043
2.421200,	0.569937,	0.000043
2.428669,	0.569936,	0.000043
2.436137,	0.569935,	0.000043
2.443605,	0.569934,	0.000043
2.451074,	0.569932,	0.000043
2.458542,	0.569931,	0.000043
2.466011,	0.569930,	0.000043
2.473479,	0.569929,	0.000043
2.480947,	0.569928,	0.000043
2.488416,	0.569927,	0.000043
2.495884,	0.569925,	0.000043
2.503353,	0.569924,	0.000043
2.510821,	0.569923,	0.000043
2.518289,	0.569922,	0.000043
2.525758,	0.569921,	0.000043
2.533226,	0.569919,	0.000043
2.540694,	0.569918,	0.000043
2.548163,	0.569917,	0.000043
2.555632,	0.569916,	0.000043
2.563100,	0.569915,	0.000043
2.570568,	0.569913,	0.000043
2.578037,	0.569912,	0.000043
2.585505,	0.569911,	0.000043
2.592974,	0.569910,	0.000043
2.600442,	0.569909,	0.000043
2.607910,	0.569907,	0.000043
2.615378,	0.569906,	0.000043
2.622847,	0.569905,	0.000043
2.630316,	0.569904,	0.000043
2.637784,	0.569902,	0.000043
2.645253,	0.569901,	0.000043
2.279299,	0.575725,	0.000043
2.286767,	0.575724,	0.000043
2.294236,	0.575723,	0.000043
2.301704,	0.575722,	0.000043
2.309172,	0.575721,	0.000043
2.316641,	0.575720,	0.000043
2.324109,	0.575719,	0.000043
2.331578,	0.575717,	0.000043
2.339046,	0.575716,	0.000043
2.346515,	0.575715,	0.000043
2.353983,	0.575714,	0.000043
2.361451,	0.575713,	0.000043
2.368920,	0.575712,	0.000043
2.376388,	0.575711,	0.000043
2.383857,	0.575710,	0.000043
2.391325,	0.575709,	0.000043
2.398793,	0.575708,	0.000043
2.406262,	0.575706,	0.000043
2.413730,	0.575705,	0.000043
2.421199,	0.575704,	0.000043
2.428667,	0.575703,	0.000043
2.436136,	0.575702,	0.000043
2.443604,	0.575701,	0.000043
2.451072,	0.575700,	0.000043
2.458541,	0.575699,	0.000043
2.466009,	0.575698,	0.000043
2.473477,	0.575696,	0.000043
2.480946,	0.575695,	0.000043
2.488415,	0.575694,	0.000043
2.495883,	0.575693,	0.000043
2.503351,	0.575692,	0.000043
2.510819,	0.575691,	0.000043
2.518288,	0.575690,	0.000043
2.525756,	0.575689,	0.000043
2.533225,	0.575688,	0.000043
2.540694,	0.575687,	0.000043
2.548162,	0.575685,	0.000043
2.555630,	0.575684,	0.000043
2.563099,	0.575683,	0.000043
2.570567,	0.575682,	0.000043
2.578035,	0.575681,	0.000043
2.585504,	0.575680,	0.000043
2.592973,	0.575679,	0.000043
2.600441,	0.575678,	0.000043
2.607909,	0.575677,	0.000043
2.615378,	0.575675,	0.000043
2.622846,	0.575674,	0.000043
2.630314,	0.575673,	0.000043
2.637783,	0.575672,	0.000043
2.645252,	0.575671,	0.000043
2.279297,	0.581491,	0.000043
2.286766,	0.581490,	0.000043
2.294234,	0.581489,	0.000043
2.301702,	0.581488,	0.000043
2.309171,	0.581487,	0.000043
2.316639,	0.581486,	0.000043
2.324108,	0.581484,	0.000043
2.331576,	0.581484,	0.000043
2.339044,	0.581482,	0.000043
2.346513,	0.581481,	0.000043
2.353981,	0.581480,	0.000043
2.361450,	0.581479,	0.000043
2.368918,	0.581478,	0.000043
2.376387,	0.581477,	0.000043
2.383855,	0.581476,	0.000043
2.391323,	0.581475,	0.000043
2.398792,	0.581474,	0.000043
2.406260,	0.581473,	0.000043
2.413729,	0.581472,	0.000043
2.421197,	0.581471,	0.000043
2.428666,	0.581470,	0.000043
2.436134,	0.581469,	0.000043
2.443602,	0.581468,	0.000043
2.451071,	0.581467,	0.000043
2.458539,	0.581466,	0.000043
2.466008,	0.581465,	0.000043
2.473476,	0.581464,	0.000043
2.480945,	0.581463,	0.000043
2.488413,	0.581462,	0.000043
2.495882,	0.581461,	0.000043
2.503350,	0.581460,	0.000043
2.510819,	0.581459,	0.000043
2.518287,	0.581458,	0.000043
2.525755,	0.581457,	0.000043
2.533224,	0.581456,	0.000043
2.540692,	0.581455,	0.000043
2.548161,	0.581454,	0.000043
2.555629,	0.581453,	0.000043
2.563098,	0.581452,	0.000043
2.570566,	0.581451,	0.000043
2.578035,	0.581450,	0.000043
2.585503,	0.581449,	0.000043
2.592971,	0.581448,	0.000043
2.600439,	0.581447,	0.000043
2.607908,	0.581446,	0.000043
2.615376,	0.581445,	0.000043
2.622845,	0.581444,	0.000043
2.630314,	0.581443,	0.000043
2.637782,	0.581442,	0.000043
2.645251,	0.581441,	0.000043
2.279295,	0.587256,	0.000043
2.286764,	0.587255,	0.000043
2.294232,	0.587254,	0.000043
2.301701,	0.587253,	0.000043
2.309169,	0.587253,	0.000043
2.316638,	0.587252,	0.000043
2.324106,	0.587251,	0.000043
2.331574,	0.587250,	0.000043
2.339043,	0.587249,	0.000043
2.346511,	0.587248,	0.000043
2.353980,	0.587247,	0.000043
2.361448,	0.587246,	0.000043
2.368917,	0.587245,	0.000043
2.376385,	0.587244,	0.000043
2.383854,	0.587243,	0.000043
2.391322,	0.587242,	0.000043
2.398791,	0.587241,	0.000043
2.406259,	0.587240,	0.000043
2.413727,	0.587240,	0.000043
2.421196,	0.587239,	0.000043
2.428664,	0.587238,	0.000043
2.436133,	0.587237,	0.000043
2.443601,	0.587236,	0.000043
2.451070,	0.587235,	0.000043
2.458538,	0.587234,	0.000043
2.466007,	0.587233,	0.000043
2.473475,	0.587232,	0.000043
2.480943,	0.587231,	0.000043
2.488412,	0.587230,	0.000043
2.495880,	0.587229,	0.000043
2.503349,	0.587228,	0.000043