TITLE = "MeshVolumeStats"
VARIABLES = "X", "Y", "VOL"
ZONE I=72, J=26, DATAPACKING=POINT
0.559875,	0.151726,	0.000013
0.563925,	0.152799,	0.000013
0.567974,	0.153872,	0.000013
0.572023,	0.154945,	0.000013
0.576073,	0.156018,	0.000013
0.580122,	0.157091,	0.000013
0.584171,	0.158164,	0.000012
0.588221,	0.159237,	0.000012
0.592270,	0.160310,	0.000012
0.596319,	0.161383,	0.000012
0.600368,	0.162456,	0.000012
0.604418,	0.163529,	0.000012
0.608467,	0.164602,	0.000012
0.612516,	0.165675,	0.000012
0.616566,	0.166748,	0.000012
0.620615,	0.167821,	0.000012
0.624664,	0.168894,	0.000011
0.628713,	0.169966,	0.000011
0.632763,	0.171039,	0.000011
0.636812,	0.172112,	0.000011
0.640861,	0.173185,	0.000011
0.644911,	0.174258,	0.000011
0.648960,	0.175331,	0.000011
0.653009,	0.176404,	0.000011
0.657058,	0.177477,	0.000011
0.661108,	0.178550,	0.000011
0.665157,	0.179623,	0.000010
0.669206,	0.180696,	0.000010
0.673256,	0.181769,	0.000010
0.677305,	0.182842,	0.000010
0.681354,	0.183915,	0.000010
0.685404,	0.184988,	0.000010
0.689453,	0.186061,	0.000010
0.693502,	0.187134,	0.000010
0.697551,	0.188207,	0.000010
0.701601,	0.189280,	0.000010
0.705650,	0.190353,	0.000009
0.709699,	0.191426,	0.000009
0.713749,	0.192499,	0.000009
0.717798,	0.193572,	0.000009
0.721847,	0.194645,	0.000009
0.725897,	0.195718,	0.000009
0.729946,	0.196791,	0.000009
0.733995,	0.197864,	0.000009
0.738044,	0.198937,	0.000009
0.742094,	0.200010,	0.000009
0.746143,	0.201083,	0.000009
0.750192,	0.202156,	0.000008
0.754242,	0.203229,	0.000008
0.758291,	0.204302,	0.000008
0.762340,	0.205375,	0.000008
0.766389,	0.206447,	0.000008
0.770439,	0.207520,	0.000008
0.774488,	0.208593,	0.000008
0.778537,	0.209666,	0.000008
0.782587,	0.210739,	0.000008
0.786636,	0.211812,	0.000008
0.790685,	0.212885,	0.000007
0.794735,	0.213958,	0.000007
0.798784,	0.215031,	0.000007
0.802833,	0.216104,	0.000007
0.806882,	0.217177,	0.000007
0.810932,	0.218250,	0.000007
0.814981,	0.219323,	0.000007
0.819030,	0.220396,	0.000007
0.823080,	0.221469,	0.000007
0.827129,	0.222542,	0.000007
0.831178,	0.223615,	0.000006
0.835227,	0.224688,	0.000006
0.839277,	0.225761,	0.000006
0.843326,	0.226834,	0.000006
0.847375,	0.227907,	0.000006
0.559227,	0.154763,	0.000013
0.563286,	0.155814,	0.000013
0.567344,	0.156865,	0.000013
0.571402,	0.157916,	0.000013
0.575461,	0.158968,	0.000013
0.579519,	0.160019,	0.000013
0.583578,	0.161070,	0.000012
0.587636,	0.162122,	0.000012
0.591694,	0.163173,	0.000012
0.595753,	0.164224,	0.000012
0.599811,	0.165276,	0.000012
0.603869,	0.166327,	0.000012
0.607928,	0.167378,	0.000012
0.611986,	0.168429,	0.000012
0.616044,	0.169481,	0.000012
0.620103,	0.170532,	0.000012
0.624161,	0.171583,	0.000011
0.628219,	0.172635,	0.000011
0.632278,	0.173686,	0.000011
0.636336,	0.174737,	0.000011
0.640394,	0.175788,	0.000011
0.644453,	0.176840,	0.000011
0.648511,	0.177891,	0.000011
0.652570,	0.178942,	0.000011
0.656628,	0.179994,	0.000011
0.660686,	0.181045,	0.000011
0.664745,	0.182096,	0.000010
0.668803,	0.183148,	0.000010
0.672861,	0.184199,	0.000010
0.676920,	0.185250,	0.000010
0.680978,	0.186301,	0.000010
0.685036,	0.187353,	0.000010
0.689095,	0.188404,	0.000010
0.693153,	0.189455,	0.000010
0.697212,	0.190507,	0.000010
0.701270,	0.191558,	0.000010
0.705328,	0.192609,	0.000009
0.709387,	0.193661,	0.000009
0.713445,	0.194712,	0.000009
0.717503,	0.195763,	0.000009
0.721562,	0.196814,	0.000009
0.725620,	0.197866,	0.000009
0.729678,	0.198917,	0.000009
0.733737,	0.199968,	0.000009
0.737795,	0.201020,	0.000009
0.741853,	0.202071,	0.000009
0.745912,	0.203122,	0.000009
0.749970,	0.204173,	0.000008
0.754029,	0.205225,	0.000008
0.758087,	0.206276,	0.000008
0.762145,	0.207327,	0.000008
0.766204,	0.208379,	0.000008
0.770262,	0.209430,	0.000008
0.774320,	0.210481,	0.000008
0.778379,	0.211533,	0.000008
0.782437,	0.212584,	0.000008
0.786495,	0.213635,	0.000008
0.790554,	0.214686,	0.000007
0.794612,	0.215738,	0.000007
0.798671,	0.216789,	0.000007
0.802729,	0.217840,	0.000007
0.806787,	0.218892,	0.000007
0.810846,	0.219943,	0.000007
0.814904,	0.220994,	0.000007
0.818962,	0.222045,	0.000007
0.823021,	0.223097,	0.000007
0.827079,	0.224148,	0.000007
0.831137,	0.225199,	0.000006
0.835196,	0.226251,	0.000006
0.839254,	0.227302,	0.000006
0.843312,	0.228353,	0.000006
0.847371,	0.229405,	0.000006
0.558579,	0.157799,	0.000013
0.562647,	0.158829,	0.000013
0.566714,	0.159858,	0.000013
0.570781,	0.160888,	0.000013
0.574849,	0.161918,	0.000013
0.578916,	0.162947,	0.000013
0.582984,	0.163977,	0.000012
0.587051,	0.165007,	0.000012
0.591119,	0.166036,	0.000012
0.595186,	0.167066,	0.000012
0.599253,	0.168095,	0.000012
0.603321,	0.169125,	0.000012
0.607388,	0.170155,	0.000012
0.611456,	0.171184,	0.000012
0.615523,	0.172214,	0.000012
0.619591,	0.173244,	0.000012
0.623658,	0.174273,	0.000011
0.627725,	0.175303,	0.000011
0.631793,	0.176332,	0.000011
0.635860,	0.177362,	0.000011
0.639928,	0.178392,	0.000011
0.643995,	0.179421,	0.000011
0.648062,	0.180451,	0.000011
0.652130,	0.181480,	0.000011
0.656197,	0.182510,	0.000011
0.660265,	0.183540,	0.000011
0.664332,	0.184569,	0.000010
0.668400,	0.185599,	0.000010
0.672467,	0.186629,	0.000010
0.676535,	0.187658,	0.000010
0.680602,	0.188688,	0.000010
0.684669,	0.189717,	0.000010
0.688737,	0.190747,	0.000010
0.692804,	0.191777,	0.000010
0.696872,	0.192806,	0.000010
0.700939,	0.193836,	0.000010
0.705006,	0.194866,	0.000010
0.709074,	0.195895,	0.000009
0.713141,	0.196925,	0.000009
0.717209,	0.197954,	0.000009
0.721276,	0.198984,	0.000009
0.725344,	0.200014,	0.000009
0.729411,	0.201043,	0.000009
0.733478,	0.202073,	0.000009
0.737546,	0.203102,	0.000009
0.741613,	0.204132,	0.000009
0.745681,	0.205162,	0.000009
0.749748,	0.206191,	0.000008
0.753816,	0.207221,	0.000008
0.757883,	0.208251,	0.000008
0.761950,	0.209280,	0.000008
0.766018,	0.210310,	0.000008
0.770085,	0.211339,	0.000008
0.774153,	0.212369,	0.000008
0.778220,	0.213399,	0.000008
0.782287,	0.214428,	0.000008
0.786355,	0.215458,	0.000008
0.790422,	0.216488,	0.000007
0.794490,	0.217517,	0.000007
0.798557,	0.218547,	0.000007
0.802625,	0.219576,	0.000007
0.806692,	0.220606,	0.000007
0.810759,	0.221636,	0.000007
0.814827,	0.222665,	0.000007
0.818894,	0.223695,	0.000007
0.822962,	0.224724,	0.000007
0.827029,	0.225754,	0.000007
0.831097,	0.226784,	0.000006
0.835164,	0.227813,	0.000006
0.839231,	0.228843,	0.000006
0.843299,	0.229873,	0.000006
0.847366,	0.230902,	0.000006
0.557931,	0.160836,	0.000013
0.562008,	0.161844,	0.000013
0.566084,	0.162852,	0.000013
0.570161,	0.163860,	0.000013
0.574237,	0.164868,	0.000013
0.578314,	0.165876,	0.000013
0.582390,	0.166884,	0.000012
0.586466,	0.167891,	0.000012
0.590543,	0.168899,	0.000012
0.594619,	0.169907,	0.000012
0.598696,	0.170915,	0.000012
0.602772,	0.171923,	0.000012
0.606849,	0.172931,	0.000012
0.610925,	0.173939,	0.000012
0.615002,	0.174947,	0.000012
0.619078,	0.175955,	0.000012
0.623155,	0.176963,	0.000011
0.627231,	0.177971,	0.000011
0.631308,	0.178979,	0.000011
0.635384,	0.179987,	0.000011
0.639461,	0.180995,	0.000011
0.643537,	0.182003,	0.000011
0.647614,	0.183011,	0.000011
0.651690,	0.184019,	0.000011
0.655767,	0.185027,	0.000011
0.659843,	0.186034,	0.000011
0.663920,	0.187042,	0.000010
0.667996,	0.188050,	0.000010
0.672073,	0.189058,	0.000010
0.676149,	0.190066,	0.000010
0.680226,	0.191074,	0.000010
0.684302,	0.192082,	0.000010
0.688379,	0.193090,	0.000010
0.692455,	0.194098,	0.000010
0.696532,	0.195106,	0.000010
0.700608,	0.196114,	0.000010
0.704685,	0.197122,	0.000010
0.708761,	0.198130,	0.000009
0.712838,	0.199138,	0.000009
0.716914,	0.200146,	0.000009
0.720991,	0.201154,	0.000009
0.725067,	0.202162,	0.000009
0.729144,	0.203170,	0.000009
0.733220,	0.204177,	0.000009
0.737297,	0.205185,	0.000009
0.741373,	0.206193,	0.000009
0.745450,	0.207201,	0.000009
0.749526,	0.208209,	0.000008
0.753603,	0.209217,	0.000008
0.757679,	0.210225,	0.000008
0.761756,	0.211233,	0.000008
0.765832,	0.212241,	0.000008
0.769908,	0.213249,	0.000008
0.773985,	0.214257,	0.000008
0.778061,	0.215265,	0.000008
0.782138,	0.216273,	0.000008
0.786214,	0.217281,	0.000008
0.790291,	0.218289,	0.000007
0.794367,	0.219297,	0.000007
0.798444,	0.220304,	0.000007
0.802520,	0.221312,	0.000007
0.806597,	0.222320,	0.000007
0.810673,	0.223328,	0.000007
0.814750,	0.224336,	0.000007
0.818826,	0.225344,	0.000007
0.822903,	0.226352,	0.000007
0.826979,	0.227360,	0.000007
0.831056,	0.228368,	0.000006
0.835132,	0.229376,	0.000006
0.839209,	0.230384,	0.000006
0.843285,	0.231392,	0.000006
0.847362,	0.232400,	0.000006
0.557283,	0.163873,	0.000013
0.561368,	0.164859,	0.000013
0.565454,	0.165845,	0.000013
0.569540,	0.166831,	0.000013
0.573625,	0.167818,	0.000013
0.577711,	0.168804,	0.000013
0.581796,	0.169790,	0.000012
0.585882,	0.170776,	0.000012
0.589967,	0.171763,	0.000012
0.594053,	0.172749,	0.000012
0.598138,	0.173735,	0.000012
0.602224,	0.174721,	0.000012
0.606310,	0.175708,	0.000012
0.610395,	0.176694,	0.000012
0.614481,	0.177680,	0.000012
0.618566,	0.178667,	0.000012
0.622652,	0.179653,	0.000011
0.626737,	0.180639,	0.000011
0.630823,	0.181625,	0.000011
0.634908,	0.182612,	0.000011
0.638994,	0.183598,	0.000011
0.643080,	0.184584,	0.000011
0.647165,	0.185570,	0.000011
0.651251,	0.186557,	0.000011
0.655336,	0.187543,	0.000011
0.659422,	0.188529,	0.000011
0.663507,	0.189515,	0.000011
0.667593,	0.190502,	0.000010
0.671678,	0.191488,	0.000010
0.675764,	0.192474,	0.000010
0.679850,	0.193461,	0.000010
0.683935,	0.194447,	0.000010
0.688021,	0.195433,	0.000010
0.692106,	0.196419,	0.000010
0.696192,	0.197406,	0.000010
0.700277,	0.198392,	0.000010
0.704363,	0.199378,	0.000010
0.708448,	0.200364,	0.000009
0.712534,	0.201351,	0.000009
0.716620,	0.202337,	0.000009
0.720705,	0.203323,	0.000009
0.724791,	0.204309,	0.000009
0.728876,	0.205296,	0.000009
0.732962,	0.206282,	0.000009
0.737047,	0.207268,	0.000009
0.741133,	0.208255,	0.000009
0.745218,	0.209241,	0.000009
0.749304,	0.210227,	0.000008
0.753389,	0.211213,	0.000008
0.757475,	0.212200,	0.000008
0.761561,	0.213186,	0.000008
0.765646,	0.214172,	0.000008
0.769732,	0.215158,	0.000008
0.773817,	0.216145,	0.000008
0.777903,	0.217131,	0.000008
0.781988,	0.218117,	0.000008
0.786074,	0.219103,	0.000008
0.790159,	0.220090,	0.000007
0.794245,	0.221076,	0.000007
0.798331,	0.222062,	0.000007
0.802416,	0.223049,	0.000007
0.806502,	0.224035,	0.000007
0.810587,	0.225021,	0.000007
0.814673,	0.226007,	0.000007
0.818758,	0.226994,	0.000007
0.822844,	0.227980,	0.000007
0.826929,	0.228966,	0.000007
0.831015,	0.229952,	0.000007
0.835101,	0.230939,	0.000006
0.839186,	0.231925,	0.000006
0.843272,	0.232911,	0.000006
0.847357,	0.233897,	0.000006
0.556635,	0.166909,	0.000013
0.560729,	0.167874,	0.000013
0.564824,	0.168838,	0.000013
0.568919,	0.169803,	0.000013
0.573013,	0.170768,	0.000013
0.577108,	0.171732,	0.000013
0.581202,	0.172697,	0.000012
0.585297,	0.173661,	0.000012
0.589392,	0.174626,	0.000012
0.593486,	0.175590,	0.000012
0.597581,	0.176555,	0.000012
0.601676,	0.177520,	0.000012
0.605770,	0.178484,	0.000012
0.609865,	0.179449,	0.000012
0.613959,	0.180413,	0.000012
0.618054,	0.181378,	0.000012
0.622149,	0.182343,	0.000011
0.626243,	0.183307,	0.000011
0.630338,	0.184272,	0.000011
0.634433,	0.185236,	0.000011
0.638527,	0.186201,	0.000011
0.642622,	0.187166,	0.000011
0.646716,	0.188130,	0.000011
0.650811,	0.189095,	0.000011
0.654906,	0.190059,	0.000011
0.659000,	0.191024,	0.000011
0.663095,	0.191989,	0.000011
0.667189,	0.192953,	0.000010
0.671284,	0.193918,	0.000010
0.675379,	0.194882,	0.000010
0.679473,	0.195847,	0.000010
0.683568,	0.196811,	0.000010
0.687663,	0.197776,	0.000010
0.691757,	0.198741,	0.000010
0.695852,	0.199705,	0.000010
0.699946,	0.200670,	0.000010
0.704041,	0.201634,	0.000010
0.708136,	0.202599,	0.000009
0.712230,	0.203564,	0.000009
0.716325,	0.204528,	0.000009
0.720420,	0.205493,	0.000009
0.724514,	0.206457,	0.000009
0.728609,	0.207422,	0.000009
0.732703,	0.208387,	0.000009
0.736798,	0.209351,	0.000009
0.740893,	0.210316,	0.000009
0.744987,	0.211280,	0.000009
0.749082,	0.212245,	0.000008
0.753176,	0.213209,	0.000008
0.757271,	0.214174,	0.000008
0.761366,	0.215139,	0.000008
0.765460,	0.216103,	0.000008
0.769555,	0.217068,	0.000008
0.773650,	0.218032,	0.000008
0.777744,	0.218997,	0.000008
0.781839,	0.219962,	0.000008
0.785933,	0.220926,	0.000008
0.790028,	0.221891,	0.000008
0.794123,	0.222855,	0.000007
0.798217,	0.223820,	0.000007
0.802312,	0.224785,	0.000007
0.806407,	0.225749,	0.000007
0.810501,	0.226714,	0.000007
0.814596,	0.227678,	0.000007
0.818690,	0.228643,	0.000007
0.822785,	0.229608,	0.000007
0.826880,	0.230572,	0.000007
0.830974,	0.231537,	0.000007
0.835069,	0.232501,	0.000006
0.839163,	0.233466,	0.000006
0.843258,	0.234430,	0.000006
0.847353,	0.235395,	0.000006
0.555987,	0.169946,	0.000013
0.560090,	0.170889,	0.000013
0.564194,	0.171832,	0.000013
0.568298,	0.172775,	0.000013
0.572401,	0.173717,	0.000013
0.576505,	0.174660,	0.000013
0.580609,	0.175603,	0.000012
0.584712,	0.176546,	0.000012
0.588816,	0.177489,	0.000012
0.592920,	0.178432,	0.000012
0.597024,	0.179375,	0.000012
0.601127,	0.180318,	0.000012
0.605231,	0.181261,	0.000012
0.609335,	0.182204,	0.000012
0.613438,	0.183147,	0.000012
0.617542,	0.184090,	0.000012
0.621646,	0.185032,	0.000012
0.625749,	0.185975,	0.000011
0.629853,	0.186918,	0.000011
0.633957,	0.187861,	0.000011
0.638060,	0.188804,	0.000011
0.642164,	0.189747,	0.000011
0.646268,	0.190690,	0.000011
0.650371,	0.191633,	0.000011
0.654475,	0.192576,	0.000011
0.658579,	0.193519,	0.000011
0.662682,	0.194462,	0.000011
0.666786,	0.195405,	0.000010
0.670890,	0.196347,	0.000010
0.674993,	0.197290,	0.000010
0.679097,	0.198233,	0.000010
0.683201,	0.199176,	0.000010
0.687305,	0.200119,	0.000010
0.691408,	0.201062,	0.000010
0.695512,	0.202005,	0.000010
0.699616,	0.202948,	0.000010
0.703719,	0.203891,	0.000010
0.707823,	0.204834,	0.000009
0.711927,	0.205777,	0.000009
0.716030,	0.206719,	0.000009
0.720134,	0.207662,	0.000009
0.724238,	0.208605,	0.000009
0.728341,	0.209548,	0.000009
0.732445,	0.210491,	0.000009
0.736549,	0.211434,	0.000009
0.740652,	0.212377,	0.000009
0.744756,	0.213320,	0.000009
0.748860,	0.214263,	0.000008
0.752963,	0.215206,	0.000008
0.757067,	0.216149,	0.000008
0.761171,	0.217092,	0.000008
0.765274,	0.218034,	0.000008
0.769378,	0.218977,	0.000008
0.773482,	0.219920,	0.000008
0.777586,	0.220863,	0.000008
0.781689,	0.221806,	0.000008
0.785793,	0.222749,	0.000008
0.789897,	0.223692,	0.000008
0.794000,	0.224635,	0.000007
0.798104,	0.225578,	0.000007
0.802208,	0.226521,	0.000007
0.806311,	0.227464,	0.000007
0.810415,	0.228406,	0.000007
0.814519,	0.229349,	0.000007
0.818622,	0.230292,	0.000007
0.822726,	0.231235,	0.000007
0.826830,	0.232178,	0.000007
0.830933,	0.233121,	0.000007
0.835037,	0.234064,	0.000006
0.839141,	0.235007,	0.000006
0.843244,	0.235950,	0.000006
0.847348,	0.236893,	0.000006
0.555339,	0.172982,	0.000013
0.559451,	0.173904,	0.000013
0.563564,	0.174825,	0.000013
0.567677,	0.175746,	0.000013
0.571790,	0.176667,	0.000013
0.575902,	0.177589,	0.000013
0.580015,	0.178510,	0.000013
0.584128,	0.179431,	0.000012
0.588241,	0.180352,	0.000012
0.592353,	0.181274,	0.000012
0.596466,	0.182195,	0.000012
0.600579,	0.183116,	0.000012
0.604692,	0.184037,	0.000012
0.608804,	0.184959,	0.000012
0.612917,	0.185880,	0.000012
0.617030,	0.186801,	0.000012
0.621142,	0.187722,	0.000012
0.625255,	0.188644,	0.000011
0.629368,	0.189565,	0.000011
0.633481,	0.190486,	0.000011
0.637593,	0.191407,	0.000011
0.641706,	0.192328,	0.000011
0.645819,	0.193250,	0.000011
0.649932,	0.194171,	0.000011
0.654044,	0.195092,	0.000011
0.658157,	0.196013,	0.000011
0.662270,	0.196935,	0.000011
0.666383,	0.197856,	0.000010
0.670495,	0.198777,	0.000010
0.674608,	0.199698,	0.000010
0.678721,	0.200620,	0.000010
0.682834,	0.201541,	0.000010
0.686946,	0.202462,	0.000010
0.691059,	0.203383,	0.000010
0.695172,	0.204305,	0.000010
0.699285,	0.205226,	0.000010
0.703397,	0.206147,	0.000010
0.707510,	0.207068,	0.000009
0.711623,	0.207990,	0.000009
0.715736,	0.208911,	0.000009
0.719848,	0.209832,	0.000009
0.723961,	0.210753,	0.000009
0.728074,	0.211674,	0.000009
0.732187,	0.212596,	0.000009
0.736299,	0.213517,	0.000009
0.740412,	0.214438,	0.000009
0.744525,	0.215359,	0.000009
0.748638,	0.216281,	0.000009
0.752750,	0.217202,	0.000008
0.756863,	0.218123,	0.000008
0.760976,	0.219044,	0.000008
0.765089,	0.219966,	0.000008
0.769201,	0.220887,	0.000008
0.773314,	0.221808,	0.000008
0.777427,	0.222729,	0.000008
0.781540,	0.223651,	0.000008
0.785652,	0.224572,	0.000008
0.789765,	0.225493,	0.000008
0.793878,	0.226414,	0.000007
0.797991,	0.227336,	0.000007
0.802103,	0.228257,	0.000007
0.806216,	0.229178,	0.000007
0.810329,	0.230099,	0.000007
0.814442,	0.231020,	0.000007
0.818554,	0.231942,	0.000007
0.822667,	0.232863,	0.000007
0.826780,	0.233784,	0.000007
0.830893,	0.234705,	0.000007
0.835005,	0.235627,	0.000006
0.839118,	0.236548,	0.000006
0.843231,	0.237469,	0.000006
0.847344,	0.238390,	0.000006
0.554690,	0.176019,	0.000013
0.558812,	0.176919,	0.000013
0.562934,	0.177818,	0.000013
0.567056,	0.178718,	0.000013
0.571178,	0.179617,	0.000013
0.575299,	0.180517,	0.000013
0.579421,	0.181416,	0.000013
0.583543,	0.182316,	0.000012
0.587665,	0.183216,	0.000012
0.591787,	0.184115,	0.000012
0.595909,	0.185015,	0.000012
0.600030,	0.185914,	0.000012
0.604152,	0.186814,	0.000012
0.608274,	0.187713,	0.000012
0.612396,	0.188613,	0.000012
0.616518,	0.189513,	0.000012
0.620639,	0.190412,	0.000012
0.624761,	0.191312,	0.000011
0.628883,	0.192211,	0.000011
0.633005,	0.193111,	0.000011
0.637127,	0.194010,	0.000011
0.641248,	0.194910,	0.000011
0.645370,	0.195809,	0.000011
0.649492,	0.196709,	0.000011
0.653614,	0.197609,	0.000011
0.657736,	0.198508,	0.000011
0.661858,	0.199408,	0.000011
0.665979,	0.200307,	0.000010
0.670101,	0.201207,	0.000010
0.674223,	0.202106,	0.000010
0.678345,	0.203006,	0.000010
0.682467,	0.203906,	0.000010
0.686588,	0.204805,	0.000010
0.690710,	0.205705,	0.000010
0.694832,	0.206604,	0.000010
0.698954,	0.207504,	0.000010
0.703076,	0.208403,	0.000010
0.707197,	0.209303,	0.000009
0.711319,	0.210202,	0.000009
0.715441,	0.211102,	0.000009
0.719563,	0.212002,	0.000009
0.723685,	0.212901,	0.000009
0.727807,	0.213801,	0.000009
0.731928,	0.214700,	0.000009
0.736050,	0.215600,	0.000009
0.740172,	0.216499,	0.000009
0.744294,	0.217399,	0.000009
0.748416,	0.218299,	0.000009
0.752537,	0.219198,	0.000008
0.756659,	0.220098,	0.000008
0.760781,	0.220997,	0.000008
0.764903,	0.221897,	0.000008
0.769025,	0.222796,	0.000008
0.773146,	0.223696,	0.000008
0.777268,	0.224595,	0.000008
0.781390,	0.225495,	0.000008
0.785512,	0.226395,	0.000008
0.789634,	0.227294,	0.000008
0.793756,	0.228194,	0.000007
0.797877,	0.229093,	0.000007
0.801999,	0.229993,	0.000007
0.806121,	0.230892,	0.000007
0.810243,	0.231792,	0.000007
0.814365,	0.232692,	0.000007
0.818486,	0.233591,	0.000007
0.822608,	0.234491,	0.000007
0.826730,	0.235390,	0.000007
0.830852,	0.236290,	0.000007
0.834974,	0.237189,	0.000006
0.839095,	0.238089,	0.000006
0.843217,	0.238988,	0.000006
0.847339,	0.239888,	0.000006
0.554042,	0.179056,	0.000013
0.558173,	0.179934,	0.000013
0.562304,	0.180812,	0.000013
0.566435,	0.181689,	0.000013
0.570566,	0.182567,	0.000013
0.574697,	0.183445,	0.000013
0.578828,	0.184323,	0.000013
0.582958,	0.185201,	0.000012
0.587089,	0.186079,	0.000012
0.591220,	0.186957,	0.000012
0.595351,	0.187835,	0.000012
0.599482,	0.188712,	0.000012
0.603613,	0.189590,	0.000012
0.607744,	0.190468,	0.000012
0.611875,	0.191346,	0.000012
0.616005,	0.192224,	0.000012
0.620136,	0.193102,	0.000012
0.624267,	0.193980,	0.000011
0.628398,	0.194858,	0.000011
0.632529,	0.195736,	0.000011
0.636660,	0.196613,	0.000011
0.640791,	0.197491,	0.000011
0.644922,	0.198369,	0.000011
0.649052,	0.199247,	0.000011
0.653183,	0.200125,	0.000011
0.657314,	0.201003,	0.000011
0.661445,	0.201881,	0.000011
0.665576,	0.202759,	0.000010
0.669707,	0.203637,	0.000010
0.673838,	0.204514,	0.000010
0.677969,	0.205392,	0.000010
0.682099,	0.206270,	0.000010
0.686230,	0.207148,	0.000010
0.690361,	0.208026,	0.000010
0.694492,	0.208904,	0.000010
0.698623,	0.209782,	0.000010
0.702754,	0.210660,	0.000010
0.706885,	0.211538,	0.000010
0.711016,	0.212415,	0.000009
0.715146,	0.213293,	0.000009
0.719277,	0.214171,	0.000009
0.723408,	0.215049,	0.000009
0.727539,	0.215927,	0.000009
0.731670,	0.216805,	0.000009
0.735801,	0.217683,	0.000009
0.739932,	0.218561,	0.000009
0.744063,	0.219439,	0.000009
0.748194,	0.220316,	0.000009
0.752324,	0.221194,	0.000008
0.756455,	0.222072,	0.000008
0.760586,	0.222950,	0.000008
0.764717,	0.223828,	0.000008
0.768848,	0.224706,	0.000008
0.772979,	0.225584,	0.000008
0.777110,	0.226462,	0.000008
0.781240,	0.227339,	0.000008
0.785371,	0.228217,	0.000008
0.789502,	0.229095,	0.000008
0.793633,	0.229973,	0.000007
0.797764,	0.230851,	0.000007
0.801895,	0.231729,	0.000007
0.806026,	0.232607,	0.000007
0.810157,	0.233485,	0.000007
0.814288,	0.234363,	0.000007
0.818418,	0.235240,	0.000007
0.822549,	0.236118,	0.000007
0.826680,	0.236996,	0.000007
0.830811,	0.237874,	0.000007
0.834942,	0.238752,	0.000006
0.839073,	0.239630,	0.000006
0.843204,	0.240508,	0.000006
0.847335,	0.241386,	0.000006
0.553394,	0.182092,	0.000013
0.557534,	0.182949,	0.000013
0.561674,	0.183805,	0.000013
0.565814,	0.184661,	0.000013
0.569954,	0.185517,	0.000013
0.574094,	0.186373,	0.000013
0.578234,	0.187230,	0.000013
0.582374,	0.188086,	0.000012
0.586514,	0.188942,	0.000012
0.590654,	0.189798,	0.000012
0.594794,	0.190654,	0.000012
0.598934,	0.191511,	0.000012
0.603073,	0.192367,	0.000012
0.607213,	0.193223,	0.000012
0.611353,	0.194079,	0.000012
0.615493,	0.194936,	0.000012
0.619633,	0.195792,	0.000012
0.623773,	0.196648,	0.000011
0.627913,	0.197504,	0.000011
0.632053,	0.198360,	0.000011
0.636193,	0.199217,	0.000011
0.640333,	0.200073,	0.000011
0.644473,	0.200929,	0.000011
0.648613,	0.201785,	0.000011
0.652753,	0.202641,	0.000011
0.656893,	0.203498,	0.000011
0.661033,	0.204354,	0.000011
0.665173,	0.205210,	0.000010
0.669313,	0.206066,	0.000010
0.673452,	0.206923,	0.000010
0.677592,	0.207779,	0.000010
0.681732,	0.208635,	0.000010
0.685872,	0.209491,	0.000010
0.690012,	0.210347,	0.000010
0.694152,	0.211204,	0.000010
0.698292,	0.212060,	0.000010
0.702432,	0.212916,	0.000010
0.706572,	0.213772,	0.000010
0.710712,	0.214628,	0.000009
0.714852,	0.215485,	0.000009
0.718992,	0.216341,	0.000009
0.723132,	0.217197,	0.000009
0.727272,	0.218053,	0.000009
0.731412,	0.218909,	0.000009
0.735552,	0.219766,	0.000009
0.739692,	0.220622,	0.000009
0.743831,	0.221478,	0.000009
0.747971,	0.222334,	0.000009
0.752111,	0.223190,	0.000008
0.756251,	0.224047,	0.000008
0.760391,	0.224903,	0.000008
0.764531,	0.225759,	0.000008
0.768671,	0.226615,	0.000008
0.772811,	0.227471,	0.000008
0.776951,	0.228328,	0.000008
0.781091,	0.229184,	0.000008
0.785231,	0.230040,	0.000008
0.789371,	0.230896,	0.000008
0.793511,	0.231753,	0.000007
0.797651,	0.232609,	0.000007
0.801791,	0.233465,	0.000007
0.805931,	0.234321,	0.000007
0.810071,	0.235177,	0.000007
0.814210,	0.236034,	0.000007
0.818350,	0.236890,	0.000007
0.822490,	0.237746,	0.000007
0.826630,	0.238602,	0.000007
0.830770,	0.239458,	0.000007
0.834910,	0.240315,	0.000006
0.839050,	0.241171,	0.000006
0.843190,	0.242027,	0.000006
0.847330,	0.242883,	0.000006
0.552746,	0.185129,	0.000013
0.556895,	0.185964,	0.000013
0.561044,	0.186798,	0.000013
0.565193,	0.187633,	0.000013
0.569342,	0.188467,	0.000013
0.573491,	0.189302,	0.000013
0.577640,	0.190136,	0.000013
0.581789,	0.190971,	0.000012
0.585938,	0.191805,	0.000012
0.590087,	0.192640,	0.000012
0.594236,	0.193474,	0.000012
0.598385,	0.194309,	0.000012
0.602534,	0.195143,	0.000012
0.606683,	0.195978,	0.000012
0.610832,	0.196813,	0.000012
0.614981,	0.197647,	0.000012
0.619130,	0.198482,	0.000012
0.623279,	0.199316,	0.000011
0.627428,	0.200151,	0.000011
0.631577,	0.200985,	0.000011
0.635726,	0.201820,	0.000011
0.639875,	0.202654,	0.000011
0.644024,	0.203489,	0.000011
0.648173,	0.204323,	0.000011
0.652322,	0.205158,	0.000011
0.656471,	0.205992,	0.000011
0.660620,	0.206827,	0.000011
0.664769,	0.207661,	0.000011
0.668918,	0.208496,	0.000010
0.673067,	0.209331,	0.000010
0.677216,	0.210165,	0.000010
0.681365,	0.211000,	0.000010
0.685514,	0.211834,	0.000010
0.689663,	0.212669,	0.000010
0.693812,	0.213503,	0.000010
0.697961,	0.214338,	0.000010
0.702110,	0.215172,	0.000010
0.706259,	0.216007,	0.000010
0.710408,	0.216841,	0.000009
0.714557,	0.217676,	0.000009
0.718706,	0.218510,	0.000009
0.722855,	0.219345,	0.000009
0.727004,	0.220179,	0.000009
0.731153,	0.221014,	0.000009
0.735302,	0.221849,	0.000009
0.739451,	0.222683,	0.000009
0.743600,	0.223518,	0.000009
0.747749,	0.224352,	0.000009
0.751898,	0.225187,	0.000008
0.756047,	0.226021,	0.000008
0.760196,	0.226856,	0.000008
0.764345,	0.227690,	0.000008
0.768494,	0.228525,	0.000008
0.772643,	0.229359,	0.000008
0.776792,	0.230194,	0.000008
0.780941,	0.231028,	0.000008
0.785090,	0.231863,	0.000008
0.789239,	0.232697,	0.000008
0.793388,	0.233532,	0.000007
0.797537,	0.234367,	0.000007
0.801686,	0.235201,	0.000007
0.805835,	0.236036,	0.000007
0.809984,	0.236870,	0.000007
0.814133,	0.237705,	0.000007
0.818282,	0.238539,	0.000007
0.822431,	0.239374,	0.000007
0.826580,	0.240208,	0.000007
0.830729,	0.241043,	0.000007
0.834878,	0.241877,	0.000007
0.839027,	0.242712,	0.000006
0.843176,	0.243546,	0.000006
0.847326,	0.244381,	0.000006
0.552098,	0.188166,	0.000013
0.556256,	0.188979,	0.000013
0.560414,	0.189791,	0.000013
0.564572,	0.190604,	0.000013
0.568730,	0.191417,	0.000013
0.572888,	0.192230,	0.000013
0.577046,	0.193043,	0.000013
0.581204,	0.193856,	0.000012
0.585362,	0.194669,	0.000012
0.589521,	0.195481,	0.000012
0.593679,	0.196294,	0.000012
0.597837,	0.197107,	0.000012
0.601995,	0.197920,	0.000012
0.606153,	0.198733,	0.000012
0.610311,	0.199546,	0.000012
0.614469,	0.200359,	0.000012
0.618627,	0.201171,	0.000012
0.622785,	0.201984,	0.000011
0.626943,	0.202797,	0.000011
0.631101,	0.203610,	0.000011
0.635259,	0.204423,	0.000011
0.639417,	0.205236,	0.000011
0.643575,	0.206049,	0.000011
0.647734,	0.206861,	0.000011
0.651892,	0.207674,	0.000011
0.656050,	0.208487,	0.000011
0.660208,	0.209300,	0.000011
0.664366,	0.210113,	0.000011
0.668524,	0.210926,	0.000010
0.672682,	0.211739,	0.000010
0.676840,	0.212551,	0.000010
0.680998,	0.213364,	0.000010
0.685156,	0.214177,	0.000010
0.689314,	0.214990,	0.000010
0.693472,	0.215803,	0.000010
0.697630,	0.216616,	0.000010
0.701788,	0.217429,	0.000010
0.705947,	0.218241,	0.000010
0.710105,	0.219054,	0.000009
0.714263,	0.219867,	0.000009
0.718421,	0.220680,	0.000009
0.722579,	0.221493,	0.000009
0.726737,	0.222306,	0.000009
0.730895,	0.223119,	0.000009
0.735053,	0.223931,	0.000009
0.739211,	0.224744,	0.000009
0.743369,	0.225557,	0.000009
0.747527,	0.226370,	0.000009
0.751685,	0.227183,	0.000008
0.755843,	0.227996,	0.000008
0.760001,	0.228809,	0.000008
0.764160,	0.229621,	0.000008
0.768318,	0.230434,	0.000008
0.772476,	0.231247,	0.000008
0.776634,	0.232060,	0.000008
0.780792,	0.232873,	0.000008
0.784950,	0.233686,	0.000008
0.789108,	0.234499,	0.000008
0.793266,	0.235311,	0.000007
0.797424,	0.236124,	0.000007
0.801582,	0.236937,	0.000007
0.805740,	0.237750,	0.000007
0.809898,	0.238563,	0.000007
0.814056,	0.239376,	0.000007
0.818214,	0.240189,	0.000007
0.822373,	0.241001,	0.000007
0.826531,	0.241814,	0.000007
0.830689,	0.242627,	0.000007
0.834847,	0.243440,	0.000007
0.839005,	0.244253,	0.000006
0.843163,	0.245066,	0.000006
0.847321,	0.245879,	0.000006
0.551450,	0.191202,	0.000013
0.555617,	0.191994,	0.000013
0.559784,	0.192785,	0.000013
0.563951,	0.193576,	0.000013
0.568118,	0.194367,	0.000013
0.572285,	0.195158,	0.000013
0.576453,	0.195949,	0.000013
0.580620,	0.196741,	0.000012
0.584787,	0.197532,	0.000012
0.588954,	0.198323,	0.000012
0.593121,	0.199114,	0.000012
0.597288,	0.199905,	0.000012
0.601455,	0.200697,	0.000012
0.605623,	0.201488,	0.000012
0.609790,	0.202279,	0.000012
0.613957,	0.203070,	0.000012
0.618124,	0.203861,	0.000012
0.622291,	0.204652,	0.000012
0.626458,	0.205444,	0.000011
0.630625,	0.206235,	0.000011
0.634792,	0.207026,	0.000011
0.638960,	0.207817,	0.000011
0.643127,	0.208608,	0.000011
0.647294,	0.209400,	0.000011
0.651461,	0.210191,	0.000011
0.655628,	0.210982,	0.000011
0.659795,	0.211773,	0.000011
0.663962,	0.212564,	0.000011
0.668130,	0.213355,	0.000010
0.672297,	0.214147,	0.000010
0.676464,	0.214938,	0.000010
0.680631,	0.215729,	0.000010
0.684798,	0.216520,	0.000010
0.688965,	0.217311,	0.000010
0.693132,	0.218103,	0.000010
0.697300,	0.218894,	0.000010
0.701467,	0.219685,	0.000010
0.705634,	0.220476,	0.000010
0.709801,	0.221267,	0.000009
0.713968,	0.222058,	0.000009
0.718135,	0.222850,	0.000009
0.722302,	0.223641,	0.000009
0.726469,	0.224432,	0.000009
0.730637,	0.225223,	0.000009
0.734804,	0.226014,	0.000009
0.738971,	0.226805,	0.000009
0.743138,	0.227597,	0.000009
0.747305,	0.228388,	0.000009
0.751472,	0.229179,	0.000008
0.755639,	0.229970,	0.000008
0.759807,	0.230761,	0.000008
0.763974,	0.231553,	0.000008
0.768141,	0.232344,	0.000008
0.772308,	0.233135,	0.000008
0.776475,	0.233926,	0.000008
0.780642,	0.234717,	0.000008
0.784809,	0.235509,	0.000008
0.788976,	0.236300,	0.000008
0.793144,	0.237091,	0.000008
0.797311,	0.237882,	0.000007
0.801478,	0.238673,	0.000007
0.805645,	0.239464,	0.000007
0.809812,	0.240256,	0.000007
0.813979,	0.241047,	0.000007
0.818146,	0.241838,	0.000007
0.822314,	0.242629,	0.000007
0.826481,	0.243420,	0.000007
0.830648,	0.244211,	0.000007
0.834815,	0.245003,	0.000007
0.838982,	0.245794,	0.000006
0.843149,	0.246585,	0.000006
0.847316,	0.247376,	0.000006
0.550802,	0.194239,	0.000013
0.554978,	0.195009,	0.000013
0.559154,	0.195778,	0.000013
0.563330,	0.196548,	0.000013
0.567506,	0.197317,	0.000013
0.571683,	0.198087,	0.000013
0.575859,	0.198856,	0.000013
0.580035,	0.199626,	0.000012
0.584211,	0.200395,	0.000012
0.588387,	0.201165,	0.000012
0.592564,	0.201934,	0.000012
0.596740,	0.202704,	0.000012
0.600916,	0.203473,	0.000012
0.605092,	0.204243,	0.000012
0.609268,	0.205012,	0.000012
0.613445,	0.205782,	0.000012
0.617621,	0.206551,	0.000012
0.621797,	0.207321,	0.000012
0.625973,	0.208090,	0.000011
0.630149,	0.208860,	0.000011
0.634326,	0.209629,	0.000011
0.638502,	0.210399,	0.000011
0.642678,	0.211168,	0.000011