TITLE = "MeshVolumeStats"
VARIABLES = "X", "Y", "VOL"
ZONE I=120, J=80, DATAPACKING=POINT
0.004167,	0.000412,	0.000005
0.012500,	0.000412,	0.000005
0.020833,	0.000412,	0.000005
0.029167,	0.000412,	0.000005
0.037500,	0.000412,	0.000005
0.045833,	0.000412,	0.000005
0.054167,	0.000412,	0.000005
0.062500,	0.000412,	0.000005
0.070833,	0.000412,	0.000005
0.079167,	0.000412,	0.000005
0.087500,	0.000412,	0.000005
0.095833,	0.000412,	0.000005
0.104167,	0.000412,	0.000005
0.112500,	0.000412,	0.000005
0.120833,	0.000412,	0.000005
0.129167,	0.000412,	0.000005
0.137500,	0.000412,	0.000005
0.145833,	0.000412,	0.000005
0.154167,	0.000412,	0.000005
0.162500,	0.000412,	0.000005
0.170833,	0.000412,	0.000005
0.179167,	0.000412,	0.000005
0.187500,	0.000412,	0.000005
0.195833,	0.000412,	0.000005
0.204167,	0.000412,	0.000005
0.212500,	0.000412,	0.000005
0.220833,	0.000412,	0.000005
0.229167,	0.000412,	0.000005
0.237500,	0.000412,	0.000005
0.245833,	0.000412,	0.000005
0.254167,	0.001158,	0.000005
0.262500,	0.002648,	0.000006
0.270833,	0.004138,	0.000006
0.279167,	0.005628,	0.000006
0.287500,	0.007119,	0.000007
0.295833,	0.008609,	0.000007
0.304167,	0.010099,	0.000007
0.312500,	0.011590,	0.000008
0.320833,	0.013080,	0.000008
0.329167,	0.014570,	0.000009
0.337500,	0.016060,	0.000009
0.345833,	0.017551,	0.000009
0.354167,	0.019041,	0.000010
0.362500,	0.020531,	0.000010
0.370833,	0.022022,	0.000010
0.379167,	0.023512,	0.000011
0.387500,	0.025002,	0.000011
0.395833,	0.026492,	0.000011
0.404167,	0.027983,	0.000012
0.412500,	0.029473,	0.000012
0.420833,	0.030963,	0.000012
0.429167,	0.032453,	0.000013
0.437500,	0.033944,	0.000013
0.445833,	0.035434,	0.000013
0.454167,	0.036924,	0.000014
0.462500,	0.038415,	0.000014
0.470833,	0.039905,	0.000014
0.479167,	0.041395,	0.000015
0.487500,	0.042885,	0.000015
0.495833,	0.044376,	0.000015
0.504167,	0.045866,	0.000016
0.512500,	0.047356,	0.000016
0.520833,	0.048847,	0.000017
0.529167,	0.050337,	0.000017
0.537500,	0.051827,	0.000017
0.545833,	0.053317,	0.000018
0.554167,	0.054808,	0.000018
0.562500,	0.056298,	0.000018
0.570833,	0.057788,	0.000019
0.579167,	0.059278,	0.000019
0.587500,	0.060769,	0.000019
0.595833,	0.062259,	0.000020
0.604167,	0.063749,	0.000020
0.612500,	0.065240,	0.000020
0.620833,	0.066730,	0.000021
0.629167,	0.068220,	0.000021
0.637500,	0.069710,	0.000021
0.645833,	0.071201,	0.000022
0.654167,	0.072691,	0.000022
0.662500,	0.074181,	0.000022
0.670833,	0.075672,	0.000023
0.679167,	0.077162,	0.000023
0.687500,	0.078652,	0.000023
0.695833,	0.080142,	0.000024
0.704167,	0.081633,	0.000024
0.712500,	0.083123,	0.000025
0.720833,	0.084613,	0.000025
0.729167,	0.086103,	0.000025
0.737500,	0.087594,	0.000026
0.745833,	0.089084,	0.000026
0.754167,	0.090574,	0.000026
0.762500,	0.092065,	0.000027
0.770833,	0.093555,	0.000027
0.779167,	0.095045,	0.000027
0.787500,	0.096535,	0.000028
0.795833,	0.098026,	0.000028
0.804167,	0.099516,	0.000028
0.812500,	0.101006,	0.000029
0.820833,	0.102497,	0.000029
0.829167,	0.103987,	0.000029
0.837500,	0.105477,	0.000030
0.845833,	0.106967,	0.000030
0.854167,	0.108458,	0.000030
0.862500,	0.109948,	0.000031
0.870833,	0.111438,	0.000031
0.879167,	0.112928,	0.000031
0.887500,	0.114419,	0.000032
0.895833,	0.115909,	0.000032
0.904167,	0.117399,	0.000033
0.912500,	0.118890,	0.000033
0.920833,	0.120380,	0.000033
0.929167,	0.121870,	0.000034
0.937500,	0.123360,	0.000034
0.945833,	0.124851,	0.000034
0.954167,	0.126341,	0.000035
0.962500,	0.127831,	0.000035
0.970833,	0.129322,	0.000035
0.979167,	0.130812,	0.000036
0.987500,	0.132302,	0.000036
0.995833,	0.133792,	0.000036
0.004167,	0.001038,	0.000005
0.012500,	0.001038,	0.000005
0.020833,	0.001038,	0.000005
0.029167,	0.001038,	0.000005
0.037500,	0.001038,	0.000005
0.045833,	0.001038,	0.000005
0.054167,	0.001038,	0.000005
0.062500,	0.001038,	0.000005
0.070833,	0.001038,	0.000005
0.079167,	0.001038,	0.000005
0.087500,	0.001038,	0.000005
0.095833,	0.001038,	0.000005
0.104167,	0.001038,	0.000005
0.112500,	0.001038,	0.000005
0.120833,	0.001038,	0.000005
0.129167,	0.001038,	0.000005
0.137500,	0.001038,	0.000005
0.145833,	0.001038,	0.000005
0.154167,	0.001038,	0.000005
0.162500,	0.001038,	0.000005
0.170833,	0.001038,	0.000005
0.179167,	0.001038,	0.000005
0.187500,	0.001038,	0.000005
0.195833,	0.001038,	0.000005
0.204167,	0.001038,	0.000005
0.212500,	0.001038,	0.000005
0.220833,	0.001038,	0.000005
0.229167,	0.001038,	0.000005
0.237500,	0.001038,	0.000005
0.245833,	0.001038,	0.000005
0.254167,	0.001804,	0.000005
0.262500,	0.003336,	0.000006
0.270833,	0.004868,	0.000006
0.279167,	0.006400,	0.000006
0.287500,	0.007932,	0.000007
0.295833,	0.009464,	0.000007
0.304167,	0.010996,	0.000007
0.312500,	0.012528,	0.000008
0.320833,	0.014060,	0.000008
0.329167,	0.015592,	0.000009
0.337500,	0.017124,	0.000009
0.345833,	0.018656,	0.000009
0.354167,	0.020188,	0.000010
0.362500,	0.021720,	0.000010
0.370833,	0.023252,	0.000010
0.379167,	0.024784,	0.000011
0.387500,	0.026316,	0.000011
0.395833,	0.027848,	0.000011
0.404167,	0.029380,	0.000012
0.412500,	0.030913,	0.000012
0.420833,	0.032445,	0.000012
0.429167,	0.033977,	0.000013
0.437500,	0.035509,	0.000013
0.445833,	0.037041,	0.000013
0.454167,	0.038573,	0.000014
0.462500,	0.040105,	0.000014
0.470833,	0.041637,	0.000014
0.479167,	0.043169,	0.000015
0.487500,	0.044701,	0.000015
0.495833,	0.046233,	0.000015
0.504167,	0.047765,	0.000016
0.512500,	0.049297,	0.000016
0.520833,	0.050829,	0.000017
0.529167,	0.052361,	0.000017
0.537500,	0.053893,	0.000017
0.545833,	0.055425,	0.000018
0.554167,	0.056957,	0.000018
0.562500,	0.058489,	0.000018
0.570833,	0.060021,	0.000019
0.579167,	0.061554,	0.000019
0.587500,	0.063086,	0.000019
0.595833,	0.064618,	0.000020
0.604167,	0.066150,	0.000020
0.612500,	0.067682,	0.000020
0.620833,	0.069214,	0.000021
0.629167,	0.070746,	0.000021
0.637500,	0.072278,	0.000021
0.645833,	0.073810,	0.000022
0.654167,	0.075342,	0.000022
0.662500,	0.076874,	0.000022
0.670833,	0.078406,	0.000023
0.679167,	0.079938,	0.000023
0.687500,	0.081470,	0.000023
0.695833,	0.083002,	0.000024
0.704167,	0.084534,	0.000024
0.712500,	0.086066,	0.000025
0.720833,	0.087598,	0.000025
0.729167,	0.089130,	0.000025
0.737500,	0.090663,	0.000026
0.745833,	0.092195,	0.000026
0.754167,	0.093727,	0.000026
0.762500,	0.095259,	0.000027
0.770833,	0.096791,	0.000027
0.779167,	0.098323,	0.000027
0.787500,	0.099855,	0.000028
0.795833,	0.101387,	0.000028
0.804167,	0.102919,	0.000028
0.812500,	0.104451,	0.000029
0.820833,	0.105983,	0.000029
0.829167,	0.107515,	0.000029
0.837500,	0.109047,	0.000030
0.845833,	0.110579,	0.000030
0.854167,	0.112111,	0.000030
0.862500,	0.113643,	0.000031
0.870833,	0.115175,	0.000031
0.879167,	0.116707,	0.000031
0.887500,	0.118239,	0.000032
0.895833,	0.119771,	0.000032
0.904167,	0.121304,	0.000033
0.912500,	0.122836,	0.000033
0.920833,	0.124368,	0.000033
0.929167,	0.125900,	0.000034
0.937500,	0.127432,	0.000034
0.945833,	0.128964,	0.000034
0.954167,	0.130496,	0.000035
0.962500,	0.132028,	0.000035
0.970833,	0.133560,	0.000035
0.979167,	0.135092,	0.000036
0.987500,	0.136624,	0.000036
0.995833,	0.138156,	0.000036
0.004167,	0.001662,	0.000005
0.012500,	0.001662,	0.000005
0.020833,	0.001662,	0.000005
0.029167,	0.001662,	0.000005
0.037500,	0.001662,	0.000005
0.045833,	0.001662,	0.000005
0.054167,	0.001662,	0.000005
0.062500,	0.001662,	0.000005
0.070833,	0.001662,	0.000005
0.079167,	0.001662,	0.000005
0.087500,	0.001662,	0.000005
0.095833,	0.001662,	0.000005
0.104167,	0.001662,	0.000005
0.112500,	0.001662,	0.000005
0.120833,	0.001662,	0.000005
0.129167,	0.001662,	0.000005
0.137500,	0.001662,	0.000005
0.145833,	0.001662,	0.000005
0.154167,	0.001662,	0.000005
0.162500,	0.001662,	0.000005
0.170833,	0.001662,	0.000005
0.179167,	0.001662,	0.000005
0.187500,	0.001662,	0.000005
0.195833,	0.001662,	0.000005
0.204167,	0.001662,	0.000005
0.212500,	0.001662,	0.000005
0.220833,	0.001662,	0.000005
0.229167,	0.001662,	0.000005
0.237500,	0.001662,	0.000005
0.245833,	0.001662,	0.000005
0.254167,	0.002449,	0.000005
0.262500,	0.004023,	0.000006
0.270833,	0.005597,	0.000006
0.279167,	0.007171,	0.000006
0.287500,	0.008745,	0.000007
0.295833,	0.010319,	0.000007
0.304167,	0.011892,	0.000007
0.312500,	0.013466,	0.000008
0.320833,	0.015040,	0.000008
0.329167,	0.016614,	0.000009
0.337500,	0.018188,	0.000009
0.345833,	0.019761,	0.000009
0.354167,	0.021335,	0.000010
0.362500,	0.022909,	0.000010
0.370833,	0.024483,	0.000010
0.379167,	0.026057,	0.000011
0.387500,	0.027631,	0.000011
0.395833,	0.029204,	0.000011
0.404167,	0.030778,	0.000012
0.412500,	0.032352,	0.000012
0.420833,	0.033926,	0.000012
0.429167,	0.035500,	0.000013
0.437500,	0.037074,	0.000013
0.445833,	0.038647,	0.000013
0.454167,	0.040221,	0.000014
0.462500,	0.041795,	0.000014
0.470833,	0.043369,	0.000014
0.479167,	0.044943,	0.000015
0.487500,	0.046517,	0.000015
0.495833,	0.048090,	0.000015
0.504167,	0.049664,	0.000016
0.512500,	0.051238,	0.000016
0.520833,	0.052812,	0.000017
0.529167,	0.054386,	0.000017
0.537500,	0.055959,	0.000017
0.545833,	0.057533,	0.000018
0.554167,	0.059107,	0.000018
0.562500,	0.060681,	0.000018
0.570833,	0.062255,	0.000019
0.579167,	0.063829,	0.000019
0.587500,	0.065402,	0.000019
0.595833,	0.066976,	0.000020
0.604167,	0.068550,	0.000020
0.612500,	0.070124,	0.000020
0.620833,	0.071698,	0.000021
0.629167,	0.073272,	0.000021
0.637500,	0.074845,	0.000021
0.645833,	0.076419,	0.000022
0.654167,	0.077993,	0.000022
0.662500,	0.079567,	0.000022
0.670833,	0.081141,	0.000023
0.679167,	0.082714,	0.000023
0.687500,	0.084288,	0.000023
0.695833,	0.085862,	0.000024
0.704167,	0.087436,	0.000024
0.712500,	0.089010,	0.000025
0.720833,	0.090584,	0.000025
0.729167,	0.092157,	0.000025
0.737500,	0.093731,	0.000026
0.745833,	0.095305,	0.000026
0.754167,	0.096879,	0.000026
0.762500,	0.098453,	0.000027
0.770833,	0.100027,	0.000027
0.779167,	0.101600,	0.000027
0.787500,	0.103174,	0.000028
0.795833,	0.104748,	0.000028
0.804167,	0.106322,	0.000028
0.812500,	0.107896,	0.000029
0.820833,	0.109469,	0.000029
0.829167,	0.111043,	0.000029
0.837500,	0.112617,	0.000030
0.845833,	0.114191,	0.000030
0.854167,	0.115765,	0.000030
0.862500,	0.117339,	0.000031
0.870833,	0.118912,	0.000031
0.879167,	0.120486,	0.000031
0.887500,	0.122060,	0.000032
0.895833,	0.123634,	0.000032
0.904167,	0.125208,	0.000033
0.912500,	0.126782,	0.000033
0.920833,	0.128355,	0.000033
0.929167,	0.129929,	0.000034
0.937500,	0.131503,	0.000034
0.945833,	0.133077,	0.000034
0.954167,	0.134651,	0.000035
0.962500,	0.136225,	0.000035
0.970833,	0.137798,	0.000035
0.979167,	0.139372,	0.000036
0.987500,	0.140946,	0.000036
0.995833,	0.142520,	0.000036
0.004167,	0.002287,	0.000005
0.012500,	0.002287,	0.000005
0.020833,	0.002287,	0.000005
0.029167,	0.002287,	0.000005
0.037500,	0.002287,	0.000005
0.045833,	0.002287,	0.000005
0.054167,	0.002287,	0.000005
0.062500,	0.002287,	0.000005
0.070833,	0.002287,	0.000005
0.079167,	0.002287,	0.000005
0.087500,	0.002287,	0.000005
0.095833,	0.002287,	0.000005
0.104167,	0.002287,	0.000005
0.112500,	0.002287,	0.000005
0.120833,	0.002287,	0.000005
0.129167,	0.002287,	0.000005
0.137500,	0.002287,	0.000005
0.145833,	0.002287,	0.000005
0.154167,	0.002287,	0.000005
0.162500,	0.002287,	0.000005
0.170833,	0.002287,	0.000005
0.179167,	0.002287,	0.000005
0.187500,	0.002287,	0.000005
0.195833,	0.002287,	0.000005
0.204167,	0.002287,	0.000005
0.212500,	0.002287,	0.000005
0.220833,	0.002287,	0.000005
0.229167,	0.002287,	0.000005
0.237500,	0.002287,	0.000005
0.245833,	0.002287,	0.000005
0.254167,	0.003095,	0.000005
0.262500,	0.004711,	0.000006
0.270833,	0.006326,	0.000006
0.279167,	0.007942,	0.000006
0.287500,	0.009558,	0.000007
0.295833,	0.011173,	0.000007
0.304167,	0.012789,	0.000007
0.312500,	0.014404,	0.000008
0.320833,	0.016020,	0.000008
0.329167,	0.017636,	0.000009
0.337500,	0.019251,	0.000009
0.345833,	0.020867,	0.000009
0.354167,	0.022482,	0.000010
0.362500,	0.024098,	0.000010
0.370833,	0.025714,	0.000010
0.379167,	0.027329,	0.000011
0.387500,	0.028945,	0.000011
0.395833,	0.030560,	0.000011
0.404167,	0.032176,	0.000012
0.412500,	0.033792,	0.000012
0.420833,	0.035407,	0.000012
0.429167,	0.037023,	0.000013
0.437500,	0.038638,	0.000013
0.445833,	0.040254,	0.000013
0.454167,	0.041870,	0.000014
0.462500,	0.043485,	0.000014
0.470833,	0.045101,	0.000014
0.479167,	0.046716,	0.000015
0.487500,	0.048332,	0.000015
0.495833,	0.049948,	0.000015
0.504167,	0.051563,	0.000016
0.512500,	0.053179,	0.000016
0.520833,	0.054794,	0.000017
0.529167,	0.056410,	0.000017
0.537500,	0.058026,	0.000017
0.545833,	0.059641,	0.000018
0.554167,	0.061257,	0.000018
0.562500,	0.062872,	0.000018
0.570833,	0.064488,	0.000019
0.579167,	0.066104,	0.000019
0.587500,	0.067719,	0.000019
0.595833,	0.069335,	0.000020
0.604167,	0.070950,	0.000020
0.612500,	0.072566,	0.000020
0.620833,	0.074182,	0.000021
0.629167,	0.075797,	0.000021
0.637500,	0.077413,	0.000021
0.645833,	0.079028,	0.000022
0.654167,	0.080644,	0.000022
0.662500,	0.082260,	0.000022
0.670833,	0.083875,	0.000023
0.679167,	0.085491,	0.000023
0.687500,	0.087106,	0.000023
0.695833,	0.088722,	0.000024
0.704167,	0.090338,	0.000024
0.712500,	0.091953,	0.000025
0.720833,	0.093569,	0.000025
0.729167,	0.095184,	0.000025
0.737500,	0.096800,	0.000026
0.745833,	0.098416,	0.000026
0.754167,	0.100031,	0.000026
0.762500,	0.101647,	0.000027
0.770833,	0.103262,	0.000027
0.779167,	0.104878,	0.000027
0.787500,	0.106494,	0.000028
0.795833,	0.108109,	0.000028
0.804167,	0.109725,	0.000028
0.812500,	0.111340,	0.000029
0.820833,	0.112956,	0.000029
0.829167,	0.114572,	0.000029
0.837500,	0.116187,	0.000030
0.845833,	0.117803,	0.000030
0.854167,	0.119418,	0.000030
0.862500,	0.121034,	0.000031
0.870833,	0.122650,	0.000031
0.879167,	0.124265,	0.000031
0.887500,	0.125881,	0.000032
0.895833,	0.127496,	0.000032
0.904167,	0.129112,	0.000033
0.912500,	0.130728,	0.000033
0.920833,	0.132343,	0.000033
0.929167,	0.133959,	0.000034
0.937500,	0.135574,	0.000034
0.945833,	0.137190,	0.000034
0.954167,	0.138806,	0.000035
0.962500,	0.140421,	0.000035
0.970833,	0.142037,	0.000035
0.979167,	0.143652,	0.000036
0.987500,	0.145268,	0.000036
0.995833,	0.146884,	0.000036
0.004167,	0.002913,	0.000005
0.012500,	0.002913,	0.000005
0.020833,	0.002913,	0.000005
0.029167,	0.002913,	0.000005
0.037500,	0.002913,	0.000005
0.045833,	0.002913,	0.000005
0.054167,	0.002913,	0.000005
0.062500,	0.002913,	0.000005
0.070833,	0.002913,	0.000005
0.079167,	0.002913,	0.000005
0.087500,	0.002913,	0.000005
0.095833,	0.002913,	0.000005
0.104167,	0.002913,	0.000005
0.112500,	0.002913,	0.000005
0.120833,	0.002913,	0.000005
0.129167,	0.002913,	0.000005
0.137500,	0.002913,	0.000005
0.145833,	0.002913,	0.000005
0.154167,	0.002913,	0.000005
0.162500,	0.002913,	0.000005
0.170833,	0.002913,	0.000005
0.179167,	0.002913,	0.000005
0.187500,	0.002913,	0.000005
0.195833,	0.002913,	0.000005
0.204167,	0.002913,	0.000005
0.212500,	0.002913,	0.000005
0.220833,	0.002913,	0.000005
0.229167,	0.002913,	0.000005
0.237500,	0.002913,	0.000005
0.245833,	0.002913,	0.000005
0.254167,	0.003741,	0.000005
0.262500,	0.005399,	0.000006
0.270833,	0.007056,	0.000006
0.279167,	0.008713,	0.000006
0.287500,	0.010371,	0.000007
0.295833,	0.012028,	0.000007
0.304167,	0.013685,	0.000007
0.312500,	0.015343,	0.000008
0.320833,	0.017000,	0.000008
0.329167,	0.018658,	0.000009
0.337500,	0.020315,	0.000009
0.345833,	0.021972,	0.000009
0.354167,	0.023630,	0.000010
0.362500,	0.025287,	0.000010
0.370833,	0.026944,	0.000010
0.379167,	0.028602,	0.000011
0.387500,	0.030259,	0.000011
0.395833,	0.031916,	0.000011
0.404167,	0.033574,	0.000012
0.412500,	0.035231,	0.000012
0.420833,	0.036889,	0.000012
0.429167,	0.038546,	0.000013
0.437500,	0.040203,	0.000013
0.445833,	0.041861,	0.000013
0.454167,	0.043518,	0.000014
0.462500,	0.045175,	0.000014
0.470833,	0.046833,	0.000014
0.479167,	0.048490,	0.000015
0.487500,	0.050148,	0.000015
0.495833,	0.051805,	0.000015
0.504167,	0.053462,	0.000016
0.512500,	0.055120,	0.000016
0.520833,	0.056777,	0.000017
0.529167,	0.058434,	0.000017
0.537500,	0.060092,	0.000017
0.545833,	0.061749,	0.000018
0.554167,	0.063407,	0.000018
0.562500,	0.065064,	0.000018
0.570833,	0.066721,	0.000019
0.579167,	0.068379,	0.000019
0.587500,	0.070036,	0.000019
0.595833,	0.071693,	0.000020
0.604167,	0.073351,	0.000020
0.612500,	0.075008,	0.000020
0.620833,	0.076666,	0.000021
0.629167,	0.078323,	0.000021
0.637500,	0.079980,	0.000021
0.645833,	0.081638,	0.000022
0.654167,	0.083295,	0.000022
0.662500,	0.084952,	0.000022
0.670833,	0.086610,	0.000023
0.679167,	0.088267,	0.000023
0.687500,	0.089924,	0.000023
0.695833,	0.091582,	0.000024
0.704167,	0.093239,	0.000024
0.712500,	0.094897,	0.000025
0.720833,	0.096554,	0.000025
0.729167,	0.098211,	0.000025
0.737500,	0.099869,	0.000026
0.745833,	0.101526,	0.000026
0.754167,	0.103183,	0.000026
0.762500,	0.104841,	0.000027
0.770833,	0.106498,	0.000027
0.779167,	0.108156,	0.000027
0.787500,	0.109813,	0.000028
0.795833,	0.111470,	0.000028
0.804167,	0.113128,	0.000028
0.812500,	0.114785,	0.000029
0.820833,	0.116442,	0.000029
0.829167,	0.118100,	0.000029
0.837500,	0.119757,	0.000030
0.845833,	0.121415,	0.000030
0.854167,	0.123072,	0.000030
0.862500,	0.124729,	0.000031
0.870833,	0.126387,	0.000031
0.879167,	0.128044,	0.000031
0.887500,	0.129701,	0.000032
0.895833,	0.131359,	0.000032
0.904167,	0.133016,	0.000033
0.912500,	0.134674,	0.000033
0.920833,	0.136331,	0.000033
0.929167,	0.137988,	0.000034
0.937500,	0.139646,	0.000034
0.945833,	0.141303,	0.000034
0.954167,	0.142960,	0.000035
0.962500,	0.144618,	0.000035
0.970833,	0.146275,	0.000035
0.979167,	0.147932,	0.000036
0.987500,	0.149590,	0.000036
0.995833,	0.151247,	0.000036
0.004167,	0.003537,	0.000005
0.012500,	0.003537,	0.000005
0.020833,	0.003537,	0.000005
0.029167,	0.003537,	0.000005
0.037500,	0.003537,	0.000005
0.045833,	0.003537,	0.000005
0.054167,	0.003537,	0.000005
0.062500,	0.003537,	0.000005
0.070833,	0.003537,	0.000005
0.079167,	0.003537,	0.000005
0.087500,	0.003537,	0.000005
0.095833,	0.003537,	0.000005
0.104167,	0.003537,	0.000005
0.112500,	0.003537,	0.000005
0.120833,	0.003537,	0.000005
0.129167,	0.003537,	0.000005
0.137500,	0.003537,	0.000005
0.145833,	0.003537,	0.000005
0.154167,	0.003537,	0.000005
0.162500,	0.003537,	0.000005
0.170833,	0.003537,	0.000005
0.179167,	0.003537,	0.000005
0.187500,	0.003537,	0.000005
0.195833,	0.003537,	0.000005
0.204167,	0.003537,	0.000005
0.212500,	0.003537,	0.000005
0.220833,	0.003537,	0.000005
0.229167,	0.003537,	0.000005
0.237500,	0.003537,	0.000005
0.245833,	0.003537,	0.000005
0.254167,	0.004387,	0.000005
0.262500,	0.006086,	0.000006
0.270833,	0.007785,	0.000006
0.279167,	0.009485,	0.000006
0.287500,	0.011184,	0.000007
0.295833,	0.012883,	0.000007
0.304167,	0.014582,	0.000007
0.312500,	0.016281,	0.000008
0.320833,	0.017980,	0.000008
0.329167,	0.019679,	0.000009
0.337500,	0.021379,	0.000009
0.345833,	0.023078,	0.000009
0.354167,	0.024777,	0.000010
0.362500,	0.026476,	0.000010
0.370833,	0.028175,	0.000010
0.379167,	0.029874,	0.000011
0.387500,	0.031573,	0.000011
0.395833,	0.033273,	0.000011
0.404167,	0.034972,	0.000012
0.412500,	0.036671,	0.000012
0.420833,	0.038370,	0.000012
0.429167,	0.040069,	0.000013
0.437500,	0.041768,	0.000013
0.445833,	0.043467,	0.000013
0.454167,	0.045167,	0.000014
0.462500,	0.046866,	0.000014
0.470833,	0.048565,	0.000014
0.479167,	0.050264,	0.000015
0.487500,	0.051963,	0.000015
0.495833,	0.053662,	0.000015
0.504167,	0.055361,	0.000016
0.512500,	0.057061,	0.000016
0.520833,	0.058760,	0.000017
0.529167,	0.060459,	0.000017
0.537500,	0.062158,	0.000017
0.545833,	0.063857,	0.000018
0.554167,	0.065556,	0.000018
0.562500,	0.067255,	0.000018
0.570833,	0.068955,	0.000019
0.579167,	0.070654,	0.000019
0.587500,	0.072353,	0.000019
0.595833,	0.074052,	0.000020
0.604167,	0.075751,	0.000020
0.612500,	0.077450,	0.000020
0.620833,	0.079149,	0.000021
0.629167,	0.080849,	0.000021
0.637500,	0.082548,	0.000021
0.645833,	0.084247,	0.000022
0.654167,	0.085946,	0.000022
0.662500,	0.087645,	0.000022
0.670833,	0.089344,	0.000023
0.679167,	0.091043,	0.000023
0.687500,	0.092743,	0.000023
0.695833,	0.094442,	0.000024
0.704167,	0.096141,	0.000024
0.712500,	0.097840,	0.000025
0.720833,	0.099539,	0.000025
0.729167,	0.101238,	0.000025
0.737500,	0.102937,	0.000026
0.745833,	0.104637,	0.000026
0.754167,	0.106336,	0.000026
0.762500,	0.108035,	0.000027
0.770833,	0.109734,	0.000027
0.779167,	0.111433,	0.000027
0.787500,	0.113132,	0.000028
0.795833,	0.114831,	0.000028
0.804167,	0.116531,	0.000028
0.812500,	0.118230,	0.000029
0.820833,	0.119929,	0.000029
0.829167,	0.121628,	0.000029
0.837500,	0.123327,	0.000030
0.845833,	0.125026,	0.000030
0.854167,	0.126725,	0.000030
0.862500,	0.128425,	0.000031
0.870833,	0.130124,	0.000031
0.879167,	0.131823,	0.000031
0.887500,	0.133522,	0.000032
0.895833,	0.135221,	0.000032
0.904167,	0.136920,	0.000033
0.912500,	0.138619,	0.000033
0.920833,	0.140319,	0.000033
0.929167,	0.142018,	0.000034
0.937500,	0.143717,	0.000034
0.945833,	0.145416,	0.000034
0.954167,	0.147115,	0.000035
0.962500,	0.148814,	0.000035
0.970833,	0.150513,	0.000035
0.979167,	0.152213,	0.000036
0.987500,	0.153912,	0.000036
0.995833,	0.155611,	0.000036
0.004167,	0.004163,	0.000005
0.012500,	0.004163,	0.000005
0.020833,	0.004163,	0.000005
0.029167,	0.004163,	0.000005
0.037500,	0.004163,	0.000005
0.045833,	0.004163,	0.000005
0.054167,	0.004163,	0.000005
0.062500,	0.004163,	0.000005
0.070833,	0.004163,	0.000005
0.079167,	0.004163,	0.000005
0.087500,	0.004163,	0.000005
0.095833,	0.004163,	0.000005
0.104167,	0.004163,	0.000005
0.112500,	0.004163,	0.000005
0.120833,	0.004163,	0.000005
0.129167,	0.004163,	0.000005
0.137500,	0.004163,	0.000005
0.145833,	0.004163,	0.000005
0.154167,	0.004163,	0.000005
0.162500,	0.004163,	0.000005
0.170833,	0.004163,	0.000005
0.179167,	0.004163,	0.000005
0.187500,	0.004163,	0.000005
0.195833,	0.004163,	0.000005
0.204167,	0.004163,	0.000005
0.212500,	0.004163,	0.000005
0.220833,	0.004163,	0.000005
0.229167,	0.004163,	0.000005
0.237500,	0.004163,	0.000005
0.245833,	0.004163,	0.000005
0.254167,	0.005033,	0.000005
0.262500,	0.006774,	0.000006
0.270833,	0.008515,	0.000006
0.279167,	0.010256,	0.000006
0.287500,	0.011997,	0.000007
0.295833,	0.013738,	0.000007
0.304167,	0.015478,	0.000007
0.312500,	0.017219,	0.000008
0.320833,	0.018960,	0.000008
0.329167,	0.020701,	0.000009
0.337500,	0.022442,	0.000009
0.345833,	0.024183,	0.000009
0.354167,	0.025924,	0.000010
0.362500,	0.027665,	0.000010
0.370833,	0.029406,	0.000010
0.379167,	0.031147,	0.000011
0.387500,	0.032888,	0.000011
0.395833,	0.034629,	0.000011
0.404167,	0.036369,	0.000012
0.412500,	0.038110,	0.000012
0.420833,	0.039851,	0.000012
0.429167,	0.041592,	0.000013
0.437500,	0.043333,	0.000013
0.445833,	0.045074,	0.000013
0.454167,	0.046815,	0.000014
0.462500,	0.048556,	0.000014
0.470833,	0.050297,	0.000014
0.479167,	0.052038,	0.000015
0.487500,	0.053779,	0.000015
0.495833,	0.055520,	0.000015
0.504167,	0.057260,	0.000016
0.512500,	0.059001,	0.000016
0.520833,	0.060742,	0.000017
0.529167,	0.062483,	0.000017
0.537500,	0.064224,	0.000017
0.545833,	0.065965,	0.000018
0.554167,	0.067706,	0.000018
0.562500,	0.069447,	0.000018
0.570833,	0.071188,	0.000019
0.579167,	0.072929,	0.000019
0.587500,	0.074670,	0.000019
0.595833,	0.076411,	0.000020
0.604167,	0.078152,	0.000020
0.612500,	0.079892,	0.000020
0.620833,	0.081633,	0.000021
0.629167,	0.083374,	0.000021
0.637500,	0.085115,	0.000021
0.645833,	0.086856,	0.000022
0.654167,	0.088597,	0.000022
0.662500,	0.090338,	0.000022
0.670833,	0.092079,	0.000023
0.679167,	0.093820,	0.000023
0.687500,	0.095561,	0.000023
0.695833,	0.097302,	0.000024
0.704167,	0.099043,	0.000024
0.712500,	0.100783,	0.000025
0.720833,	0.102524,	0.000025
0.729167,	0.104265,	0.000025
0.737500,	0.106006,	0.000026
0.745833,	0.107747,	0.000026
0.754167,	0.109488,	0.000026
0.762500,	0.111229,	0.000027
0.770833,	0.112970,	0.000027
0.779167,	0.114711,	0.000027
0.787500,	0.116452,	0.000028
0.795833,	0.118193,	0.000028
0.804167,	0.119934,	0.000028
0.812500,	0.121674,	0.000029
0.820833,	0.123415,	0.000029
0.829167,	0.125156,	0.000029
0.837500,	0.126897,	0.000030
0.845833,	0.128638,	0.000030
0.854167,	0.130379,	0.000030
0.862500,	0.132120,	0.000031
0.870833,	0.133861,	0.000031
0.879167,	0.135602,	0.000031
0.887500,	0.137343,	0.000032
0.895833,	0.139084,	0.000032
0.904167,	0.140825,	0.000033
0.912500,	0.142565,	0.000033
0.920833,	0.144306,	0.000033
0.929167,	0.146047,	0.000034
0.937500,	0.147788,	0.000034
0.945833,	0.149529,	0.000034
0.954167,	0.151270,	0.000035
0.962500,	0.153011,	0.000035
0.970833,	0.154752,	0.000035
0.979167,	0.156493,	0.000036
0.987500,	0.158234,	0.000036
0.995833,	0.159975,	0.000036
0.004167,	0.004788,	0.000005
0.012500,	0.004788,	0.000005
0.020833,	0.004788,	0.000005
0.029167,	0.004788,	0.000005
0.037500,	0.004788,	0.000005
0.045833,	0.004788,	0.000005
0.054167,	0.004788,	0.000005
0.062500,	0.004788,	0.000005
0.070833,	0.004788,	0.000005
0.079167,	0.004788,	0.000005
0.087500,	0.004788,	0.000005
0.095833,	0.004788,	0.000005
0.104167,	0.004788,	0.000005
0.112500,	0.004788,	0.000005
0.120833,	0.004788,	0.000005
0.129167,	0.004788,	0.000005
0.137500,	0.004788,	0.000005
0.145833,	0.004788,	0.000005
0.154167,	0.004788,	0.000005
0.162500,	0.004788,	0.000005
0.170833,	0.004788,	0.000005
0.179167,	0.004788,	0.000005
0.187500,	0.004788,	0.000005
0.195833,	0.004788,	0.000005
0.204167,	0.004788,	0.000005
0.212500,	0.004788,	0.000005
0.220833,	0.004788,	0.000005
0.229167,	0.004788,	0.000005
0.237500,	0.004788,	0.000005
0.245833,	0.004788,	0.000005
0.254167,	0.005679,	0.000005
0.262500,	0.007462,	0.000006
0.270833,	0.009244,	0.000006
0.279167,	0.011027,	0.000006
0.287500,	0.012810,	0.000007
0.295833,	0.014592,	0.000007
0.304167,	0.016375,	0.000007
0.312500,	0.018158,	0.000008
0.320833,	0.019940,	0.000008
0.329167,	0.021723,	0.000009
0.337500,	0.023506,	0.000009
0.345833,	0.025288,	0.000009
0.354167,	0.027071,	0.000010
0.362500,	0.028854,	0.000010
0.370833,	0.030637,	0.000010
0.379167,	0.032419,	0.000011
0.387500,	0.034202,	0.000011
0.395833,	0.035985,	0.000011
0.404167,	0.037767,	0.000012
0.412500,	0.039550,	0.000012
0.420833,	0.041333,	0.000012
0.429167,	0.043115,	0.000013
0.437500,	0.044898,	0.000013
0.445833,	0.046681,	0.000013
0.454167,	0.048463,	0.000014
0.462500,	0.050246,	0.000014
0.470833,	0.052029,	0.000014
0.479167,	0.053812,	0.000015
0.487500,	0.055594,	0.000015
0.495833,	0.057377,	0.000015
0.504167,	0.059160,	0.000016
0.512500,	0.060942,	0.000016
0.520833,	0.062725,	0.000017
0.529167,	0.064508,	0.000017
0.537500,	0.066290,	0.000017
0.545833,	0.068073,	0.000018
0.554167,	0.069856,	0.000018
0.562500,	0.071638,	0.000018
0.570833,	0.073421,	0.000019
0.579167,	0.075204,	0.000019
0.587500,	0.076986,	0.000019
0.595833,	0.078769,	0.000020
0.604167,	0.080552,	0.000020
0.612500,	0.082335,	0.000020
0.620833,	0.084117,	0.000021
0.629167,	0.085900,	0.000021
0.637500,	0.087683,	0.000021
0.645833,	0.089465,	0.000022
0.654167,	0.091248,	0.000022
0.662500,	0.093031,	0.000022
0.670833,	0.094813,	0.000023
0.679167,	0.096596,	0.000023
0.687500,	0.098379,	0.000023
0.695833,	0.100161,	0.000024
0.704167,	0.101944,	0.000024
0.712500,	0.103727,	0.000025
0.720833,	0.105510,	0.000025
0.729167,	0.107292,	0.000025
0.737500,	0.109075,	0.000026
0.745833,	0.110858,	0.000026
0.754167,	0.112640,	0.000026
0.762500,	0.114423,	0.000027
0.770833,	0.116206,	0.000027
0.779167,	0.117988,	0.000027
0.787500,	0.119771,	0.000028
0.795833,	0.121554,	0.000028
0.804167,	0.123336,	0.000028
0.812500,	0.125119,	0.000029
0.820833,	0.126902,	0.000029
0.829167,	0.128685,	0.000029
0.837500,	0.130467,	0.000030
0.845833,	0.132250,	0.000030
0.854167,	0.134033,	0.000030
0.862500,	0.135815,	0.000031
0.870833,	0.137598,	0.000031
0.879167,	0.139381,	0.000031
0.887500,	0.141163,	0.000032
0.895833,	0.142946,	0.000032
0.904167,	0.144729,	0.000033
0.912500,	0.146511,	0.000033
0.920833,	0.148294,	0.000033
0.929167,	0.150077,	0.000034
0.937500,	0.151860,	0.000034
0.945833,	0.153642,	0.000034
0.954167,	0.155425,	0.000035
0.962500,	0.157208,	0.000035
0.970833,	0.158990,	0.000035
0.979167,	0.160773,	0.000036
0.987500,	0.162556,	0.000036
0.995833,	0.164338,	0.000036
0.004167,	0.005413,	0.000005
0.012500,	0.005413,	0.000005
0.020833,	0.005413,	0.000005
0.029167,	0.005413,	0.000005
0.037500,	0.005413,	0.000005
0.045833,	0.005413,	0.000005
0.054167,	0.005413,	0.000005
0.062500,	0.005413,	0.000005
0.070833,	0.005413,	0.000005
0.079167,	0.005413,	0.000005
0.087500,	0.005413,	0.000005
0.095833,	0.005413,	0.000005
0.104167,	0.005413,	0.000005
0.112500,	0.005413,	0.000005
0.120833,	0.005413,	0.000005
0.129167,	0.005413,	0.000005
0.137500,	0.005413,	0.000005
0.145833,	0.005413,	0.000005
0.154167,	0.005413,	0.000005
0.162500,	0.005413,	0.000005
0.170833,	0.005413,	0.000005
0.179167,	0.005413,	0.000005
0.187500,	0.005413,	0.000005
0.195833,	0.005413,	0.000005
0.204167,	0.005413,	0.000005
0.212500,	0.005413,	0.000005
0.220833,	0.005413,	0.000005
0.229167,	0.005413,	0.000005
0.237500,	0.005413,	0.000005
0.245833,	0.005413,	0.000005
0.254167,	0.006325,	0.000005
0.262500,	0.008149,	0.000006
0.270833,	0.009974,	0.000006
0.279167,	0.011798,	0.000006
0.287500,	0.013623,	0.000007
0.295833,	0.015447,	0.000007
0.304167,	0.017272,	0.000007
0.312500,	0.019096,	0.000008
0.320833,	0.020920,	0.000008
0.329167,	0.022745,	0.000009
0.337500,	0.024569,	0.000009
0.345833,	0.026394,	0.000009
0.354167,	0.028218,	0.000010
0.362500,	0.030043,	0.000010
0.370833,	0.031867,	0.000010
0.379167,	0.033692,	0.000011
0.387500,	0.035516,	0.000011
0.395833,	0.037341,	0.000011
0.404167,	0.039165,	0.000012
0.412500,	0.040990,	0.000012
0.420833,	0.042814,	0.000012
0.429167,	0.044638,	0.000013
0.437500,	0.046463,	0.000013
0.445833,	0.048287,	0.000013
0.454167,	0.050112,	0.000014
0.462500,	0.051936,	0.000014
0.470833,	0.053761,	0.000014
0.479167,	0.055585,	0.000015
0.487500,	0.057410,	0.000015
0.495833,	0.059234,	0.000015
0.504167,	0.061059,	0.000016
0.512500,	0.062883,	0.000016
0.520833,	0.064708,	0.000017
0.529167,	0.066532,	0.000017
0.537500,	0.068357,	0.000017
0.545833,	0.070181,	0.000018
0.554167,	0.072005,	0.000018
0.562500,	0.073830,	0.000018
0.570833,	0.075654,	0.000019
0.579167,	0.077479,	0.000019
0.587500,	0.079303,	0.000019