TITLE = "MeshVolumeStats"
VARIABLES = "X", "Y", "VOL"
ZONE I=397, J=139, DATAPACKING=POINT
0.005951,	0.003598,	0.000086
0.017852,	0.003600,	0.000086
0.029751,	0.003603,	0.000086
0.041647,	0.003606,	0.000086
0.053543,	0.003610,	0.000086
0.065437,	0.003613,	0.000086
0.077331,	0.003617,	0.000086
0.089224,	0.003621,	0.000086
0.101117,	0.003625,	0.000086
0.113010,	0.003629,	0.000086
0.124902,	0.003634,	0.000086
0.136794,	0.003639,	0.000087
0.148685,	0.003644,	0.000087
0.160576,	0.003649,	0.000087
0.172467,	0.003655,	0.000087
0.184356,	0.003662,	0.000087
0.196246,	0.003669,	0.000087
0.208134,	0.003676,	0.000087
0.220022,	0.003684,	0.000088
0.231909,	0.003693,	0.000088
0.243795,	0.003702,	0.000088
0.255680,	0.003712,	0.000088
0.267564,	0.003722,	0.000088
0.279448,	0.003734,	0.000089
0.291330,	0.003746,	0.000089
0.303211,	0.003760,	0.000089
0.315091,	0.003774,	0.000090
0.326970,	0.003790,	0.000090
0.338847,	0.003807,	0.000090
0.350724,	0.003826,	0.000091
0.362598,	0.003846,	0.000091
0.374469,	0.003868,	0.000092
0.386332,	0.003892,	0.000092
0.398160,	0.003918,	0.000093
0.408966,	0.003951,	0.000078
0.418742,	0.003988,	0.000078
0.428474,	0.004025,	0.000078
0.438193,	0.004065,	0.000079
0.447906,	0.004108,	0.000080
0.457614,	0.004155,	0.000081
0.467317,	0.004206,	0.000082
0.477014,	0.004263,	0.000083
0.486702,	0.004326,	0.000084
0.496379,	0.004397,	0.000085
0.506038,	0.004480,	0.000087
0.515665,	0.004591,	0.000089
0.525196,	0.004852,	0.000093
0.534812,	0.005434,	0.000109
0.544423,	0.006026,	0.000115
0.553746,	0.006457,	0.000121
0.562763,	0.007036,	0.000129
0.571313,	0.007921,	0.000140
0.579163,	0.009119,	0.000152
0.586161,	0.010472,	0.000162
0.590107,	0.014565,	0.000160
0.591421,	0.021817,	0.000150
0.592585,	0.029942,	0.000137
0.593434,	0.038802,	0.000125
0.593969,	0.048159,	0.000118
0.594368,	0.057817,	0.000112
0.595068,	0.067685,	0.000104
0.595930,	0.077291,	0.000079
0.596407,	0.086832,	0.000072
0.596575,	0.096763,	0.000069
0.596674,	0.106795,	0.000067
0.596774,	0.116830,	0.000065
0.596888,	0.126842,	0.000063
0.597014,	0.136832,	0.000060
0.597142,	0.146813,	0.000058
0.597263,	0.156802,	0.000055
0.597372,	0.166826,	0.000053
0.597485,	0.176922,	0.000051
0.597696,	0.187087,	0.000048
0.598541,	0.196909,	0.000033
0.602850,	0.201836,	0.000027
0.610051,	0.202083,	0.000030
0.617197,	0.202153,	0.000031
0.624293,	0.202196,	0.000031
0.631357,	0.202240,	0.000032
0.638402,	0.202289,	0.000032
0.645435,	0.202341,	0.000033
0.652460,	0.202396,	0.000034
0.659478,	0.202453,	0.000034
0.666493,	0.202512,	0.000035
0.673504,	0.202570,	0.000036
0.680514,	0.202627,	0.000037
0.687522,	0.202684,	0.000038
0.694530,	0.202741,	0.000038
0.701538,	0.202797,	0.000039
0.708546,	0.202853,	0.000040
0.715555,	0.202910,	0.000041
0.722565,	0.202966,	0.000042
0.729579,	0.203020,	0.000042
0.736596,	0.203073,	0.000043
0.743619,	0.203125,	0.000044
0.750650,	0.203179,	0.000045
0.757691,	0.203237,	0.000046
0.764753,	0.203303,	0.000047
0.771915,	0.203335,	0.000048
0.779272,	0.203330,	0.000050
0.786748,	0.203327,	0.000050
0.794231,	0.203325,	0.000050
0.801706,	0.203324,	0.000050
0.809176,	0.203324,	0.000050
0.816642,	0.203323,	0.000050
0.824108,	0.203322,	0.000050
0.831573,	0.203321,	0.000050
0.839038,	0.203320,	0.000050
0.846502,	0.203319,	0.000050
0.853966,	0.203318,	0.000050
0.861431,	0.203317,	0.000050
0.868895,	0.203315,	0.000049
0.876360,	0.203314,	0.000049
0.883824,	0.203313,	0.000049
0.891288,	0.203311,	0.000049
0.898753,	0.203310,	0.000049
0.906217,	0.203308,	0.000049
0.913682,	0.203307,	0.000049
0.921146,	0.203305,	0.000049
0.928610,	0.203304,	0.000049
0.936075,	0.203302,	0.000049
0.943539,	0.203301,	0.000049
0.951004,	0.203299,	0.000049
0.958468,	0.203297,	0.000049
0.965933,	0.203296,	0.000049
0.973397,	0.203294,	0.000049
0.980862,	0.203293,	0.000049
0.988326,	0.203291,	0.000049
0.995791,	0.203290,	0.000049
1.003255,	0.203288,	0.000049
1.010720,	0.203286,	0.000049
1.018184,	0.203285,	0.000049
1.025649,	0.203283,	0.000049
1.033113,	0.203281,	0.000049
1.040578,	0.203280,	0.000049
1.048042,	0.203278,	0.000049
1.055507,	0.203277,	0.000049
1.062971,	0.203275,	0.000049
1.070436,	0.203273,	0.000049
1.077900,	0.203272,	0.000049
1.085365,	0.203270,	0.000049
1.092829,	0.203268,	0.000049
1.100294,	0.203267,	0.000049
1.107758,	0.203265,	0.000049
1.115223,	0.203264,	0.000049
1.122687,	0.203262,	0.000049
1.130152,	0.203260,	0.000049
1.137616,	0.203259,	0.000049
1.145081,	0.203257,	0.000049
1.152545,	0.203255,	0.000049
1.160010,	0.203254,	0.000049
1.167474,	0.203252,	0.000049
1.174939,	0.203250,	0.000049
1.182403,	0.203249,	0.000048
1.189868,	0.203247,	0.000048
1.197332,	0.203245,	0.000048
1.204797,	0.203244,	0.000048
1.212261,	0.203242,	0.000048
1.219726,	0.203240,	0.000048
1.227190,	0.203239,	0.000048
1.234654,	0.203237,	0.000048
1.242119,	0.203235,	0.000048
1.249583,	0.203234,	0.000048
1.257048,	0.203232,	0.000048
1.264512,	0.203230,	0.000048
1.271977,	0.203229,	0.000048
1.279441,	0.203227,	0.000048
1.286906,	0.203225,	0.000048
1.294370,	0.203224,	0.000048
1.301835,	0.203222,	0.000048
1.309299,	0.203220,	0.000048
1.316764,	0.203219,	0.000048
1.324228,	0.203217,	0.000048
1.331693,	0.203215,	0.000048
1.339157,	0.203214,	0.000048
1.346622,	0.203212,	0.000048
1.354086,	0.203210,	0.000048
1.361551,	0.203209,	0.000048
1.369015,	0.203207,	0.000048
1.376480,	0.203205,	0.000048
1.383944,	0.203203,	0.000048
1.391408,	0.203202,	0.000048
1.398873,	0.203200,	0.000048
1.406337,	0.203198,	0.000048
1.413802,	0.203197,	0.000048
1.421266,	0.203195,	0.000048
1.428731,	0.203193,	0.000048
1.436195,	0.203192,	0.000048
1.443660,	0.203190,	0.000048
1.451124,	0.203188,	0.000048
1.458589,	0.203187,	0.000048
1.466053,	0.203185,	0.000048
1.473518,	0.203183,	0.000048
1.480982,	0.203182,	0.000047
1.488447,	0.203180,	0.000047
1.495911,	0.203178,	0.000047
1.503375,	0.203176,	0.000047
1.510840,	0.203175,	0.000047
1.518304,	0.203173,	0.000047
1.525769,	0.203171,	0.000047
1.533233,	0.203170,	0.000047
1.540698,	0.203168,	0.000047
1.548162,	0.203166,	0.000047
1.555627,	0.203165,	0.000047
1.563091,	0.203163,	0.000047
1.570556,	0.203161,	0.000047
1.578020,	0.203160,	0.000047
1.585485,	0.203158,	0.000047
1.592949,	0.203156,	0.000047
1.600413,	0.203155,	0.000047
1.607878,	0.203153,	0.000047
1.615342,	0.203151,	0.000047
1.622807,	0.203149,	0.000047
1.630271,	0.203148,	0.000047
1.637736,	0.203146,	0.000047
1.645200,	0.203144,	0.000047
1.652665,	0.203143,	0.000047
1.660129,	0.203141,	0.000047
1.667594,	0.203139,	0.000047
1.675058,	0.203138,	0.000047
1.682523,	0.203136,	0.000047
1.689987,	0.203134,	0.000047
1.697452,	0.203133,	0.000047
1.704916,	0.203131,	0.000047
1.712380,	0.203129,	0.000047
1.719845,	0.203128,	0.000047
1.727309,	0.203126,	0.000047
1.734774,	0.203124,	0.000047
1.742238,	0.203123,	0.000047
1.749703,	0.203121,	0.000047
1.757167,	0.203119,	0.000047
1.764632,	0.203118,	0.000047
1.772096,	0.203116,	0.000047
1.779561,	0.203114,	0.000046
1.787025,	0.203113,	0.000046
1.794490,	0.203111,	0.000046
1.801954,	0.203109,	0.000046
1.809418,	0.203107,	0.000046
1.816883,	0.203106,	0.000046
1.824347,	0.203104,	0.000046
1.831812,	0.203102,	0.000046
1.839276,	0.203101,	0.000046
1.846741,	0.203099,	0.000046
1.854205,	0.203097,	0.000046
1.861670,	0.203096,	0.000046
1.869134,	0.203094,	0.000046
1.876599,	0.203092,	0.000046
1.884063,	0.203090,	0.000046
1.891528,	0.203089,	0.000046
1.898992,	0.203087,	0.000046
1.906456,	0.203085,	0.000046
1.913921,	0.203084,	0.000046
1.921385,	0.203082,	0.000046
1.928850,	0.203080,	0.000046
1.936314,	0.203078,	0.000046
1.943779,	0.203077,	0.000046
1.951243,	0.203075,	0.000046
1.958708,	0.203073,	0.000046
1.966172,	0.203071,	0.000046
1.973637,	0.203070,	0.000046
1.981101,	0.203068,	0.000046
1.988566,	0.203066,	0.000046
1.996030,	0.203064,	0.000046
2.003494,	0.203063,	0.000046
2.010959,	0.203061,	0.000046
2.018423,	0.203059,	0.000046
2.025888,	0.203058,	0.000046
2.033352,	0.203056,	0.000046
2.040817,	0.203054,	0.000046
2.048281,	0.203052,	0.000046
2.055746,	0.203051,	0.000046
2.063210,	0.203049,	0.000046
2.070675,	0.203047,	0.000045
2.078139,	0.203045,	0.000045
2.085604,	0.203044,	0.000045
2.093068,	0.203042,	0.000045
2.100532,	0.203040,	0.000045
2.107997,	0.203038,	0.000045
2.115461,	0.203037,	0.000045
2.122926,	0.203035,	0.000045
2.130390,	0.203033,	0.000045
2.137855,	0.203031,	0.000045
2.145319,	0.203030,	0.000045
2.152784,	0.203028,	0.000045
2.160248,	0.203026,	0.000045
2.167713,	0.203024,	0.000045
2.175177,	0.203022,	0.000045
2.182642,	0.203021,	0.000045
2.190106,	0.203019,	0.000045
2.197570,	0.203017,	0.000045
2.205035,	0.203015,	0.000045
2.212499,	0.203014,	0.000045
2.219964,	0.203012,	0.000045
2.227428,	0.203010,	0.000045
2.234893,	0.203008,	0.000045
2.242357,	0.203007,	0.000045
2.249822,	0.203005,	0.000045
2.257286,	0.203003,	0.000045
2.264751,	0.203001,	0.000045
2.272215,	0.202999,	0.000045
2.279680,	0.202998,	0.000045
2.287144,	0.202996,	0.000045
2.294608,	0.202994,	0.000045
2.302073,	0.202992,	0.000045
2.309537,	0.202991,	0.000045
2.317002,	0.202989,	0.000045
2.324466,	0.202987,	0.000045
2.331931,	0.202985,	0.000045
2.339395,	0.202983,	0.000045
2.346860,	0.202982,	0.000045
2.354324,	0.202980,	0.000044
2.361789,	0.202978,	0.000044
2.369253,	0.202976,	0.000044
2.376718,	0.202974,	0.000044
2.384182,	0.202972,	0.000044
2.391646,	0.202971,	0.000044
2.399111,	0.202969,	0.000044
2.406575,	0.202967,	0.000044
2.414040,	0.202965,	0.000044
2.421504,	0.202963,	0.000044
2.428969,	0.202962,	0.000044
2.436433,	0.202960,	0.000044
2.443898,	0.202958,	0.000044
2.451362,	0.202956,	0.000044
2.458827,	0.202954,	0.000044
2.466291,	0.202952,	0.000044
2.473756,	0.202950,	0.000044
2.481220,	0.202948,	0.000044
2.488684,	0.202947,	0.000044
2.496149,	0.202945,	0.000044
2.503613,	0.202943,	0.000044
2.511078,	0.202941,	0.000044
2.518542,	0.202939,	0.000044
2.526007,	0.202937,	0.000044
2.533471,	0.202935,	0.000044
2.540936,	0.202933,	0.000044
2.548400,	0.202931,	0.000044
2.555865,	0.202930,	0.000044
2.563329,	0.202928,	0.000044
2.570793,	0.202926,	0.000044
2.578258,	0.202924,	0.000044
2.585722,	0.202922,	0.000044
2.593187,	0.202920,	0.000044
2.600651,	0.202918,	0.000044
2.608116,	0.202917,	0.000044
2.615580,	0.202915,	0.000044
2.623045,	0.202913,	0.000043
2.630509,	0.202911,	0.000043
2.637974,	0.202909,	0.000043
2.645438,	0.202907,	0.000043
2.652903,	0.202905,	0.000043
2.660367,	0.202904,	0.000043
2.667831,	0.202902,	0.000043
2.675296,	0.202900,	0.000043
2.682760,	0.202898,	0.000043
2.690225,	0.202896,	0.000043
2.697689,	0.202894,	0.000043
2.705154,	0.202892,	0.000043
2.712618,	0.202891,	0.000043
2.720083,	0.202889,	0.000043
2.727547,	0.202887,	0.000043
2.735012,	0.202885,	0.000043
2.742476,	0.202883,	0.000043
2.749941,	0.202881,	0.000043
2.757405,	0.202879,	0.000043
2.764869,	0.202877,	0.000043
2.772334,	0.202875,	0.000043
2.779798,	0.202873,	0.000043
2.787263,	0.202872,	0.000043
2.794727,	0.202870,	0.000043
2.802192,	0.202868,	0.000043
2.809656,	0.202866,	0.000043
2.817121,	0.202864,	0.000043
2.824585,	0.202862,	0.000043
2.832050,	0.202860,	0.000043
2.839514,	0.202858,	0.000043
2.846979,	0.202857,	0.000043
2.854443,	0.202855,	0.000043
2.861907,	0.202853,	0.000043
2.869372,	0.202851,	0.000043
2.876836,	0.202849,	0.000043
2.884301,	0.202847,	0.000043
2.891765,	0.202845,	0.000042
2.899230,	0.202844,	0.000042
2.906694,	0.202842,	0.000042
2.914159,	0.202840,	0.000042
2.921623,	0.202838,	0.000042
2.929088,	0.202836,	0.000042
2.936552,	0.202834,	0.000042
2.944017,	0.202833,	0.000042
2.951481,	0.202831,	0.000042
2.958945,	0.202829,	0.000042
2.966410,	0.202827,	0.000042
2.973874,	0.202825,	0.000042
2.981339,	0.202824,	0.000042
2.988803,	0.202822,	0.000042
2.996268,	0.202820,	0.000042
0.005944,	0.010792,	0.000086
0.017828,	0.010795,	0.000085
0.029703,	0.010801,	0.000085
0.041572,	0.010808,	0.000085
0.053436,	0.010814,	0.000085
0.065297,	0.010820,	0.000085
0.077157,	0.010825,	0.000085
0.089015,	0.010830,	0.000085
0.100872,	0.010836,	0.000085
0.112728,	0.010841,	0.000085
0.124582,	0.010848,	0.000085
0.136435,	0.010855,	0.000085
0.148286,	0.010864,	0.000085
0.160135,	0.010874,	0.000085
0.171983,	0.010886,	0.000085
0.183828,	0.010899,	0.000085
0.195671,	0.010914,	0.000085
0.207512,	0.010932,	0.000085
0.219350,	0.010951,	0.000085
0.231185,	0.010973,	0.000085
0.243017,	0.010997,	0.000085
0.254846,	0.011024,	0.000085
0.266672,	0.011055,	0.000085
0.278494,	0.011089,	0.000086
0.290311,	0.011126,	0.000086
0.302125,	0.011168,	0.000086
0.313934,	0.011215,	0.000087
0.325738,	0.011267,	0.000087
0.337537,	0.011324,	0.000088
0.349330,	0.011389,	0.000088
0.361117,	0.011460,	0.000089
0.372894,	0.011538,	0.000090
0.384653,	0.011624,	0.000090
0.396350,	0.011719,	0.000091
0.407081,	0.011826,	0.000077
0.416837,	0.011944,	0.000077
0.426511,	0.012072,	0.000078
0.436150,	0.012211,	0.000079
0.445766,	0.012363,	0.000080
0.455362,	0.012531,	0.000081
0.464938,	0.012716,	0.000083
0.474490,	0.012920,	0.000084
0.484009,	0.013146,	0.000086
0.493486,	0.013400,	0.000088
0.502900,	0.013689,	0.000090
0.512218,	0.014041,	0.000092
0.521340,	0.014599,	0.000091
0.530446,	0.016044,	0.000107
0.539301,	0.017794,	0.000106
0.547496,	0.019125,	0.000108
0.555021,	0.020634,	0.000109
0.561653,	0.022617,	0.000107
0.567084,	0.025094,	0.000096
0.571113,	0.027853,	0.000080
0.574144,	0.031061,	0.000082
0.576825,	0.035400,	0.000097
0.579223,	0.041235,	0.000106
0.581109,	0.048358,	0.000107
0.582516,	0.056413,	0.000104
0.583807,	0.065052,	0.000099
0.585804,	0.074044,	0.000099
0.587996,	0.082743,	0.000075
0.589218,	0.091690,	0.000074
0.589736,	0.101576,	0.000071
0.590039,	0.111746,	0.000069
0.590319,	0.121916,	0.000067
0.590632,	0.131998,	0.000065
0.590979,	0.141995,	0.000063
0.591347,	0.151942,	0.000061
0.591725,	0.161891,	0.000058
0.592129,	0.171899,	0.000055
0.592655,	0.182004,	0.000051
0.593615,	0.192066,	0.000043
0.596085,	0.201012,	0.000032
0.601630,	0.205378,	0.000026
0.609039,	0.205940,	0.000027
0.616353,	0.206205,	0.000028
0.623570,	0.206403,	0.000029
0.630723,	0.206592,	0.000030
0.637834,	0.206780,	0.000031
0.644918,	0.206966,	0.000032
0.651983,	0.207150,	0.000033
0.659035,	0.207333,	0.000034
0.666077,	0.207512,	0.000035
0.673114,	0.207686,	0.000036
0.680146,	0.207856,	0.000037
0.687175,	0.208020,	0.000037
0.694203,	0.208180,	0.000038
0.701232,	0.208335,	0.000039
0.708261,	0.208487,	0.000039
0.715292,	0.208635,	0.000040
0.722329,	0.208778,	0.000040
0.729372,	0.208914,	0.000041
0.736425,	0.209044,	0.000041
0.743492,	0.209170,	0.000041
0.750575,	0.209301,	0.000042
0.757677,	0.209450,	0.000042
0.764796,	0.209656,	0.000044
0.771889,	0.209771,	0.000044
0.779148,	0.209759,	0.000046
0.786632,	0.209752,	0.000047
0.794136,	0.209750,	0.000046
0.801628,	0.209750,	0.000046
0.809108,	0.209751,	0.000046
0.816582,	0.209752,	0.000046
0.824053,	0.209752,	0.000046
0.831521,	0.209752,	0.000046
0.838989,	0.209751,	0.000046
0.846456,	0.209750,	0.000046
0.853923,	0.209749,	0.000046
0.861389,	0.209747,	0.000047
0.868856,	0.209746,	0.000047
0.876322,	0.209744,	0.000047
0.883788,	0.209742,	0.000047
0.891254,	0.209740,	0.000047
0.898720,	0.209737,	0.000047
0.906186,	0.209735,	0.000047
0.913651,	0.209732,	0.000047
0.921117,	0.209729,	0.000047
0.928583,	0.209726,	0.000047
0.936049,	0.209723,	0.000047
0.943514,	0.209720,	0.000047
0.950980,	0.209717,	0.000047
0.958445,	0.209714,	0.000047
0.965911,	0.209711,	0.000047
0.973376,	0.209707,	0.000047
0.980841,	0.209704,	0.000047
0.988307,	0.209700,	0.000047
0.995772,	0.209697,	0.000047
1.003237,	0.209693,	0.000047
1.010703,	0.209689,	0.000047
1.018168,	0.209686,	0.000047
1.025633,	0.209682,	0.000047
1.033098,	0.209678,	0.000047
1.040563,	0.209674,	0.000047
1.048029,	0.209671,	0.000046
1.055494,	0.209667,	0.000046
1.062959,	0.209663,	0.000046
1.070424,	0.209659,	0.000046
1.077889,	0.209655,	0.000046
1.085354,	0.209651,	0.000046
1.092819,	0.209647,	0.000046
1.100284,	0.209643,	0.000046
1.107749,	0.209639,	0.000046
1.115213,	0.209634,	0.000046
1.122678,	0.209630,	0.000046
1.130143,	0.209626,	0.000046
1.137608,	0.209622,	0.000046
1.145073,	0.209618,	0.000046
1.152537,	0.209614,	0.000046
1.160002,	0.209609,	0.000046
1.167467,	0.209605,	0.000046
1.174932,	0.209601,	0.000046
1.182396,	0.209597,	0.000046
1.189861,	0.209592,	0.000046
1.197326,	0.209588,	0.000046
1.204791,	0.209584,	0.000046
1.212255,	0.209579,	0.000046
1.219720,	0.209575,	0.000046
1.227184,	0.209571,	0.000046
1.234649,	0.209566,	0.000046
1.242114,	0.209562,	0.000046
1.249578,	0.209558,	0.000046
1.257043,	0.209553,	0.000046
1.264508,	0.209549,	0.000046
1.271972,	0.209544,	0.000046
1.279437,	0.209540,	0.000046
1.286901,	0.209536,	0.000046
1.294366,	0.209531,	0.000046
1.301830,	0.209527,	0.000046
1.309295,	0.209522,	0.000046
1.316760,	0.209518,	0.000046
1.324224,	0.209514,	0.000046
1.331689,	0.209509,	0.000046
1.339153,	0.209505,	0.000046
1.346618,	0.209500,	0.000046
1.354082,	0.209496,	0.000046
1.361547,	0.209491,	0.000046
1.369011,	0.209487,	0.000046
1.376476,	0.209482,	0.000046
1.383940,	0.209478,	0.000046
1.391405,	0.209473,	0.000046
1.398869,	0.209469,	0.000046
1.406334,	0.209465,	0.000046
1.413798,	0.209460,	0.000046
1.421263,	0.209456,	0.000046
1.428727,	0.209451,	0.000046
1.436192,	0.209447,	0.000046
1.443656,	0.209442,	0.000046
1.451121,	0.209438,	0.000046
1.458585,	0.209433,	0.000046
1.466050,	0.209429,	0.000046
1.473514,	0.209424,	0.000046
1.480979,	0.209420,	0.000046
1.488443,	0.209415,	0.000046
1.495908,	0.209411,	0.000046
1.503372,	0.209406,	0.000046
1.510837,	0.209402,	0.000046
1.518301,	0.209397,	0.000046
1.525766,	0.209393,	0.000046
1.533230,	0.209388,	0.000046
1.540695,	0.209384,	0.000046
1.548159,	0.209379,	0.000045
1.555624,	0.209375,	0.000045
1.563088,	0.209370,	0.000045
1.570553,	0.209366,	0.000045
1.578017,	0.209361,	0.000045
1.585482,	0.209357,	0.000045
1.592946,	0.209353,	0.000045
1.600411,	0.209348,	0.000045
1.607875,	0.209344,	0.000045
1.615340,	0.209339,	0.000045
1.622804,	0.209335,	0.000045
1.630269,	0.209330,	0.000045
1.637733,	0.209326,	0.000045
1.645198,	0.209321,	0.000045
1.652662,	0.209317,	0.000045
1.660127,	0.209312,	0.000045
1.667591,	0.209308,	0.000045
1.675056,	0.209303,	0.000045
1.682520,	0.209299,	0.000045
1.689985,	0.209294,	0.000045
1.697449,	0.209290,	0.000045
1.704914,	0.209285,	0.000045
1.712378,	0.209281,	0.000045
1.719842,	0.209276,	0.000045
1.727307,	0.209272,	0.000045
1.734771,	0.209267,	0.000045
1.742236,	0.209263,	0.000045
1.749700,	0.209259,	0.000045
1.757165,	0.209254,	0.000045
1.764629,	0.209250,	0.000045
1.772094,	0.209246,	0.000045
1.779558,	0.209241,	0.000045
1.787023,	0.209237,	0.000045
1.794487,	0.209232,	0.000045
1.801952,	0.209228,	0.000045
1.809416,	0.209223,	0.000045
1.816881,	0.209219,	0.000045
1.824345,	0.209214,	0.000045
1.831810,	0.209210,	0.000045
1.839274,	0.209205,	0.000045
1.846739,	0.209200,	0.000045
1.854203,	0.209196,	0.000045
1.861668,	0.209191,	0.000045
1.869132,	0.209187,	0.000045
1.876597,	0.209182,	0.000045
1.884061,	0.209178,	0.000045
1.891526,	0.209173,	0.000045
1.898990,	0.209169,	0.000045
1.906454,	0.209164,	0.000045
1.913919,	0.209159,	0.000045
1.921383,	0.209155,	0.000045
1.928848,	0.209150,	0.000045
1.936312,	0.209146,	0.000045
1.943777,	0.209141,	0.000045
1.951241,	0.209136,	0.000045
1.958706,	0.209132,	0.000045
1.966170,	0.209127,	0.000045
1.973635,	0.209123,	0.000045
1.981099,	0.209118,	0.000045
1.988564,	0.209113,	0.000045
1.996028,	0.209109,	0.000044
2.003493,	0.209104,	0.000044
2.010957,	0.209100,	0.000044
2.018422,	0.209095,	0.000044
2.025886,	0.209090,	0.000044
2.033351,	0.209086,	0.000044
2.040815,	0.209081,	0.000044
2.048280,	0.209076,	0.000044
2.055744,	0.209072,	0.000044
2.063209,	0.209067,	0.000044
2.070673,	0.209063,	0.000044
2.078137,	0.209058,	0.000044
2.085602,	0.209053,	0.000044
2.093066,	0.209049,	0.000044
2.100531,	0.209044,	0.000044
2.107995,	0.209039,	0.000044
2.115460,	0.209035,	0.000044
2.122924,	0.209030,	0.000044
2.130389,	0.209025,	0.000044
2.137853,	0.209021,	0.000044
2.145318,	0.209016,	0.000044
2.152782,	0.209011,	0.000044
2.160247,	0.209007,	0.000044
2.167711,	0.209002,	0.000044
2.175176,	0.208997,	0.000044
2.182640,	0.208993,	0.000044
2.190105,	0.208988,	0.000044
2.197569,	0.208983,	0.000044
2.205034,	0.208979,	0.000044
2.212498,	0.208974,	0.000044
2.219963,	0.208969,	0.000044
2.227427,	0.208964,	0.000044
2.234891,	0.208960,	0.000044
2.242356,	0.208955,	0.000044
2.249820,	0.208950,	0.000044
2.257285,	0.208946,	0.000044
2.264749,	0.208941,	0.000044
2.272214,	0.208936,	0.000044
2.279678,	0.208931,	0.000044
2.287143,	0.208927,	0.000044
2.294607,	0.208922,	0.000044
2.302072,	0.208917,	0.000044
2.309536,	0.208912,	0.000044
2.317001,	0.208908,	0.000044
2.324465,	0.208903,	0.000044
2.331930,	0.208898,	0.000044
2.339394,	0.208893,	0.000044
2.346859,	0.208889,	0.000044
2.354323,	0.208884,	0.000044
2.361788,	0.208879,	0.000044
2.369252,	0.208874,	0.000044
2.376716,	0.208869,	0.000044
2.384181,	0.208865,	0.000044
2.391645,	0.208860,	0.000044
2.399110,	0.208855,	0.000044
2.406574,	0.208850,	0.000044
2.414039,	0.208845,	0.000044
2.421503,	0.208841,	0.000043
2.428968,	0.208836,	0.000043
2.436432,	0.208831,	0.000043
2.443897,	0.208826,	0.000043
2.451361,	0.208821,	0.000043
2.458826,	0.208816,	0.000043
2.466290,	0.208811,	0.000043
2.473755,	0.208806,	0.000043
2.481219,	0.208801,	0.000043
2.488684,	0.208796,	0.000043
2.496148,	0.208791,	0.000043
2.503613,	0.208786,	0.000043
2.511077,	0.208781,	0.000043
2.518541,	0.208776,	0.000043
2.526006,	0.208771,	0.000043
2.533470,	0.208766,	0.000043
2.540935,	0.208761,	0.000043
2.548399,	0.208756,	0.000043
2.555864,	0.208751,	0.000043
2.563328,	0.208746,	0.000043
2.570793,	0.208741,	0.000043
2.578257,	0.208737,	0.000043
2.585722,	0.208732,	0.000043
2.593186,	0.208727,	0.000043
2.600651,	0.208722,	0.000043
2.608115,	0.208717,	0.000043
2.615580,	0.208712,	0.000043
2.623044,	0.208707,	0.000043
2.630509,	0.208702,	0.000043
2.637973,	0.208697,	0.000043
2.645438,	0.208692,	0.000043
2.652902,	0.208687,	0.000043
2.660366,	0.208682,	0.000043
2.667831,	0.208677,	0.000043
2.675295,	0.208672,	0.000043
2.682760,	0.208667,	0.000043
2.690224,	0.208663,	0.000043
2.697689,	0.208658,	0.000043
2.705153,	0.208653,	0.000043
2.712618,	0.208648,	0.000043
2.720082,	0.208643,	0.000043
2.727547,	0.208638,	0.000043
2.735011,	0.208633,	0.000043
2.742476,	0.208628,	0.000043
2.749940,	0.208623,	0.000043
2.757405,	0.208618,	0.000043
2.764869,	0.208613,	0.000043
2.772334,	0.208607,	0.000043
2.779798,	0.208602,	0.000043
2.787262,	0.208597,	0.000043
2.794727,	0.208592,	0.000043
2.802191,	0.208587,	0.000043
2.809656,	0.208582,	0.000043
2.817120,	0.208577,	0.000043
2.824585,	0.208572,	0.000043
2.832049,	0.208567,	0.000042
2.839514,	0.208562,	0.000042
2.846978,	0.208557,	0.000042
2.854443,	0.208552,	0.000042
2.861907,	0.208547,	0.000042
2.869372,	0.208542,	0.000042
2.876836,	0.208537,	0.000042
2.884301,	0.208532,	0.000042
2.891765,	0.208527,	0.000042
2.899230,	0.208523,	0.000042
2.906694,	0.208518,	0.000042
2.914159,	0.208513,	0.000042
2.921623,	0.208508,	0.000042
2.929088,	0.208503,	0.000042
2.936552,	0.208498,	0.000042
2.944016,	0.208493,	0.000042
2.951481,	0.208488,	0.000042
2.958945,	0.208483,	0.000042
2.966410,	0.208478,	0.000042
2.973874,	0.208473,	0.000042
2.981339,	0.208468,	0.000042
2.988803,	0.208462,	0.000042
2.996268,	0.208459,	0.000042
0.005941,	0.017983,	0.000085
0.017814,	0.017980,	0.000085
0.029668,	0.017980,	0.000085
0.041511,	0.017979,	0.000085
0.053346,	0.017975,	0.000084
0.065176,	0.017969,	0.000084
0.077003,	0.017962,	0.000084
0.088827,	0.017953,	0.000084
0.100649,	0.017944,	0.000083
0.112469,	0.017936,	0.000083
0.124285,	0.017929,	0.000083
0.136099,	0.017923,	0.000082
0.147910,	0.017920,	0.000082
0.159718,	0.017920,	0.000082
0.171523,	0.017923,	0.000082
0.183323,	0.017930,	0.000082
0.195119,	0.017940,	0.000081
0.206911,	0.017954,	0.000081
0.218698,	0.017973,	0.000081
0.230479,	0.017997,	0.000081
0.242254,	0.018027,	0.000081
0.254023,	0.018062,	0.000081
0.265785,	0.018104,	0.000081
0.277539,	0.018154,	0.000081
0.289285,	0.018211,	0.000081
0.301022,	0.018278,	0.000081
0.312750,	0.018355,	0.000082
0.324467,	0.018443,	0.000082
0.336174,	0.018543,	0.000082
0.347869,	0.018657,	0.000083
0.359551,	0.018786,	0.000083
0.371216,	0.018931,	0.000084
0.382858,	0.019091,	0.000085
0.394457,	0.019269,	0.000085
0.405084,	0.019456,	0.000072
0.414727,	0.019661,	0.000072
0.424300,	0.019892,	0.000073
0.433824,	0.020149,	0.000074
0.443305,	0.020435,	0.000075
0.452747,	0.020750,	0.000076
0.462146,	0.021098,	0.000078
0.471496,	0.021483,	0.000079
0.480783,	0.021909,	0.000081
0.489988,	0.022384,	0.000082
0.499081,	0.022915,	0.000083
0.508019,	0.023516,	0.000085
0.516740,	0.024202,	0.000084
0.525120,	0.026073,	0.000096
0.532883,	0.028604,	0.000088
0.539926,	0.030581,	0.000085
0.546285,	0.032576,	0.000082
0.551881,	0.034849,	0.000079
0.556612,	0.037462,	0.000072
0.560400,	0.040357,	0.000065
0.563514,	0.043697,	0.000067
0.566311,	0.047910,	0.000074
0.568834,	0.053223,	0.000079
0.571005,	0.059507,	0.000080
0.572918,	0.066547,	0.000080
0.574916,	0.074062,	0.000080
0.577731,	0.081736,	0.000085
0.580635,	0.089553,	0.000073
0.582386,	0.098329,	0.000071
0.583291,	0.108279,	0.000067
0.583850,	0.118618,	0.000063
0.584338,	0.128922,	0.000060
0.584859,	0.139052,	0.000057
0.585435,	0.149014,	0.000054
0.586073,	0.158862,	0.000051
0.586784,	0.168666,	0.000047
0.587634,	0.178473,	0.000043
0.588828,	0.188240,	0.000038
0.590818,	0.197624,	0.000032
0.594546,	0.205301,	0.000027
0.600686,	0.208855,	0.000027
0.608050,	0.209521,	0.000027
0.615372,	0.209995,	0.000028
0.622620,	0.210397,	0.000029
0.629808,	0.210773,	0.000030
0.636954,	0.211132,	0.000031
0.644072,	0.211474,	0.000032
0.651170,	0.211801,	0.000033
0.658256,	0.212114,	0.000034
0.665332,	0.212415,	0.000034
0.672402,	0.212701,	0.000035
0.679468,	0.212974,	0.000036
0.686532,	0.213235,	0.000036
0.693595,	0.213484,	0.000037
0.700658,	0.213722,	0.000038
0.707723,	0.213948,	0.000038
0.714792,	0.214164,	0.000038
0.721867,	0.214367,	0.000039
0.728951,	0.214556,	0.000039
0.736047,	0.214732,	0.000040
0.743160,	0.214902,	0.000040
0.750289,	0.215078,	0.000041
0.757430,	0.215291,	0.000041
0.764552,	0.215619,	0.000042
0.771674,	0.215816,	0.000042
0.778971,	0.215805,	0.000044
0.786451,	0.215801,	0.000044
0.793960,	0.215804,	0.000044
0.801461,	0.215810,	0.000044
0.808952,	0.215817,	0.000044
0.816437,	0.215823,	0.000044
0.823916,	0.215828,	0.000044
0.831393,	0.215833,	0.000044
0.838868,	0.215837,	0.000044
0.846341,	0.215841,	0.000045
0.853814,	0.215843,	0.000045
0.861286,	0.215846,	0.000045
0.868758,	0.215847,	0.000045
0.876229,	0.215848,	0.000045
0.883699,	0.215849,	0.000045
0.891170,	0.215849,	0.000045
0.898640,	0.215849,	0.000045
0.906109,	0.215848,	0.000045
0.913579,	0.215848,	0.000045
0.921048,	0.215846,	0.000045
0.928517,	0.215845,	0.000045
0.935985,	0.215843,	0.000045
0.943454,	0.215841,	0.000045
0.950922,	0.215839,	0.000045
0.958390,	0.215836,	0.000045
0.965858,	0.215833,	0.000045
0.973326,	0.215830,	0.000045
0.980794,	0.215827,	0.000045
0.988262,	0.215824,	0.000045
0.995729,	0.215820,	0.000045
1.003196,	0.215816,	0.000045
1.010664,	0.215813,	0.000045
1.018131,	0.215809,	0.000045
1.025597,	0.215805,	0.000045
1.033064,	0.215800,	0.000045
1.040531,	0.215796,	0.000045
1.047998,	0.215792,	0.000045
1.055464,	0.215787,	0.000045
1.062930,	0.215783,	0.000045
1.070397,	0.215778,	0.000045
1.077863,	0.215773,	0.000045
1.085329,	0.215768,	0.000045
1.092795,	0.215763,	0.000045
1.100261,	0.215758,	0.000045
1.107727,	0.215753,	0.000045
1.115193,	0.215747,	0.000045
1.122658,	0.215742,	0.000045
1.130124,	0.215737,	0.000045
1.137589,	0.215731,	0.000045
1.145055,	0.215726,	0.000045
1.152520,	0.215720,	0.000045
1.159986,	0.215715,	0.000045
1.167451,	0.215709,	0.000045
1.174916,	0.215703,	0.000045
1.182381,	0.215698,	0.000045
1.189846,	0.215692,	0.000045
1.197312,	0.215686,	0.000045
1.204777,	0.215680,	0.000045
1.212242,	0.215674,	0.000045
1.219707,	0.215668,	0.000045
1.227172,	0.215662,	0.000045
1.234637,	0.215656,	0.000045
1.242101,	0.215650,	0.000045
1.249566,	0.215644,	0.000045
1.257031,	0.215638,	0.000045
1.264496,	0.215632,	0.000045
1.271961,	0.215626,	0.000045
1.279426,	0.215620,	0.000045
1.286890,	0.215614,	0.000045
1.294355,	0.215608,	0.000045
1.301820,	0.215602,	0.000045
1.309285,	0.215596,	0.000045
1.316749,	0.215589,	0.000045
1.324214,	0.215583,	0.000045
1.331679,	0.215577,	0.000045
1.339143,	0.215571,	0.000045
1.346608,	0.215565,	0.000045
1.354073,	0.215558,	0.000045
1.361537,	0.215552,	0.000045
1.369002,	0.215546,	0.000045
1.376467,	0.215540,	0.000045
1.383931,	0.215533,	0.000045
1.391396,	0.215527,	0.000045
1.398861,	0.215521,	0.000045
1.406325,	0.215515,	0.000045
1.413790,	0.215508,	0.000045
1.421254,	0.215502,	0.000045
1.428719,	0.215496,	0.000044
1.436184,	0.215489,	0.000044
1.443648,	0.215483,	0.000044
1.451113,	0.215477,	0.000044
1.458577,	0.215471,	0.000044
1.466042,	0.215464,	0.000044
1.473506,	0.215458,	0.000044
1.480971,	0.215452,	0.000044
1.488436,	0.215445,	0.000044
1.495900,	0.215439,	0.000044
1.503365,	0.215433,	0.000044
1.510829,	0.215426,	0.000044
1.518294,	0.215420,	0.000044
1.525758,	0.215414,	0.000044
1.533223,	0.215407,	0.000044
1.540687,	0.215401,	0.000044
1.548152,	0.215395,	0.000044
1.555616,	0.215388,	0.000044
1.563081,	0.215382,	0.000044
1.570546,	0.215376,	0.000044
1.578010,	0.215369,	0.000044
1.585475,	0.215363,	0.000044
1.592939,	0.215357,	0.000044
1.600404,	0.215350,	0.000044
1.607868,	0.215344,	0.000044
1.615333,	0.215338,	0.000044
1.622797,	0.215331,	0.000044
1.630262,	0.215325,	0.000044
1.637726,	0.215319,	0.000044
1.645191,	0.215312,	0.000044
1.652655,	0.215306,	0.000044
1.660120,	0.215300,	0.000044
1.667584,	0.215293,	0.000044
1.675049,	0.215287,	0.000044
1.682514,	0.215281,	0.000044
1.689978,	0.215275,	0.000044
1.697443,	0.215268,	0.000044
1.704907,	0.215262,	0.000044
1.712372,	0.215256,	0.000044
1.719836,	0.215249,	0.000044
1.727301,	0.215243,	0.000044
1.734765,	0.215237,	0.000044
1.742230,	0.215231,	0.000044
1.749694,	0.215224,	0.000044
1.757159,	0.215218,	0.000044
1.764623,	0.215212,	0.000044
1.772088,	0.215206,	0.000044
1.779552,	0.215200,	0.000044
1.787017,	0.215193,	0.000044
1.794481,	0.215187,	0.000044
1.801946,	0.215181,	0.000044