TITLE = "MeshVolumeStats"
VARIABLES = "X", "Y", "VOL"
ZONE I=101, J=26, DATAPACKING=POINT
1.057060,	0.267196,	0.000000
1.057754,	0.267182,	0.000000
1.058452,	0.267167,	0.000000
1.059153,	0.267152,	0.000000
1.059859,	0.267138,	0.000000
1.060569,	0.267123,	0.000001
1.061283,	0.267108,	0.000001
1.062002,	0.267093,	0.000001
1.062724,	0.267078,	0.000001
1.063452,	0.267062,	0.000001
1.064184,	0.267047,	0.000001
1.064920,	0.267032,	0.000001
1.065660,	0.267016,	0.000001
1.066406,	0.267001,	0.000001
1.067156,	0.266985,	0.000001
1.067911,	0.266969,	0.000001
1.068671,	0.266953,	0.000001
1.069435,	0.266937,	0.000001
1.070204,	0.266921,	0.000001
1.070978,	0.266905,	0.000001
1.071757,	0.266889,	0.000001
1.072542,	0.266872,	0.000001
1.073331,	0.266856,	0.000001
1.074125,	0.266839,	0.000001
1.074925,	0.266822,	0.000001
1.075730,	0.266806,	0.000001
1.076539,	0.266789,	0.000001
1.077355,	0.266772,	0.000001
1.078176,	0.266754,	0.000001
1.079003,	0.266737,	0.000001
1.079835,	0.266720,	0.000001
1.080672,	0.266702,	0.000001
1.081515,	0.266684,	0.000001
1.082364,	0.266667,	0.000001
1.083219,	0.266649,	0.000001
1.084080,	0.266631,	0.000001
1.084946,	0.266613,	0.000001
1.085818,	0.266594,	0.000001
1.086697,	0.266576,	0.000001
1.087581,	0.266558,	0.000001
1.088472,	0.266539,	0.000001
1.089369,	0.266520,	0.000001
1.090272,	0.266501,	0.000001
1.091182,	0.266482,	0.000001
1.092097,	0.266463,	0.000001
1.093020,	0.266444,	0.000001
1.093948,	0.266424,	0.000001
1.094884,	0.266405,	0.000001
1.095826,	0.266385,	0.000001
1.096775,	0.266365,	0.000001
1.097730,	0.266345,	0.000001
1.098693,	0.266325,	0.000001
1.099662,	0.266305,	0.000001
1.100639,	0.266284,	0.000001
1.101622,	0.266264,	0.000001
1.102612,	0.266243,	0.000001
1.103610,	0.266222,	0.000001
1.104615,	0.266201,	0.000001
1.105628,	0.266180,	0.000001
1.106647,	0.266159,	0.000001
1.107674,	0.266137,	0.000001
1.108710,	0.266116,	0.000001
1.109752,	0.266094,	0.000001
1.110802,	0.266072,	0.000001
1.111860,	0.266050,	0.000001
1.112926,	0.266027,	0.000001
1.113999,	0.266005,	0.000001
1.115081,	0.265982,	0.000001
1.116171,	0.265959,	0.000001
1.117268,	0.265937,	0.000001
1.118375,	0.265913,	0.000001
1.119489,	0.265890,	0.000001
1.120612,	0.265867,	0.000001
1.121743,	0.265843,	0.000001
1.122883,	0.265819,	0.000001
1.124031,	0.265795,	0.000001
1.125188,	0.265771,	0.000001
1.126354,	0.265746,	0.000001
1.127529,	0.265722,	0.000001
1.128713,	0.265697,	0.000001
1.129906,	0.265672,	0.000001
1.131107,	0.265647,	0.000001
1.132318,	0.265622,	0.000001
1.133539,	0.265596,	0.000001
1.134768,	0.265570,	0.000001
1.136007,	0.265544,	0.000001
1.137256,	0.265518,	0.000001
1.138514,	0.265492,	0.000001
1.139782,	0.265465,	0.000001
1.141060,	0.265439,	0.000001
1.142348,	0.265412,	0.000001
1.143646,	0.265385,	0.000001
1.144953,	0.265357,	0.000001
1.146272,	0.265330,	0.000001
1.147600,	0.265302,	0.000001
1.148938,	0.265274,	0.000001
1.150287,	0.265246,	0.000001
1.151647,	0.265217,	0.000001
1.153017,	0.265189,	0.000001
1.154398,	0.265160,	0.000001
1.155790,	0.265131,	0.000001
1.057061,	0.267900,	0.000000
1.057754,	0.267886,	0.000000
1.058452,	0.267872,	0.000000
1.059153,	0.267857,	0.000000
1.059859,	0.267843,	0.000000
1.060569,	0.267828,	0.000001
1.061284,	0.267813,	0.000001
1.062002,	0.267799,	0.000001
1.062725,	0.267784,	0.000001
1.063452,	0.267769,	0.000001
1.064184,	0.267754,	0.000001
1.064920,	0.267739,	0.000001
1.065661,	0.267724,	0.000001
1.066406,	0.267708,	0.000001
1.067156,	0.267693,	0.000001
1.067911,	0.267678,	0.000001
1.068671,	0.267662,	0.000001
1.069435,	0.267646,	0.000001
1.070204,	0.267631,	0.000001
1.070978,	0.267615,	0.000001
1.071757,	0.267599,	0.000001
1.072542,	0.267583,	0.000001
1.073331,	0.267567,	0.000001
1.074126,	0.267550,	0.000001
1.074925,	0.267534,	0.000001
1.075730,	0.267517,	0.000001
1.076540,	0.267501,	0.000001
1.077355,	0.267484,	0.000001
1.078176,	0.267467,	0.000001
1.079003,	0.267450,	0.000001
1.079835,	0.267433,	0.000001
1.080672,	0.267416,	0.000001
1.081516,	0.267399,	0.000001
1.082365,	0.267381,	0.000001
1.083219,	0.267364,	0.000001
1.084080,	0.267346,	0.000001
1.084946,	0.267328,	0.000001
1.085819,	0.267311,	0.000001
1.086697,	0.267293,	0.000001
1.087582,	0.267274,	0.000001
1.088472,	0.267256,	0.000001
1.089369,	0.267238,	0.000001
1.090272,	0.267219,	0.000001
1.091182,	0.267201,	0.000001
1.092097,	0.267182,	0.000001
1.093020,	0.267163,	0.000001
1.093949,	0.267144,	0.000001
1.094884,	0.267125,	0.000001
1.095826,	0.267105,	0.000001
1.096775,	0.267086,	0.000001
1.097730,	0.267066,	0.000001
1.098693,	0.267047,	0.000001
1.099662,	0.267027,	0.000001
1.100639,	0.267007,	0.000001
1.101622,	0.266987,	0.000001
1.102613,	0.266966,	0.000001
1.103611,	0.266946,	0.000001
1.104615,	0.266925,	0.000001
1.105628,	0.266904,	0.000001
1.106648,	0.266884,	0.000001
1.107675,	0.266863,	0.000001
1.108710,	0.266841,	0.000001
1.109752,	0.266820,	0.000001
1.110802,	0.266798,	0.000001
1.111860,	0.266777,	0.000001
1.112926,	0.266755,	0.000001
1.114000,	0.266733,	0.000001
1.115081,	0.266711,	0.000001
1.116171,	0.266688,	0.000001
1.117269,	0.266666,	0.000001
1.118375,	0.266643,	0.000001
1.119490,	0.266620,	0.000001
1.120613,	0.266597,	0.000001
1.121744,	0.266574,	0.000001
1.122883,	0.266551,	0.000001
1.124032,	0.266527,	0.000001
1.125189,	0.266504,	0.000001
1.126355,	0.266480,	0.000001
1.127530,	0.266456,	0.000001
1.128713,	0.266431,	0.000001
1.129906,	0.266407,	0.000001
1.131108,	0.266382,	0.000001
1.132319,	0.266357,	0.000001
1.133539,	0.266332,	0.000001
1.134769,	0.266307,	0.000001
1.136008,	0.266282,	0.000001
1.137256,	0.266256,	0.000001
1.138515,	0.266230,	0.000001
1.139783,	0.266204,	0.000001
1.141061,	0.266178,	0.000001
1.142348,	0.266152,	0.000001
1.143646,	0.266125,	0.000001
1.144954,	0.266098,	0.000001
1.146272,	0.266071,	0.000001
1.147600,	0.266044,	0.000001
1.148938,	0.266017,	0.000001
1.150288,	0.265989,	0.000001
1.151647,	0.265961,	0.000001
1.153017,	0.265933,	0.000001
1.154398,	0.265905,	0.000001
1.155790,	0.265876,	0.000001
1.057061,	0.268604,	0.000000
1.057755,	0.268590,	0.000000
1.058452,	0.268576,	0.000000
1.059154,	0.268562,	0.000000
1.059859,	0.268548,	0.000000
1.060570,	0.268534,	0.000001
1.061284,	0.268519,	0.000001
1.062002,	0.268505,	0.000001
1.062725,	0.268490,	0.000001
1.063452,	0.268476,	0.000001
1.064184,	0.268461,	0.000001
1.064920,	0.268446,	0.000001
1.065662,	0.268431,	0.000001
1.066407,	0.268416,	0.000001
1.067157,	0.268401,	0.000001
1.067912,	0.268386,	0.000001
1.068671,	0.268371,	0.000001
1.069435,	0.268356,	0.000001
1.070205,	0.268340,	0.000001
1.070978,	0.268325,	0.000001
1.071758,	0.268309,	0.000001
1.072542,	0.268293,	0.000001
1.073331,	0.268277,	0.000001
1.074126,	0.268261,	0.000001
1.074925,	0.268245,	0.000001
1.075730,	0.268229,	0.000001
1.076540,	0.268213,	0.000001
1.077356,	0.268197,	0.000001
1.078177,	0.268180,	0.000001
1.079003,	0.268163,	0.000001
1.079835,	0.268147,	0.000001
1.080673,	0.268130,	0.000001
1.081516,	0.268113,	0.000001
1.082365,	0.268096,	0.000001
1.083220,	0.268079,	0.000001
1.084080,	0.268062,	0.000001
1.084947,	0.268044,	0.000001
1.085819,	0.268027,	0.000001
1.086697,	0.268009,	0.000001
1.087582,	0.267991,	0.000001
1.088473,	0.267973,	0.000001
1.089370,	0.267955,	0.000001
1.090273,	0.267937,	0.000001
1.091182,	0.267919,	0.000001
1.092098,	0.267901,	0.000001
1.093020,	0.267882,	0.000001
1.093949,	0.267863,	0.000001
1.094885,	0.267845,	0.000001
1.095826,	0.267826,	0.000001
1.096775,	0.267807,	0.000001
1.097731,	0.267787,	0.000001
1.098693,	0.267768,	0.000001
1.099663,	0.267749,	0.000001
1.100639,	0.267729,	0.000001
1.101622,	0.267709,	0.000001
1.102613,	0.267689,	0.000001
1.103611,	0.267669,	0.000001
1.104616,	0.267649,	0.000001
1.105628,	0.267629,	0.000001
1.106648,	0.267608,	0.000001
1.107676,	0.267588,	0.000001
1.108710,	0.267567,	0.000001
1.109753,	0.267546,	0.000001
1.110803,	0.267525,	0.000001
1.111861,	0.267504,	0.000001
1.112926,	0.267482,	0.000001
1.114000,	0.267461,	0.000001
1.115082,	0.267439,	0.000001
1.116172,	0.267417,	0.000001
1.117269,	0.267395,	0.000001
1.118375,	0.267373,	0.000001
1.119490,	0.267351,	0.000001
1.120613,	0.267328,	0.000001
1.121744,	0.267305,	0.000001
1.122884,	0.267282,	0.000001
1.124032,	0.267259,	0.000001
1.125189,	0.267236,	0.000001
1.126355,	0.267213,	0.000001
1.127530,	0.267189,	0.000001
1.128713,	0.267165,	0.000001
1.129906,	0.267142,	0.000001
1.131108,	0.267117,	0.000001
1.132319,	0.267093,	0.000001
1.133539,	0.267069,	0.000001
1.134769,	0.267044,	0.000001
1.136008,	0.267019,	0.000001
1.137257,	0.266994,	0.000001
1.138515,	0.266969,	0.000001
1.139784,	0.266943,	0.000001
1.141061,	0.266918,	0.000001
1.142349,	0.266892,	0.000001
1.143647,	0.266866,	0.000001
1.144954,	0.266839,	0.000001
1.146272,	0.266813,	0.000001
1.147600,	0.266786,	0.000001
1.148939,	0.266759,	0.000001
1.150288,	0.266732,	0.000001
1.151648,	0.266705,	0.000001
1.153018,	0.266678,	0.000001
1.154399,	0.266650,	0.000001
1.155791,	0.266622,	0.000001
1.057061,	0.269308,	0.000000
1.057755,	0.269294,	0.000000
1.058452,	0.269281,	0.000000
1.059154,	0.269267,	0.000000
1.059860,	0.269253,	0.000000
1.060570,	0.269239,	0.000001
1.061284,	0.269225,	0.000001
1.062002,	0.269211,	0.000001
1.062725,	0.269197,	0.000001
1.063453,	0.269182,	0.000001
1.064185,	0.269168,	0.000001
1.064921,	0.269153,	0.000001
1.065662,	0.269139,	0.000001
1.066407,	0.269124,	0.000001
1.067157,	0.269109,	0.000001
1.067912,	0.269095,	0.000001
1.068671,	0.269080,	0.000001
1.069435,	0.269065,	0.000001
1.070205,	0.269050,	0.000001
1.070979,	0.269034,	0.000001
1.071758,	0.269019,	0.000001
1.072542,	0.269004,	0.000001
1.073331,	0.268988,	0.000001
1.074126,	0.268972,	0.000001
1.074925,	0.268957,	0.000001
1.075730,	0.268941,	0.000001
1.076541,	0.268925,	0.000001
1.077356,	0.268909,	0.000001
1.078177,	0.268893,	0.000001
1.079004,	0.268877,	0.000001
1.079835,	0.268860,	0.000001
1.080673,	0.268844,	0.000001
1.081516,	0.268827,	0.000001
1.082365,	0.268811,	0.000001
1.083220,	0.268794,	0.000001
1.084080,	0.268777,	0.000001
1.084947,	0.268760,	0.000001
1.085819,	0.268743,	0.000001
1.086698,	0.268725,	0.000001
1.087582,	0.268708,	0.000001
1.088473,	0.268691,	0.000001
1.089370,	0.268673,	0.000001
1.090273,	0.268655,	0.000001
1.091182,	0.268637,	0.000001
1.092099,	0.268619,	0.000001
1.093021,	0.268601,	0.000001
1.093949,	0.268583,	0.000001
1.094885,	0.268565,	0.000001
1.095827,	0.268546,	0.000001
1.096776,	0.268527,	0.000001
1.097732,	0.268509,	0.000001
1.098694,	0.268490,	0.000001
1.099663,	0.268471,	0.000001
1.100639,	0.268451,	0.000001
1.101623,	0.268432,	0.000001
1.102613,	0.268413,	0.000001
1.103611,	0.268393,	0.000001
1.104617,	0.268373,	0.000001
1.105629,	0.268353,	0.000001
1.106648,	0.268333,	0.000001
1.107676,	0.268313,	0.000001
1.108710,	0.268293,	0.000001
1.109753,	0.268272,	0.000001
1.110803,	0.268252,	0.000001
1.111861,	0.268231,	0.000001
1.112927,	0.268210,	0.000001
1.114000,	0.268189,	0.000001
1.115082,	0.268168,	0.000001
1.116172,	0.268146,	0.000001
1.117270,	0.268125,	0.000001
1.118376,	0.268103,	0.000001
1.119490,	0.268081,	0.000001
1.120613,	0.268059,	0.000001
1.121744,	0.268037,	0.000001
1.122884,	0.268014,	0.000001
1.124032,	0.267992,	0.000001
1.125190,	0.267969,	0.000001
1.126356,	0.267946,	0.000001
1.127530,	0.267923,	0.000001
1.128714,	0.267900,	0.000001
1.129907,	0.267876,	0.000001
1.131109,	0.267853,	0.000001
1.132320,	0.267829,	0.000001
1.133540,	0.267805,	0.000001
1.134770,	0.267781,	0.000001
1.136009,	0.267756,	0.000001
1.137257,	0.267732,	0.000001
1.138516,	0.267707,	0.000001
1.139784,	0.267682,	0.000001
1.141061,	0.267657,	0.000001
1.142349,	0.267632,	0.000001
1.143647,	0.267606,	0.000001
1.144955,	0.267580,	0.000001
1.146272,	0.267555,	0.000001
1.147601,	0.267528,	0.000001
1.148940,	0.267502,	0.000001
1.150289,	0.267476,	0.000001
1.151648,	0.267449,	0.000001
1.153018,	0.267422,	0.000001
1.154399,	0.267395,	0.000001
1.155791,	0.267368,	0.000001
1.057062,	0.270012,	0.000000
1.057755,	0.269998,	0.000000
1.058453,	0.269985,	0.000000
1.059154,	0.269972,	0.000000
1.059860,	0.269958,	0.000000
1.060570,	0.269944,	0.000001
1.061284,	0.269931,	0.000001
1.062002,	0.269917,	0.000001
1.062725,	0.269903,	0.000001
1.063453,	0.269889,	0.000001
1.064185,	0.269875,	0.000001
1.064921,	0.269861,	0.000001
1.065662,	0.269846,	0.000001
1.066407,	0.269832,	0.000001
1.067157,	0.269818,	0.000001
1.067912,	0.269803,	0.000001
1.068671,	0.269789,	0.000001
1.069436,	0.269774,	0.000001
1.070205,	0.269759,	0.000001
1.070979,	0.269744,	0.000001
1.071758,	0.269729,	0.000001
1.072542,	0.269714,	0.000001
1.073332,	0.269699,	0.000001
1.074126,	0.269684,	0.000001
1.074926,	0.269668,	0.000001
1.075730,	0.269653,	0.000001
1.076541,	0.269637,	0.000001
1.077356,	0.269622,	0.000001
1.078177,	0.269606,	0.000001
1.079004,	0.269590,	0.000001
1.079835,	0.269574,	0.000001
1.080673,	0.269558,	0.000001
1.081516,	0.269542,	0.000001
1.082365,	0.269525,	0.000001
1.083220,	0.269509,	0.000001
1.084081,	0.269492,	0.000001
1.084947,	0.269476,	0.000001
1.085819,	0.269459,	0.000001
1.086698,	0.269442,	0.000001
1.087582,	0.269425,	0.000001
1.088473,	0.269408,	0.000001
1.089370,	0.269390,	0.000001
1.090273,	0.269373,	0.000001
1.091183,	0.269356,	0.000001
1.092099,	0.269338,	0.000001
1.093021,	0.269320,	0.000001
1.093950,	0.269302,	0.000001
1.094885,	0.269284,	0.000001
1.095827,	0.269266,	0.000001
1.096776,	0.269248,	0.000001
1.097732,	0.269230,	0.000001
1.098694,	0.269211,	0.000001
1.099664,	0.269193,	0.000001
1.100640,	0.269174,	0.000001
1.101624,	0.269155,	0.000001
1.102614,	0.269136,	0.000001
1.103612,	0.269117,	0.000001
1.104617,	0.269097,	0.000001
1.105629,	0.269078,	0.000001
1.106649,	0.269058,	0.000001
1.107676,	0.269038,	0.000001
1.108711,	0.269019,	0.000001
1.109753,	0.268998,	0.000001
1.110804,	0.268978,	0.000001
1.111861,	0.268958,	0.000001
1.112927,	0.268937,	0.000001
1.114001,	0.268917,	0.000001
1.115082,	0.268896,	0.000001
1.116172,	0.268875,	0.000001
1.117270,	0.268854,	0.000001
1.118376,	0.268833,	0.000001
1.119491,	0.268811,	0.000001
1.120614,	0.268790,	0.000001
1.121745,	0.268768,	0.000001
1.122885,	0.268746,	0.000001
1.124033,	0.268724,	0.000001
1.125190,	0.268702,	0.000001
1.126356,	0.268679,	0.000001
1.127530,	0.268657,	0.000001
1.128714,	0.268634,	0.000001
1.129907,	0.268611,	0.000001
1.131109,	0.268588,	0.000001
1.132320,	0.268565,	0.000001
1.133541,	0.268541,	0.000001
1.134770,	0.268517,	0.000001
1.136009,	0.268494,	0.000001
1.137258,	0.268470,	0.000001
1.138516,	0.268445,	0.000001
1.139784,	0.268421,	0.000001
1.141062,	0.268396,	0.000001
1.142350,	0.268372,	0.000001
1.143647,	0.268347,	0.000001
1.144955,	0.268322,	0.000001
1.146273,	0.268296,	0.000001
1.147601,	0.268271,	0.000001
1.148940,	0.268245,	0.000001
1.150289,	0.268219,	0.000001
1.151648,	0.268193,	0.000001
1.153019,	0.268166,	0.000001
1.154400,	0.268140,	0.000001
1.155791,	0.268113,	0.000001
1.057062,	0.270716,	0.000000
1.057755,	0.270703,	0.000000
1.058453,	0.270690,	0.000000
1.059154,	0.270676,	0.000000
1.059860,	0.270663,	0.000000
1.060570,	0.270650,	0.000001
1.061284,	0.270636,	0.000001
1.062003,	0.270623,	0.000001
1.062726,	0.270609,	0.000001
1.063453,	0.270595,	0.000001
1.064185,	0.270582,	0.000001
1.064921,	0.270568,	0.000001
1.065662,	0.270554,	0.000001
1.066407,	0.270540,	0.000001
1.067157,	0.270526,	0.000001
1.067913,	0.270512,	0.000001
1.068672,	0.270497,	0.000001
1.069436,	0.270483,	0.000001
1.070205,	0.270469,	0.000001
1.070979,	0.270454,	0.000001
1.071759,	0.270439,	0.000001
1.072543,	0.270425,	0.000001
1.073332,	0.270410,	0.000001
1.074126,	0.270395,	0.000001
1.074926,	0.270380,	0.000001
1.075731,	0.270365,	0.000001
1.076541,	0.270349,	0.000001
1.077357,	0.270334,	0.000001
1.078178,	0.270319,	0.000001
1.079004,	0.270303,	0.000001
1.079836,	0.270287,	0.000001
1.080674,	0.270272,	0.000001
1.081517,	0.270256,	0.000001
1.082366,	0.270240,	0.000001
1.083220,	0.270224,	0.000001
1.084081,	0.270208,	0.000001
1.084948,	0.270191,	0.000001
1.085820,	0.270175,	0.000001
1.086698,	0.270158,	0.000001
1.087583,	0.270142,	0.000001
1.088474,	0.270125,	0.000001
1.089371,	0.270108,	0.000001
1.090274,	0.270091,	0.000001
1.091183,	0.270074,	0.000001
1.092099,	0.270057,	0.000001
1.093021,	0.270039,	0.000001
1.093950,	0.270022,	0.000001
1.094886,	0.270004,	0.000001
1.095828,	0.269987,	0.000001
1.096776,	0.269969,	0.000001
1.097732,	0.269951,	0.000001
1.098695,	0.269933,	0.000001
1.099664,	0.269914,	0.000001
1.100640,	0.269896,	0.000001
1.101624,	0.269878,	0.000001
1.102614,	0.269859,	0.000001
1.103612,	0.269840,	0.000001
1.104617,	0.269821,	0.000001
1.105630,	0.269802,	0.000001
1.106649,	0.269783,	0.000001
1.107677,	0.269764,	0.000001
1.108711,	0.269744,	0.000001
1.109754,	0.269725,	0.000001
1.110804,	0.269705,	0.000001
1.111862,	0.269685,	0.000001
1.112928,	0.269665,	0.000001
1.114001,	0.269645,	0.000001
1.115083,	0.269624,	0.000001
1.116173,	0.269604,	0.000001
1.117271,	0.269583,	0.000001
1.118377,	0.269563,	0.000001
1.119491,	0.269542,	0.000001
1.120614,	0.269520,	0.000001
1.121745,	0.269499,	0.000001
1.122885,	0.269478,	0.000001
1.124033,	0.269456,	0.000001
1.125190,	0.269434,	0.000001
1.126356,	0.269412,	0.000001
1.127531,	0.269390,	0.000001
1.128715,	0.269368,	0.000001
1.129907,	0.269346,	0.000001
1.131109,	0.269323,	0.000001
1.132320,	0.269300,	0.000001
1.133541,	0.269277,	0.000001
1.134770,	0.269254,	0.000001
1.136010,	0.269231,	0.000001
1.137258,	0.269207,	0.000001
1.138517,	0.269184,	0.000001
1.139784,	0.269160,	0.000001
1.141062,	0.269136,	0.000001
1.142350,	0.269112,	0.000001
1.143648,	0.269087,	0.000001
1.144956,	0.269063,	0.000001
1.146273,	0.269038,	0.000001
1.147602,	0.269013,	0.000001
1.148940,	0.268988,	0.000001
1.150289,	0.268962,	0.000001
1.151649,	0.268937,	0.000001
1.153019,	0.268911,	0.000001
1.154400,	0.268885,	0.000001
1.155792,	0.268859,	0.000001
1.057062,	0.271420,	0.000000
1.057755,	0.271407,	0.000000
1.058453,	0.271394,	0.000000
1.059155,	0.271381,	0.000000
1.059860,	0.271368,	0.000000
1.060570,	0.271355,	0.000001
1.061285,	0.271342,	0.000001
1.062003,	0.271329,	0.000001
1.062726,	0.271315,	0.000001
1.063454,	0.271302,	0.000001
1.064185,	0.271289,	0.000001
1.064922,	0.271275,	0.000001
1.065662,	0.271261,	0.000001
1.066408,	0.271248,	0.000001
1.067158,	0.271234,	0.000001
1.067913,	0.271220,	0.000001
1.068672,	0.271206,	0.000001
1.069437,	0.271192,	0.000001
1.070206,	0.271178,	0.000001
1.070980,	0.271164,	0.000001
1.071759,	0.271149,	0.000001
1.072543,	0.271135,	0.000001
1.073332,	0.271120,	0.000001
1.074126,	0.271106,	0.000001
1.074926,	0.271091,	0.000001
1.075731,	0.271076,	0.000001
1.076542,	0.271062,	0.000001
1.077357,	0.271047,	0.000001
1.078178,	0.271031,	0.000001
1.079004,	0.271016,	0.000001
1.079836,	0.271001,	0.000001
1.080674,	0.270986,	0.000001
1.081517,	0.270970,	0.000001
1.082366,	0.270954,	0.000001
1.083221,	0.270939,	0.000001
1.084081,	0.270923,	0.000001
1.084948,	0.270907,	0.000001
1.085820,	0.270891,	0.000001
1.086699,	0.270875,	0.000001
1.087583,	0.270858,	0.000001
1.088474,	0.270842,	0.000001
1.089371,	0.270826,	0.000001
1.090274,	0.270809,	0.000001
1.091184,	0.270792,	0.000001
1.092100,	0.270775,	0.000001
1.093022,	0.270759,	0.000001
1.093951,	0.270741,	0.000001
1.094886,	0.270724,	0.000001
1.095828,	0.270707,	0.000001
1.096777,	0.270690,	0.000001
1.097732,	0.270672,	0.000001
1.098695,	0.270654,	0.000001
1.099665,	0.270636,	0.000001
1.100641,	0.270618,	0.000001
1.101624,	0.270600,	0.000001
1.102615,	0.270582,	0.000001
1.103613,	0.270564,	0.000001
1.104617,	0.270545,	0.000001
1.105630,	0.270527,	0.000001
1.106650,	0.270508,	0.000001
1.107677,	0.270489,	0.000001
1.108712,	0.270470,	0.000001
1.109754,	0.270451,	0.000001
1.110804,	0.270432,	0.000001
1.111862,	0.270412,	0.000001
1.112928,	0.270393,	0.000001
1.114002,	0.270373,	0.000001
1.115083,	0.270353,	0.000001
1.116173,	0.270333,	0.000001
1.117271,	0.270313,	0.000001
1.118377,	0.270292,	0.000001
1.119492,	0.270272,	0.000001
1.120614,	0.270251,	0.000001
1.121745,	0.270230,	0.000001
1.122885,	0.270209,	0.000001
1.124034,	0.270188,	0.000001
1.125191,	0.270167,	0.000001
1.126357,	0.270146,	0.000001
1.127531,	0.270124,	0.000001
1.128715,	0.270102,	0.000001
1.129908,	0.270080,	0.000001
1.131110,	0.270058,	0.000001
1.132321,	0.270036,	0.000001
1.133541,	0.270014,	0.000001
1.134771,	0.269991,	0.000001
1.136010,	0.269968,	0.000001
1.137259,	0.269945,	0.000001
1.138517,	0.269922,	0.000001
1.139785,	0.269899,	0.000001
1.141063,	0.269875,	0.000001
1.142351,	0.269852,	0.000001
1.143648,	0.269828,	0.000001
1.144956,	0.269804,	0.000001
1.146274,	0.269779,	0.000001
1.147602,	0.269755,	0.000001
1.148941,	0.269730,	0.000001
1.150290,	0.269706,	0.000001
1.151649,	0.269681,	0.000001
1.153020,	0.269655,	0.000001
1.154400,	0.269630,	0.000001
1.155792,	0.269604,	0.000001
1.057062,	0.272124,	0.000000
1.057756,	0.272111,	0.000000
1.058453,	0.272099,	0.000000
1.059155,	0.272086,	0.000000
1.059861,	0.272073,	0.000000
1.060571,	0.272061,	0.000001
1.061285,	0.272048,	0.000001
1.062003,	0.272035,	0.000001
1.062727,	0.272022,	0.000001
1.063454,	0.272009,	0.000001
1.064186,	0.271996,	0.000001
1.064922,	0.271982,	0.000001
1.065662,	0.271969,	0.000001
1.066408,	0.271956,	0.000001
1.067158,	0.271942,	0.000001
1.067913,	0.271929,	0.000001
1.068672,	0.271915,	0.000001
1.069437,	0.271901,	0.000001
1.070206,	0.271887,	0.000001
1.070980,	0.271874,	0.000001
1.071759,	0.271860,	0.000001
1.072544,	0.271845,	0.000001
1.073333,	0.271831,	0.000001
1.074127,	0.271817,	0.000001
1.074927,	0.271803,	0.000001
1.075732,	0.271788,	0.000001
1.076542,	0.271774,	0.000001
1.077357,	0.271759,	0.000001
1.078178,	0.271744,	0.000001
1.079004,	0.271729,	0.000001
1.079836,	0.271714,	0.000001
1.080674,	0.271699,	0.000001
1.081517,	0.271684,	0.000001
1.082366,	0.271669,	0.000001
1.083221,	0.271654,	0.000001
1.084082,	0.271638,	0.000001
1.084948,	0.271623,	0.000001
1.085821,	0.271607,	0.000001
1.086699,	0.271591,	0.000001
1.087584,	0.271575,	0.000001
1.088474,	0.271559,	0.000001
1.089371,	0.271543,	0.000001
1.090274,	0.271527,	0.000001
1.091184,	0.271511,	0.000001
1.092100,	0.271494,	0.000001
1.093022,	0.271478,	0.000001
1.093951,	0.271461,	0.000001
1.094886,	0.271444,	0.000001
1.095828,	0.271427,	0.000001
1.096777,	0.271410,	0.000001
1.097732,	0.271393,	0.000001
1.098695,	0.271376,	0.000001
1.099665,	0.271358,	0.000001
1.100641,	0.271341,	0.000001
1.101625,	0.271323,	0.000001
1.102615,	0.271305,	0.000001
1.103613,	0.271287,	0.000001
1.104618,	0.271269,	0.000001
1.105630,	0.271251,	0.000001
1.106650,	0.271233,	0.000001
1.107677,	0.271214,	0.000001
1.108712,	0.271196,	0.000001
1.109755,	0.271177,	0.000001
1.110804,	0.271158,	0.000001
1.111862,	0.271139,	0.000001
1.112928,	0.271120,	0.000001
1.114002,	0.271101,	0.000001
1.115084,	0.271081,	0.000001
1.116173,	0.271062,	0.000001
1.117271,	0.271042,	0.000001
1.118377,	0.271022,	0.000001
1.119492,	0.271002,	0.000001
1.120614,	0.270982,	0.000001
1.121746,	0.270962,	0.000001
1.122886,	0.270941,	0.000001
1.124034,	0.270921,	0.000001
1.125191,	0.270900,	0.000001
1.126357,	0.270879,	0.000001
1.127532,	0.270858,	0.000001
1.128716,	0.270836,	0.000001
1.129908,	0.270815,	0.000001
1.131110,	0.270793,	0.000001
1.132321,	0.270772,	0.000001
1.133542,	0.270750,	0.000001
1.134771,	0.270728,	0.000001
1.136011,	0.270705,	0.000001
1.137259,	0.270683,	0.000001
1.138517,	0.270660,	0.000001
1.139785,	0.270638,	0.000001
1.141063,	0.270615,	0.000001
1.142351,	0.270592,	0.000001
1.143649,	0.270568,	0.000001
1.144957,	0.270545,	0.000001
1.146275,	0.270521,	0.000001
1.147603,	0.270497,	0.000001
1.148941,	0.270473,	0.000001
1.150290,	0.270449,	0.000001
1.151650,	0.270425,	0.000001
1.153020,	0.270400,	0.000001
1.154401,	0.270375,	0.000001
1.155793,	0.270350,	0.000001
1.057062,	0.272827,	0.000000
1.057756,	0.272815,	0.000000
1.058453,	0.272803,	0.000000
1.059155,	0.272791,	0.000000
1.059861,	0.272778,	0.000000
1.060571,	0.272766,	0.000001
1.061285,	0.272753,	0.000001
1.062003,	0.272741,	0.000001
1.062727,	0.272728,	0.000001
1.063454,	0.272715,	0.000001
1.064186,	0.272702,	0.000001
1.064922,	0.272690,	0.000001
1.065662,	0.272677,	0.000001
1.066408,	0.272664,	0.000001
1.067158,	0.272650,	0.000001
1.067913,	0.272637,	0.000001
1.068672,	0.272624,	0.000001
1.069437,	0.272610,	0.000001
1.070206,	0.272597,	0.000001
1.070980,	0.272583,	0.000001
1.071759,	0.272570,	0.000001
1.072544,	0.272556,	0.000001
1.073333,	0.272542,	0.000001
1.074127,	0.272528,	0.000001
1.074927,	0.272514,	0.000001
1.075732,	0.272500,	0.000001
1.076542,	0.272486,	0.000001
1.077357,	0.272472,	0.000001
1.078178,	0.272457,	0.000001
1.079005,	0.272443,	0.000001
1.079837,	0.272428,	0.000001
1.080674,	0.272413,	0.000001
1.081518,	0.272399,	0.000001
1.082367,	0.272384,	0.000001
1.083221,	0.272369,	0.000001
1.084082,	0.272354,	0.000001
1.084948,	0.272338,	0.000001
1.085821,	0.272323,	0.000001
1.086699,	0.272308,	0.000001
1.087584,	0.272292,	0.000001
1.088475,	0.272276,	0.000001
1.089371,	0.272261,	0.000001
1.090275,	0.272245,	0.000001
1.091184,	0.272229,	0.000001
1.092100,	0.272213,	0.000001
1.093022,	0.272197,	0.000001
1.093951,	0.272180,	0.000001
1.094886,	0.272164,	0.000001
1.095829,	0.272148,	0.000001
1.096777,	0.272131,	0.000001
1.097733,	0.272114,	0.000001
1.098696,	0.272097,	0.000001
1.099665,	0.272080,	0.000001
1.100641,	0.272063,	0.000001
1.101625,	0.272046,	0.000001
1.102615,	0.272028,	0.000001
1.103613,	0.272011,	0.000001
1.104618,	0.271993,	0.000001
1.105630,	0.271976,	0.000001
1.106650,	0.271958,	0.000001
1.107677,	0.271940,	0.000001
1.108712,	0.271922,	0.000001
1.109755,	0.271903,	0.000001
1.110805,	0.271885,	0.000001
1.111863,	0.271866,	0.000001
1.112929,	0.271848,	0.000001
1.114002,	0.271829,	0.000001
1.115084,	0.271810,	0.000001
1.116174,	0.271791,	0.000001
1.117272,	0.271771,	0.000001
1.118378,	0.271752,	0.000001
1.119492,	0.271732,	0.000001
1.120615,	0.271713,	0.000001
1.121746,	0.271693,	0.000001
1.122886,	0.271673,	0.000001
1.124035,	0.271653,	0.000001
1.125192,	0.271632,	0.000001
1.126358,	0.271612,	0.000001
1.127533,	0.271591,	0.000001
1.128716,	0.271571,	0.000001
1.129909,	0.271550,	0.000001
1.131111,	0.271529,	0.000001
1.132322,	0.271507,	0.000001
1.133542,	0.271486,	0.000001
1.134772,	0.271464,	0.000001
1.136011,	0.271443,	0.000001
1.137260,	0.271421,	0.000001
1.138518,	0.271399,	0.000001
1.139786,	0.271377,	0.000001
1.141064,	0.271354,	0.000001
1.142351,	0.271332,	0.000001
1.143649,	0.271309,	0.000001
1.144957,	0.271286,	0.000001
1.146275,	0.271263,	0.000001
1.147603,	0.271239,	0.000001
1.148942,	0.271216,	0.000001
1.150291,	0.271192,	0.000001
1.151651,	0.271168,	0.000001
1.153021,	0.271144,	0.000001
1.154401,	0.271120,	0.000001
1.155793,	0.271096,	0.000001
1.057062,	0.273531,	0.000000
1.057756,	0.273520,	0.000000
1.058454,	0.273508,	0.000000
1.059155,	0.273496,	0.000000
1.059861,	0.273483,	0.000000
1.060571,	0.273471,	0.000001
1.061285,	0.273459,	0.000001
1.062004,	0.273447,	0.000001
1.062727,	0.273434,	0.000001
1.063454,	0.273422,	0.000001
1.064186,	0.273409,	0.000001
1.064922,	0.273397,	0.000001
1.065663,	0.273384,	0.000001
1.066408,	0.273371,	0.000001
1.067158,	0.273359,	0.000001
1.067913,	0.273346,	0.000001
1.068673,	0.273333,	0.000001
1.069437,	0.273320,	0.000001
1.070206,	0.273306,	0.000001
1.070981,	0.273293,	0.000001
1.071760,	0.273280,	0.000001
1.072544,	0.273266,	0.000001
1.073333,	0.273253,	0.000001
1.074127,	0.273239,	0.000001
1.074927,	0.273226,	0.000001
1.075732,	0.273212,	0.000001
1.076542,	0.273198,	0.000001
1.077358,	0.273184,	0.000001
1.078179,	0.273170,	0.000001
1.079005,	0.273156,	0.000001
1.079837,	0.273142,	0.000001
1.080675,	0.273127,	0.000001
1.081518,	0.273113,	0.000001
1.082367,	0.273098,	0.000001
1.083222,	0.273084,	0.000001
1.084082,	0.273069,	0.000001
1.084949,	0.273054,	0.000001
1.085821,	0.273039,	0.000001
1.086700,	0.273024,	0.000001
1.087584,	0.273009,	0.000001
1.088475,	0.272994,	0.000001
1.089372,	0.272978,	0.000001
1.090275,	0.272963,	0.000001
1.091185,	0.272947,	0.000001
1.092100,	0.272932,	0.000001
1.093023,	0.272916,	0.000001
1.093952,	0.272900,	0.000001
1.094887,	0.272884,	0.000001
1.095829,	0.272868,	0.000001
1.096778,	0.272852,	0.000001
1.097733,	0.272835,	0.000001
1.098696,	0.272819,	0.000001
1.099665,	0.272802,	0.000001
1.100642,	0.272785,	0.000001
1.101625,	0.272769,	0.000001
1.102616,	0.272752,	0.000001
1.103614,	0.272735,	0.000001
1.104618,	0.272717,	0.000001
1.105631,	0.272700,	0.000001
1.106651,	0.272683,	0.000001
1.107678,	0.272665,	0.000001
1.108713,	0.272647,	0.000001
1.109755,	0.272629,	0.000001
1.110806,	0.272611,	0.000001
1.111863,	0.272593,	0.000001
1.112929,	0.272575,	0.000001
1.114003,	0.272557,	0.000001
1.115084,	0.272538,	0.000001
1.116174,	0.272520,	0.000001
1.117272,	0.272501,	0.000001
1.118378,	0.272482,	0.000001
1.119493,	0.272463,	0.000001
1.120615,	0.272444,	0.000001
1.121747,	0.272424,	0.000001
1.122886,	0.272405,	0.000001
1.124035,	0.272385,	0.000001
1.125192,	0.272365,	0.000001
1.126358,	0.272345,	0.000001
1.127533,	0.272325,	0.000001
1.128716,	0.272305,	0.000001
1.129909,	0.272284,	0.000001
1.131111,	0.272264,	0.000001
1.132322,	0.272243,	0.000001
1.133542,	0.272222,	0.000001
1.134772,	0.272201,	0.000001
1.136011,	0.272180,	0.000001
1.137260,	0.272159,	0.000001
1.138518,	0.272137,	0.000001
1.139787,	0.272115,	0.000001
1.141064,	0.272094,	0.000001
1.142352,	0.272071,	0.000001
1.143649,	0.272049,	0.000001
1.144957,	0.272027,	0.000001
1.146276,	0.272004,	0.000001
1.147604,	0.271982,	0.000001
1.148942,	0.271959,	0.000001
1.150291,	0.271936,	0.000001
1.151651,	0.271912,	0.000001
1.153021,	0.271889,	0.000001
1.154402,	0.271865,	0.000001
1.155794,	0.271841,	0.000001
1.057063,	0.274235,	0.000000
1.057756,	0.274224,	0.000000
1.058454,	0.274212,	0.000000
1.059156,	0.274200,	0.000000
1.059861,	0.274189,	0.000000
1.060571,	0.274177,	0.000001
1.061286,	0.274165,	0.000001
1.062004,	0.274153,	0.000001
1.062727,	0.274141,	0.000001
1.063455,	0.274129,	0.000001
1.064186,	0.274116,	0.000001
1.064922,	0.274104,	0.000001
1.065663,	0.274092,	0.000001
1.066409,	0.274079,	0.000001
1.067159,	0.274067,	0.000001
1.067913,	0.274054,	0.000001
1.068673,	0.274041,	0.000001
1.069437,	0.274029,	0.000001
1.070207,	0.274016,	0.000001
1.070981,	0.274003,	0.000001
1.071760,	0.273990,	0.000001